<LesHouchesEvents version="1.0">
<!--
Output from the JHUGenerator v7.4.1 described in arXiv:1001.3396 [hep-ph], arXiv:1208.4018 [hep-ph], arXiv:1309.4819 [hep-ph], arXiv:1606.03107 [hep-ph]
   
   Command line: ./JHUGen Seed=765543533 Collider=0 Process=50 VegasNc0=100000 VegasNc2=100 HbbDK DataFile=compare_to_reference/ee_gammaH_bb DecayMode1=7 ghg2=0.383432074687728,0.918260989345657 ghg3=6294.49296087723,2253.12941717723 ghg4=0.335495485382528,0.17285803562226 ghz1=0.154934976270359,0.453918144016304 ghz2=0.469297059144414,0.745302300947002 ghz3=3947.40921062637,3597.4885961919 ghz4=0.177791270766536,0.920170534486048 ghzgs2=0.0240331049939919,0.232175381101053 ghzgs3=0.331962910170583,0.0450183240308457 ghzgs4=0.808286540247172,0.133184346613754 ghgsgs2=0.530394804029869,0.211218112389125 ghgsgs3=0.914978695198138,0.055650585081425 ghgsgs4=0.694524307167701,0.511424456076726 ghz1_prime=0.143354267833606,0.0910761280837012 ghz1_prime2=7416.7007267243,4861.35525489789 ghz1_prime3=4431.44656075298,4436.48625894176 ghz1_prime4=2441.69123517064,6946.16318931911 ghz1_prime5=78314042.889773,69465359.939181 ghz1_prime6=51233058.8130761,29537873.5850789 ghz1_prime7=47832192.9001564,59559649.963329
   
   Input Parameter:
    Collider: e+ e-, sqrt(s)=  250.00
    Resonance: spin=0, mass= 125.00 width=   0.00407
    DecayMode1: 7
    Jet cuts:
            pT >=     0.00 GeV
        DeltaR >=     0.00
           mJJ >=     0.00 GeV
      m(gammastar) >=     4.00 GeV
    Random seed:   765543533
    To reproduce results using this seed, JHUGen should be compiled with the same compiler:
      GNU Fortran (GCC) 6.3.0
    
    WidthScheme:   2
    PDFSet:   1
    Unweighted: T
    
    Spin-0-VV couplings: 
      generate_as=F
      kappa_top=  0.10000000E+01  0.00000000E+00i
      kappa_bot=  0.10000000E+01  0.00000000E+00i
      ghg2=  0.38343207E+00  0.91826099E+00i
      ghg3=  0.62944930E+04  0.22531294E+04i
      ghg4=  0.33549549E+00  0.17285804E+00i
      ghz1=  0.15493498E+00  0.45391814E+00i
      ghz2=  0.46929706E+00  0.74530230E+00i
      ghz3=  0.39474092E+04  0.35974886E+04i
      ghz4=  0.17779127E+00  0.92017053E+00i
      ghz1_prime=   0.14335427E+00  0.91076128E-01i,    Lambda_z1=  1.0000E+04
      ghz1_prime2=  0.74167007E+04  0.48613553E+04i,    Lambda_z1=  1.0000E+04
      ghz1_prime3=  0.44314466E+04  0.44364863E+04i,    Lambda_z1=  1.0000E+04
      ghz1_prime4=  0.24416912E+04  0.69461632E+04i,    Lambda_z1=  1.0000E+04
      ghz1_prime5=  0.78314043E+08  0.69465360E+08i,    Lambda_z1=  1.0000E+04
      ghz1_prime6=  0.51233059E+08  0.29537874E+08i,    Lambda_z1=  1.0000E+04
      ghz1_prime7=  0.47832193E+08  0.59559650E+08i,    Lambda_z1=  1.0000E+04
      ghz2_prime=   0.57465793E+00  0.41992191E+00i,    Lambda_z2=  1.0000E+04
      ghz2_prime2=  0.43854587E+04  0.61761246E+04i,    Lambda_z2=  1.0000E+04
      ghz2_prime3=  0.45921696E+04  0.75499391E+04i,    Lambda_z2=  1.0000E+04
      ghz2_prime4=  0.84715906E+04  0.71997238E+04i,    Lambda_z2=  1.0000E+04
      ghz2_prime5=  0.19558280E+08  0.94843889E+08i,    Lambda_z2=  1.0000E+04
      ghz2_prime6=  0.23209661E+08  0.67617823E+08i,    Lambda_z2=  1.0000E+04
      ghz2_prime7=  0.70059904E+07  0.53660191E+08i,    Lambda_z2=  1.0000E+04
      ghz3_prime=   0.40457065E+04  0.19693161E+04i,    Lambda_z3=  1.0000E+04
      ghz3_prime2=  0.33402456E+08  0.37615919E+07i,    Lambda_z3=  1.0000E+04
      ghz3_prime3=  0.44855080E+08  0.12184926E+08i,    Lambda_z3=  1.0000E+04
      ghz3_prime4=  0.27878602E+08  0.78237524E+08i,    Lambda_z3=  1.0000E+04
      ghz3_prime5=  0.93246434E+12  0.63158085E+12i,    Lambda_z3=  1.0000E+04
      ghz3_prime6=  0.35811562E+12  0.41077746E+12i,    Lambda_z3=  1.0000E+04
      ghz3_prime7=  0.62298148E+12  0.61827857E+12i,    Lambda_z3=  1.0000E+04
      ghz4_prime=   0.41653395E+00  0.33115593E+00i,    Lambda_z4=  1.0000E+04
      ghz4_prime2=  0.75883756E+04  0.39234327E+04i,    Lambda_z4=  1.0000E+04
      ghz4_prime3=  0.89560755E+04  0.93020315E+04i,    Lambda_z4=  1.0000E+04
      ghz4_prime4=  0.32034411E+04  0.28637675E+04i,    Lambda_z4=  1.0000E+04
      ghz4_prime5=  0.49012574E+08  0.74595801E+08i,    Lambda_z4=  1.0000E+04
      ghz4_prime6=  0.73323810E+08  0.53968832E+08i,    Lambda_z4=  1.0000E+04
      ghz4_prime7=  0.68563876E+08  0.43025214E+08i,    Lambda_z4=  1.0000E+04
      ghzgs2=  0.24033105E-01  0.23217538E+00i
      ghzgs3=  0.33196291E+00  0.45018324E-01i
      ghzgs4=  0.80828654E+00  0.13318435E+00i
      ghzgs1_prime2=  0.56689643E+04  0.70176759E+04i,  Lambda_zgs1=  1.0000E+04
      ghgsgs2=  0.53039480E+00  0.21121811E+00i
      ghgsgs3=  0.91497870E+00  0.55650585E-01i
      ghgsgs4=  0.69452431E+00  0.51142446E+00i
      Lambda=  1000.0
      Lambda_Q=  10000.0
      Lambda_z11=   1.3888E+02
      Lambda_z21=   1.5452E+02
      Lambda_z31=   1.1998E+02
      Lambda_z41=   1.8136E+02
      Lambda_z12=   1.3667E+02
      Lambda_z22=   1.6659E+02
      Lambda_z32=   1.3884E+02
      Lambda_z42=   4.9064E+01
      Lambda_z10=   9.6973E+00
      Lambda_z20=   1.9326E+02
      Lambda_z30=   8.9204E+01
      Lambda_z40=   1.6167E+02
    
    LHE output: compare_to_reference/ee_gammaH_bb.lhe
    Histogram output: compare_to_reference/ee_gammaH_bb.dat
    Log file: compare_to_reference/ee_gammaH_bb.log
    
-->
<init>
 -11   11    125.0000000000000000     125.0000000000000000 0 0       0       0  3  1
 1.0000000E+00  1.0000000E+14  1.0000000E+00  50
</init>
<event>
 6  50   1.0000000E+00   1.2500000E+02   7.8125000E-03   1.2380607E-01
      -11   -1    0    0    0    0  0.00000000000E+00  0.00000000000E+00  1.25000000000E+02  1.25000000000E+02  0.00000000000E+00 0.00000000000E+00  1.
       11   -1    0    0    0    0  0.00000000000E+00  0.00000000000E+00 -1.25000000000E+02  1.25000000000E+02  0.00000000000E+00 0.00000000000E+00  1.
       22    1    1    2    0    0  9.26047679341E+01 -1.40470214744E+01 -4.02775549035E+00  9.37506515749E+01  0.00000000000E+00 0.00000000000E+00  1.
       25    2    1    2    0    0 -9.26047679341E+01  1.40470214744E+01  4.02775549035E+00  1.56249348425E+02  1.24998696843E+02 0.00000000000E+00  1.
        5    1    4    4  501    0 -4.99575629777E+00 -3.77031532933E+01  3.31071340582E+01  5.04238800053E+01  0.00000000000E+00 0.00000000000E+00  1.
       -5    1    4    4    0  501 -8.76090116363E+01  5.17501747677E+01 -2.90793785679E+01  1.05825468420E+02  0.00000000000E+00 0.00000000000E+00  1.
</event>
<event>
 6  50   1.0000000E+00   1.2500000E+02   7.8125000E-03   1.2380607E-01
      -11   -1    0    0    0    0  0.00000000000E+00  0.00000000000E+00  1.25000000000E+02  1.25000000000E+02  0.00000000000E+00 0.00000000000E+00  1.
       11   -1    0    0    0    0  0.00000000000E+00  0.00000000000E+00 -1.25000000000E+02  1.25000000000E+02  0.00000000000E+00 0.00000000000E+00  1.
       22    1    1    2    0    0  1.35877597642E+01  5.55515624654E+01 -7.42864998393E+01  9.37501326193E+01  0.00000000000E+00 0.00000000000E+00  1.
       25    2    1    2    0    0 -1.35877597642E+01 -5.55515624654E+01  7.42864998393E+01  1.56249867381E+02  1.24999734761E+02 0.00000000000E+00  1.
        5    1    4    4  501    0  3.56416913629E+01 -7.61043605456E+01  4.28890366455E+01  9.43486794907E+01  0.00000000000E+00 0.00000000000E+00  1.
       -5    1    4    4    0  501 -4.92294511271E+01  2.05527980801E+01  3.13974631938E+01  6.19011878900E+01  0.00000000000E+00 0.00000000000E+00  1.
</event>
<event>
 6  50   1.0000000E+00   1.2500000E+02   7.8125000E-03   1.2380607E-01
      -11   -1    0    0    0    0  0.00000000000E+00  0.00000000000E+00  1.25000000000E+02  1.25000000000E+02  0.00000000000E+00 0.00000000000E+00  1.
       11   -1    0    0    0    0  0.00000000000E+00  0.00000000000E+00 -1.25000000000E+02  1.25000000000E+02  0.00000000000E+00 0.00000000000E+00  1.
       22    1    1    2    0    0  4.94772326506E+01 -7.96143856248E+01  1.72986413126E+00  9.37520100002E+01  0.00000000000E+00 0.00000000000E+00  1.
       25    2    1    2    0    0 -4.94772326506E+01  7.96143856248E+01 -1.72986413126E+00  1.56247990000E+02  1.24995979935E+02 0.00000000000E+00  1.
        5    1    4    4  501    0 -2.72024812494E+01 -3.51459973942E+00  4.91397210851E+01  5.62764567628E+01  0.00000000000E+00 0.00000000000E+00  1.
       -5    1    4    4    0  501 -2.22747514012E+01  8.31289853642E+01 -5.08695852164E+01  9.99715332370E+01  0.00000000000E+00 0.00000000000E+00  1.
</event>
<event>
 6  50   1.0000000E+00   1.2500000E+02   7.8125000E-03   1.2380607E-01
      -11   -1    0    0    0    0  0.00000000000E+00  0.00000000000E+00  1.25000000000E+02  1.25000000000E+02  0.00000000000E+00 0.00000000000E+00  1.
       11   -1    0    0    0    0  0.00000000000E+00  0.00000000000E+00 -1.25000000000E+02  1.25000000000E+02  0.00000000000E+00 0.00000000000E+00  1.
       22    1    1    2    0    0 -6.87249158041E+01 -4.88992437949E+01  4.09259205140E+01  9.37506323494E+01  0.00000000000E+00 0.00000000000E+00  1.
       25    2    1    2    0    0  6.87249158041E+01  4.88992437949E+01 -4.09259205140E+01  1.56249367651E+02  1.24998735295E+02 0.00000000000E+00  1.
        5    1    4    4  501    0 -2.26916933879E+01  3.41466838643E+01 -4.83027858925E+01  6.33566736241E+01  0.00000000000E+00 0.00000000000E+00  1.
       -5    1    4    4    0  501  9.14166091921E+01  1.47525599305E+01  7.37686537849E+00  9.28926940264E+01  0.00000000000E+00 0.00000000000E+00  1.
</event>
<event>
 6  50   1.0000000E+00   1.2500000E+02   7.8125000E-03   1.2380607E-01
      -11   -1    0    0    0    0  0.00000000000E+00  0.00000000000E+00  1.25000000000E+02  1.25000000000E+02  0.00000000000E+00 0.00000000000E+00  1.
       11   -1    0    0    0    0  0.00000000000E+00  0.00000000000E+00 -1.25000000000E+02  1.25000000000E+02  0.00000000000E+00 0.00000000000E+00  1.
       22    1    1    2    0    0 -1.91430514837E+01 -1.90119604040E+01 -8.97824665059E+01  9.37486125251E+01  0.00000000000E+00 0.00000000000E+00  1.
       25    2    1    2    0    0  1.91430514837E+01  1.90119604040E+01  8.97824665059E+01  1.56251387475E+02  1.25002774919E+02 0.00000000000E+00  1.
        5    1    4    4  501    0  4.72743488416E+01 -3.25665860580E+01  7.71382587370E+01  9.61548623151E+01  0.00000000000E+00 0.00000000000E+00  1.
       -5    1    4    4    0  501 -2.81312973579E+01  5.15785464620E+01  1.26442077689E+01  6.00965251597E+01  0.00000000000E+00 0.00000000000E+00  1.
</event>
<event>
 6  50   1.0000000E+00   1.2500000E+02   7.8125000E-03   1.2380607E-01
      -11   -1    0    0    0    0  0.00000000000E+00  0.00000000000E+00  1.25000000000E+02  1.25000000000E+02  0.00000000000E+00 0.00000000000E+00  1.
       11   -1    0    0    0    0  0.00000000000E+00  0.00000000000E+00 -1.25000000000E+02  1.25000000000E+02  0.00000000000E+00 0.00000000000E+00  1.
       22    1    1    2    0    0  2.82633053039E+01 -5.91505957311E+01  6.70162978251E+01  9.37485550621E+01  0.00000000000E+00 0.00000000000E+00  1.
       25    2    1    2    0    0 -2.82633053039E+01  5.91505957311E+01 -6.70162978251E+01  1.56251444938E+02  1.25002889842E+02 0.00000000000E+00  1.
        5    1    4    4  501    0  2.04017774951E+01  5.84468884774E+00  2.91213176135E+01  3.60339291812E+01  0.00000000000E+00 0.00000000000E+00  1.
       -5    1    4    4    0  501 -4.86650827991E+01  5.33059068834E+01 -9.61376154386E+01  1.20217515757E+02  0.00000000000E+00 0.00000000000E+00  1.
</event>
<event>
 6  50   1.0000000E+00   1.2500000E+02   7.8125000E-03   1.2380607E-01
      -11   -1    0    0    0    0  0.00000000000E+00  0.00000000000E+00  1.25000000000E+02  1.25000000000E+02  0.00000000000E+00 0.00000000000E+00  1.
       11   -1    0    0    0    0  0.00000000000E+00  0.00000000000E+00 -1.25000000000E+02  1.25000000000E+02  0.00000000000E+00 0.00000000000E+00  1.
       22    1    1    2    0    0  2.63093628618E+01 -7.22469439990E+01  5.39085766396E+01  9.39038770589E+01  0.00000000000E+00 0.00000000000E+00  1.
       25    2    1    2    0    0 -2.63093628618E+01  7.22469439990E+01 -5.39085766396E+01  1.56096122941E+02  1.24691866096E+02 0.00000000000E+00  1.
        5    1    4    4  501    0  3.73296788929E+01  5.24497405281E+01 -6.14822382304E+01  8.90199181393E+01  0.00000000000E+00 0.00000000000E+00  1.
       -5    1    4    4    0  501 -6.36390417547E+01  1.97972034709E+01  7.57366159073E+00  6.70762048018E+01  0.00000000000E+00 0.00000000000E+00  1.
</event>
<event>
 6  50   1.0000000E+00   1.2500000E+02   7.8125000E-03   1.2380607E-01
      -11   -1    0    0    0    0  0.00000000000E+00  0.00000000000E+00  1.25000000000E+02  1.25000000000E+02  0.00000000000E+00 0.00000000000E+00  1.
       11   -1    0    0    0    0  0.00000000000E+00  0.00000000000E+00 -1.25000000000E+02  1.25000000000E+02  0.00000000000E+00 0.00000000000E+00  1.
       22    1    1    2    0    0 -6.04781754045E+01 -4.79689019249E+01  5.32030775505E+01  9.37506944667E+01  0.00000000000E+00 0.00000000000E+00  1.
       25    2    1    2    0    0  6.04781754045E+01  4.79689019249E+01 -5.32030775505E+01  1.56249305533E+02  1.24998611059E+02 0.00000000000E+00  1.
        5    1    4    4  501    0  1.69264292094E+01  6.38453565312E+01  2.05187907761E+01  6.91646899168E+01  0.00000000000E+00 0.00000000000E+00  1.
       -5    1    4    4    0  501  4.35517461951E+01 -1.58764546063E+01 -7.37218683266E+01  8.70846156165E+01  0.00000000000E+00 0.00000000000E+00  1.
</event>
<event>
 6  50   1.0000000E+00   1.2500000E+02   7.8125000E-03   1.2380607E-01
      -11   -1    0    0    0    0  0.00000000000E+00  0.00000000000E+00  1.25000000000E+02  1.25000000000E+02  0.00000000000E+00 0.00000000000E+00  1.
       11   -1    0    0    0    0  0.00000000000E+00  0.00000000000E+00 -1.25000000000E+02  1.25000000000E+02  0.00000000000E+00 0.00000000000E+00  1.
       22    1    1    2    0    0 -7.14252692994E+01 -3.77979218054E+01  4.75303723848E+01  9.37517375111E+01  0.00000000000E+00 0.00000000000E+00  1.
       25    2    1    2    0    0  7.14252692994E+01  3.77979218054E+01 -4.75303723848E+01  1.56248262489E+02  1.24996524930E+02 0.00000000000E+00  1.
        5    1    4    4  501    0 -9.72502632442E+00  3.63937191990E+01  2.67689264242E+01  4.62131405127E+01  0.00000000000E+00 0.00000000000E+00  1.
       -5    1    4    4    0  501  8.11502956238E+01  1.40420260641E+00 -7.42992988091E+01  1.10035121976E+02  0.00000000000E+00 0.00000000000E+00  1.
</event>
<event>
 6  50   1.0000000E+00   1.2500000E+02   7.8125000E-03   1.2380607E-01
      -11   -1    0    0    0    0  0.00000000000E+00  0.00000000000E+00  1.25000000000E+02  1.25000000000E+02  0.00000000000E+00 0.00000000000E+00  1.
       11   -1    0    0    0    0  0.00000000000E+00  0.00000000000E+00 -1.25000000000E+02  1.25000000000E+02  0.00000000000E+00 0.00000000000E+00  1.
       22    1    1    2    0    0 -6.41028932172E+00  5.34710092864E+01  7.67377396766E+01  9.37492471115E+01  0.00000000000E+00 0.00000000000E+00  1.
       25    2    1    2    0    0  6.41028932172E+00 -5.34710092864E+01 -7.67377396766E+01  1.56250752889E+02  1.25001505768E+02 0.00000000000E+00  1.
        5    1    4    4  501    0 -6.39426525758E+00 -9.18331888250E+01 -6.90727557395E+01  1.15088082717E+02  0.00000000000E+00 0.00000000000E+00  1.
       -5    1    4    4    0  501  1.28045545793E+01  3.83621795386E+01 -7.66498393708E+00  4.11626701719E+01  0.00000000000E+00 0.00000000000E+00  1.
</event>
<event>
 6  50   1.0000000E+00   1.2500000E+02   7.8125000E-03   1.2380607E-01
      -11   -1    0    0    0    0  0.00000000000E+00  0.00000000000E+00  1.25000000000E+02  1.25000000000E+02  0.00000000000E+00 0.00000000000E+00  1.
       11   -1    0    0    0    0  0.00000000000E+00  0.00000000000E+00 -1.25000000000E+02  1.25000000000E+02  0.00000000000E+00 0.00000000000E+00  1.
       22    1    1    2    0    0  6.01443671607E+01  7.18808252666E+01  2.26588424423E+00  9.37514382480E+01  0.00000000000E+00 0.00000000000E+00  1.
       25    2    1    2    0    0 -6.01443671607E+01 -7.18808252666E+01 -2.26588424423E+00  1.56248561752E+02  1.24997123471E+02 0.00000000000E+00  1.
        5    1    4    4  501    0 -4.13102867260E+01 -1.87721076024E-01  5.05117867481E+01  6.52534721610E+01  0.00000000000E+00 0.00000000000E+00  1.
       -5    1    4    4    0  501 -1.88340804346E+01 -7.16931041906E+01 -5.27776709923E+01  9.09950895910E+01  0.00000000000E+00 0.00000000000E+00  1.
</event>
<event>
 6  50   1.0000000E+00   1.2500000E+02   7.8125000E-03   1.2380607E-01
      -11   -1    0    0    0    0  0.00000000000E+00  0.00000000000E+00  1.25000000000E+02  1.25000000000E+02  0.00000000000E+00 0.00000000000E+00  1.
       11   -1    0    0    0    0  0.00000000000E+00  0.00000000000E+00 -1.25000000000E+02  1.25000000000E+02  0.00000000000E+00 0.00000000000E+00  1.
       22    1    1    2    0    0 -1.36173536045E+01 -7.76320248759E+01  5.07663631608E+01  9.37517318992E+01  0.00000000000E+00 0.00000000000E+00  1.
       25    2    1    2    0    0  1.36173536045E+01  7.76320248759E+01 -5.07663631608E+01  1.56248268101E+02  1.24996536154E+02 0.00000000000E+00  1.
        5    1    4    4  501    0  3.57572672474E+00  3.46927369180E+01  4.13658336446E+01  5.41064137564E+01  0.00000000000E+00 0.00000000000E+00  1.
       -5    1    4    4    0  501  1.00416268798E+01  4.29392879579E+01 -9.21321968054E+01  1.02141854344E+02  0.00000000000E+00 0.00000000000E+00  1.
</event>
<event>
 6  50   1.0000000E+00   1.2500000E+02   7.8125000E-03   1.2380607E-01
      -11   -1    0    0    0    0  0.00000000000E+00  0.00000000000E+00  1.25000000000E+02  1.25000000000E+02  0.00000000000E+00 0.00000000000E+00  1.
       11   -1    0    0    0    0  0.00000000000E+00  0.00000000000E+00 -1.25000000000E+02  1.25000000000E+02  0.00000000000E+00 0.00000000000E+00  1.
       22    1    1    2    0    0 -4.07430316556E-01 -3.97659662942E+01 -8.48980089547E+01  9.37505733275E+01  0.00000000000E+00 0.00000000000E+00  1.
       25    2    1    2    0    0  4.07430316556E-01  3.97659662942E+01  8.48980089547E+01  1.56249426672E+02  1.24998853340E+02 0.00000000000E+00  1.
        5    1    4    4  501    0  4.06647368482E+01  6.77436059866E+01  6.84535237857E+01  1.04540431861E+02  0.00000000000E+00 0.00000000000E+00  1.
       -5    1    4    4    0  501 -4.02573065316E+01 -2.79776396924E+01  1.64444851689E+01  5.17089948115E+01  0.00000000000E+00 0.00000000000E+00  1.
</event>
<event>
 6  50   1.0000000E+00   1.2500000E+02   7.8125000E-03   1.2380607E-01
      -11   -1    0    0    0    0  0.00000000000E+00  0.00000000000E+00  1.25000000000E+02  1.25000000000E+02  0.00000000000E+00 0.00000000000E+00  1.
       11   -1    0    0    0    0  0.00000000000E+00  0.00000000000E+00 -1.25000000000E+02  1.25000000000E+02  0.00000000000E+00 0.00000000000E+00  1.
       22    1    1    2    0    0 -7.79455858347E+01  5.00602002402E+01  1.44027578435E+01  9.37495463066E+01  0.00000000000E+00 0.00000000000E+00  1.
       25    2    1    2    0    0  7.79455858347E+01 -5.00602002402E+01 -1.44027578435E+01  1.56250453693E+02  1.25000907383E+02 0.00000000000E+00  1.
        5    1    4    4  501    0 -2.19187463381E+01 -2.68352815932E+01  2.87367143594E+01  4.50151366919E+01  0.00000000000E+00 0.00000000000E+00  1.
       -5    1    4    4    0  501  9.98643321728E+01 -2.32249186470E+01 -4.31394722029E+01  1.11235317001E+02  0.00000000000E+00 0.00000000000E+00  1.
</event>
<event>
 6  50   1.0000000E+00   1.2500000E+02   7.8125000E-03   1.2380607E-01
      -11   -1    0    0    0    0  0.00000000000E+00  0.00000000000E+00  1.25000000000E+02  1.25000000000E+02  0.00000000000E+00 0.00000000000E+00  1.
       11   -1    0    0    0    0  0.00000000000E+00  0.00000000000E+00 -1.25000000000E+02  1.25000000000E+02  0.00000000000E+00 0.00000000000E+00  1.
       22    1    1    2    0    0 -1.49093991502E+01 -7.76884630069E+01  5.03109643487E+01  9.37495632048E+01  0.00000000000E+00 0.00000000000E+00  1.
       25    2    1    2    0    0  1.49093991502E+01  7.76884630069E+01 -5.03109643487E+01  1.56250436795E+02  1.25000873587E+02 0.00000000000E+00  1.
        5    1    4    4  501    0 -4.05093402598E+01  4.91505092393E+01  1.55545190867E+01  6.55646419252E+01  0.00000000000E+00 0.00000000000E+00  1.
       -5    1    4    4    0  501  5.54187394099E+01  2.85379537676E+01 -6.58654834354E+01  9.06857948700E+01  0.00000000000E+00 0.00000000000E+00  1.
</event>
<event>
 6  50   1.0000000E+00   1.2500000E+02   7.8125000E-03   1.2380607E-01
      -11   -1    0    0    0    0  0.00000000000E+00  0.00000000000E+00  1.25000000000E+02  1.25000000000E+02  0.00000000000E+00 0.00000000000E+00  1.
       11   -1    0    0    0    0  0.00000000000E+00  0.00000000000E+00 -1.25000000000E+02  1.25000000000E+02  0.00000000000E+00 0.00000000000E+00  1.
       22    1    1    2    0    0  1.42186246959E+01 -8.86718699445E+01 -2.69116453921E+01  9.37502344818E+01  0.00000000000E+00 0.00000000000E+00  1.
       25    2    1    2    0    0 -1.42186246959E+01  8.86718699445E+01  2.69116453921E+01  1.56249765518E+02  1.24999531035E+02 0.00000000000E+00  1.
        5    1    4    4  501    0  1.02144263945E+01  9.71441353390E+01 -2.27180652856E+01  1.00286729070E+02  0.00000000000E+00 0.00000000000E+00  1.
       -5    1    4    4    0  501 -2.44330510904E+01 -8.47226539452E+00  4.96297106777E+01  5.59630364477E+01  0.00000000000E+00 0.00000000000E+00  1.
</event>
<event>
 6  50   1.0000000E+00   1.2500000E+02   7.8125000E-03   1.2380607E-01
      -11   -1    0    0    0    0  0.00000000000E+00  0.00000000000E+00  1.25000000000E+02  1.25000000000E+02  0.00000000000E+00 0.00000000000E+00  1.
       11   -1    0    0    0    0  0.00000000000E+00  0.00000000000E+00 -1.25000000000E+02  1.25000000000E+02  0.00000000000E+00 0.00000000000E+00  1.
       22    1    1    2    0    0  6.54564795474E+01 -4.27351576320E+01 -5.17554738434E+01  9.37521918961E+01  0.00000000000E+00 0.00000000000E+00  1.
       25    2    1    2    0    0 -6.54564795474E+01  4.27351576320E+01  5.17554738434E+01  1.56247808104E+02  1.24995616131E+02 0.00000000000E+00  1.
        5    1    4    4  501    0 -5.54528758638E+01 -3.62079323344E+00 -2.89355566903E+01  6.26529969450E+01  0.00000000000E+00 0.00000000000E+00  1.
       -5    1    4    4    0  501 -1.00036036835E+01  4.63559508654E+01  8.06910305337E+01  9.35948111590E+01  0.00000000000E+00 0.00000000000E+00  1.
</event>
<event>
 6  50   1.0000000E+00   1.2500000E+02   7.8125000E-03   1.2380607E-01
      -11   -1    0    0    0    0  0.00000000000E+00  0.00000000000E+00  1.25000000000E+02  1.25000000000E+02  0.00000000000E+00 0.00000000000E+00  1.
       11   -1    0    0    0    0  0.00000000000E+00  0.00000000000E+00 -1.25000000000E+02  1.25000000000E+02  0.00000000000E+00 0.00000000000E+00  1.
       22    1    1    2    0    0 -1.20950932548E+01  3.86873128251E+01 -8.45360313508E+01  9.37514802604E+01  0.00000000000E+00 0.00000000000E+00  1.
       25    2    1    2    0    0  1.20950932548E+01 -3.86873128251E+01  8.45360313508E+01  1.56248519740E+02  1.24997039444E+02 0.00000000000E+00  1.
        5    1    4    4  501    0  2.62699824306E+01 -4.40229122735E+01  1.12955736342E+02  1.24044859444E+02  0.00000000000E+00 0.00000000000E+00  1.
       -5    1    4    4    0  501 -1.41748891758E+01  5.33559944845E+00 -2.84197049914E+01  3.22036602953E+01  0.00000000000E+00 0.00000000000E+00  1.
</event>
<event>
 6  50   1.0000000E+00   1.2500000E+02   7.8125000E-03   1.2380607E-01
      -11   -1    0    0    0    0  0.00000000000E+00  0.00000000000E+00  1.25000000000E+02  1.25000000000E+02  0.00000000000E+00 0.00000000000E+00  1.
       11   -1    0    0    0    0  0.00000000000E+00  0.00000000000E+00 -1.25000000000E+02  1.25000000000E+02  0.00000000000E+00 0.00000000000E+00  1.
       22    1    1    2    0    0 -5.61670241994E+01 -5.30644044787E+01  5.30915401424E+01  9.37511454053E+01  0.00000000000E+00 0.00000000000E+00  1.
       25    2    1    2    0    0  5.61670241994E+01  5.30644044787E+01 -5.30915401424E+01  1.56248854595E+02  1.24997709169E+02 0.00000000000E+00  1.
        5    1    4    4  501    0  8.31468522740E+01  4.75676992265E+01  7.28396260407E-01  9.57946533680E+01  0.00000000000E+00 0.00000000000E+00  1.
       -5    1    4    4    0  501 -2.69798280746E+01  5.49670525224E+00 -5.38199364028E+01  6.04542012268E+01  0.00000000000E+00 0.00000000000E+00  1.
</event>
<event>
 6  50   1.0000000E+00   1.2500000E+02   7.8125000E-03   1.2380607E-01
      -11   -1    0    0    0    0  0.00000000000E+00  0.00000000000E+00  1.25000000000E+02  1.25000000000E+02  0.00000000000E+00 0.00000000000E+00  1.
       11   -1    0    0    0    0  0.00000000000E+00  0.00000000000E+00 -1.25000000000E+02  1.25000000000E+02  0.00000000000E+00 0.00000000000E+00  1.
       22    1    1    2    0    0  5.66061540422E+00 -3.92838413946E+01  8.49342386489E+01  9.37501341670E+01  0.00000000000E+00 0.00000000000E+00  1.
       25    2    1    2    0    0 -5.66061540422E+00  3.92838413946E+01 -8.49342386489E+01  1.56249865833E+02  1.24999731666E+02 0.00000000000E+00  1.
        5    1    4    4  501    0 -2.49168521879E+01 -3.38346514272E+01  6.82396527502E-01  4.20249785862E+01  0.00000000000E+00 0.00000000000E+00  1.
       -5    1    4    4    0  501  1.92562367836E+01  7.31184928218E+01 -8.56166351764E+01  1.14224887247E+02  0.00000000000E+00 0.00000000000E+00  1.
</event>
<event>
 6  50   1.0000000E+00   1.2500000E+02   7.8125000E-03   1.2380607E-01
      -11   -1    0    0    0    0  0.00000000000E+00  0.00000000000E+00  1.25000000000E+02  1.25000000000E+02  0.00000000000E+00 0.00000000000E+00  1.
       11   -1    0    0    0    0  0.00000000000E+00  0.00000000000E+00 -1.25000000000E+02  1.25000000000E+02  0.00000000000E+00 0.00000000000E+00  1.
       22    1    1    2    0    0  7.03005796365E+01  1.99184509412E+01  5.87397245940E+01  9.37511142894E+01  0.00000000000E+00 0.00000000000E+00  1.
       25    2    1    2    0    0 -7.03005796365E+01 -1.99184509412E+01 -5.87397245940E+01  1.56248885711E+02  1.24997771401E+02 0.00000000000E+00  1.
        5    1    4    4  501    0 -8.99790068722E+01  1.11067122766E+01 -7.34426140124E+01  1.16676468443E+02  0.00000000000E+00 0.00000000000E+00  1.
       -5    1    4    4    0  501  1.96784272358E+01 -3.10251632178E+01  1.47028894184E+01  3.95724172678E+01  0.00000000000E+00 0.00000000000E+00  1.
</event>
<event>
 6  50   1.0000000E+00   1.2500000E+02   7.8125000E-03   1.2380607E-01
      -11   -1    0    0    0    0  0.00000000000E+00  0.00000000000E+00  1.25000000000E+02  1.25000000000E+02  0.00000000000E+00 0.00000000000E+00  1.
       11   -1    0    0    0    0  0.00000000000E+00  0.00000000000E+00 -1.25000000000E+02  1.25000000000E+02  0.00000000000E+00 0.00000000000E+00  1.
       22    1    1    2    0    0 -3.11071915026E+01 -8.74521255747E+01  1.31720658478E+01  9.37498530634E+01  0.00000000000E+00 0.00000000000E+00  1.
       25    2    1    2    0    0  3.11071915026E+01  8.74521255747E+01 -1.31720658478E+01  1.56250146937E+02  1.25000293873E+02 0.00000000000E+00  1.
        5    1    4    4  501    0 -8.20256241623E+00 -3.02849395599E+01  4.46364753322E-01  3.13792739851E+01  0.00000000000E+00 0.00000000000E+00  1.
       -5    1    4    4    0  501  3.93097539188E+01  1.17737065135E+02 -1.36184306011E+01  1.24870872952E+02  0.00000000000E+00 0.00000000000E+00  1.
</event>
<event>
 6  50   1.0000000E+00   1.2500000E+02   7.8125000E-03   1.2380607E-01
      -11   -1    0    0    0    0  0.00000000000E+00  0.00000000000E+00  1.25000000000E+02  1.25000000000E+02  0.00000000000E+00 0.00000000000E+00  1.
       11   -1    0    0    0    0  0.00000000000E+00  0.00000000000E+00 -1.25000000000E+02  1.25000000000E+02  0.00000000000E+00 0.00000000000E+00  1.
       22    1    1    2    0    0  8.10975029165E+01  1.00044882133E+01 -4.59731281605E+01  9.37572571941E+01  0.00000000000E+00 0.00000000000E+00  1.
       25    2    1    2    0    0 -8.10975029165E+01 -1.00044882133E+01  4.59731281605E+01  1.56242742806E+02  1.24985484769E+02 0.00000000000E+00  1.
        5    1    4    4  501    0 -5.89895735400E+01 -2.79142241071E+01  8.54877587411E+01  1.07550595482E+02  0.00000000000E+00 0.00000000000E+00  1.
       -5    1    4    4    0  501 -2.21079293764E+01  1.79097358938E+01 -3.95146305807E+01  4.86921473240E+01  0.00000000000E+00 0.00000000000E+00  1.
</event>
<event>
 6  50   1.0000000E+00   1.2500000E+02   7.8125000E-03   1.2380607E-01
      -11   -1    0    0    0    0  0.00000000000E+00  0.00000000000E+00  1.25000000000E+02  1.25000000000E+02  0.00000000000E+00 0.00000000000E+00  1.
       11   -1    0    0    0    0  0.00000000000E+00  0.00000000000E+00 -1.25000000000E+02  1.25000000000E+02  0.00000000000E+00 0.00000000000E+00  1.
       22    1    1    2    0    0  7.85838142774E+01 -1.95521723549E+01  4.72393786274E+01  9.37510650781E+01  0.00000000000E+00 0.00000000000E+00  1.
       25    2    1    2    0    0 -7.85838142774E+01  1.95521723549E+01 -4.72393786274E+01  1.56248934922E+02  1.24997869826E+02 0.00000000000E+00  1.
        5    1    4    4  501    0 -4.97311838830E+01  5.75821483135E+01  1.52646633282E+01  7.76009304153E+01  0.00000000000E+00 0.00000000000E+00  1.
       -5    1    4    4    0  501 -2.88526303944E+01 -3.80299759585E+01 -6.25040419556E+01  7.86480045066E+01  0.00000000000E+00 0.00000000000E+00  1.
</event>
<event>
 6  50   1.0000000E+00   1.2500000E+02   7.8125000E-03   1.2380607E-01
      -11   -1    0    0    0    0  0.00000000000E+00  0.00000000000E+00  1.25000000000E+02  1.25000000000E+02  0.00000000000E+00 0.00000000000E+00  1.
       11   -1    0    0    0    0  0.00000000000E+00  0.00000000000E+00 -1.25000000000E+02  1.25000000000E+02  0.00000000000E+00 0.00000000000E+00  1.
       22    1    1    2    0    0 -7.78130062251E+01 -3.64940621903E+01  3.74597860942E+01  9.37545523543E+01  0.00000000000E+00 0.00000000000E+00  1.
       25    2    1    2    0    0  7.78130062251E+01  3.64940621903E+01 -3.74597860942E+01  1.56245447646E+02  1.24990894960E+02 0.00000000000E+00  1.
        5    1    4    4  501    0  9.00452683010E+01  6.38688225332E+01 -5.30161266682E+01  1.22466675149E+02  0.00000000000E+00 0.00000000000E+00  1.
       -5    1    4    4    0  501 -1.22322620759E+01 -2.73747603429E+01  1.55563405740E+01  3.37787724966E+01  0.00000000000E+00 0.00000000000E+00  1.
</event>
<event>
 6  50   1.0000000E+00   1.2500000E+02   7.8125000E-03   1.2380607E-01
      -11   -1    0    0    0    0  0.00000000000E+00  0.00000000000E+00  1.25000000000E+02  1.25000000000E+02  0.00000000000E+00 0.00000000000E+00  1.
       11   -1    0    0    0    0  0.00000000000E+00  0.00000000000E+00 -1.25000000000E+02  1.25000000000E+02  0.00000000000E+00 0.00000000000E+00  1.
       22    1    1    2    0    0  2.51554570089E+01 -6.34675837098E+01 -6.42511270520E+01  9.37504054750E+01  0.00000000000E+00 0.00000000000E+00  1.
       25    2    1    2    0    0 -2.51554570089E+01  6.34675837098E+01  6.42511270520E+01  1.56249594525E+02  1.24999189047E+02 0.00000000000E+00  1.
        5    1    4    4  501    0  3.95995908169E+01  1.06490683038E+01 -1.24149029743E+01  4.28446036797E+01  0.00000000000E+00 0.00000000000E+00  1.
       -5    1    4    4    0  501 -6.47550478258E+01  5.28185154060E+01  7.66660300263E+01  1.13404990845E+02  0.00000000000E+00 0.00000000000E+00  1.
</event>
<event>
 6  50   1.0000000E+00   1.2500000E+02   7.8125000E-03   1.2380607E-01
      -11   -1    0    0    0    0  0.00000000000E+00  0.00000000000E+00  1.25000000000E+02  1.25000000000E+02  0.00000000000E+00 0.00000000000E+00  1.
       11   -1    0    0    0    0  0.00000000000E+00  0.00000000000E+00 -1.25000000000E+02  1.25000000000E+02  0.00000000000E+00 0.00000000000E+00  1.
       22    1    1    2    0    0 -4.27095855766E+01 -5.25898633294E+01 -6.48012234118E+01  9.37496718970E+01  0.00000000000E+00 0.00000000000E+00  1.
       25    2    1    2    0    0  4.27095855766E+01  5.25898633294E+01  6.48012234118E+01  1.56250328103E+02  1.25000656204E+02 0.00000000000E+00  1.
        5    1    4    4  501    0  6.86573719472E+01 -2.81709252231E+00  6.56888219597E+01  9.50620432319E+01  0.00000000000E+00 0.00000000000E+00  1.
       -5    1    4    4    0  501 -2.59477863706E+01  5.54069558517E+01 -8.87598547958E-01  6.11882848711E+01  0.00000000000E+00 0.00000000000E+00  1.
</event>
<event>
 6  50   1.0000000E+00   1.2500000E+02   7.8125000E-03   1.2380607E-01
      -11   -1    0    0    0    0  0.00000000000E+00  0.00000000000E+00  1.25000000000E+02  1.25000000000E+02  0.00000000000E+00 0.00000000000E+00  1.
       11   -1    0    0    0    0  0.00000000000E+00  0.00000000000E+00 -1.25000000000E+02  1.25000000000E+02  0.00000000000E+00 0.00000000000E+00  1.
       22    1    1    2    0    0 -8.76014460710E+01  1.39916233112E+01  3.03280187393E+01  9.37526938134E+01  0.00000000000E+00 0.00000000000E+00  1.
       25    2    1    2    0    0  8.76014460710E+01 -1.39916233112E+01 -3.03280187393E+01  1.56247306187E+02  1.24994612257E+02 0.00000000000E+00  1.
        5    1    4    4  501    0  1.87343122505E+01 -3.07919601566E+00  4.78581183840E+01  5.14864584027E+01  0.00000000000E+00 0.00000000000E+00  1.
       -5    1    4    4    0  501  6.88671338206E+01 -1.09124272955E+01 -7.81861371233E+01  1.04760847784E+02  0.00000000000E+00 0.00000000000E+00  1.
</event>
<event>
 6  50   1.0000000E+00   1.2500000E+02   7.8125000E-03   1.2380607E-01
      -11   -1    0    0    0    0  0.00000000000E+00  0.00000000000E+00  1.25000000000E+02  1.25000000000E+02  0.00000000000E+00 0.00000000000E+00  1.
       11   -1    0    0    0    0  0.00000000000E+00  0.00000000000E+00 -1.25000000000E+02  1.25000000000E+02  0.00000000000E+00 0.00000000000E+00  1.
       22    1    1    2    0    0 -8.93317123688E+00  5.85701482135E+01 -7.26554129836E+01  9.37500551782E+01  0.00000000000E+00 0.00000000000E+00  1.
       25    2    1    2    0    0  8.93317123688E+00 -5.85701482135E+01  7.26554129836E+01  1.56249944822E+02  1.24999889644E+02 0.00000000000E+00  1.
        5    1    4    4  501    0  4.88771500664E+01 -7.58012148898E+01  2.93015731729E+01  9.48334443527E+01  0.00000000000E+00 0.00000000000E+00  1.
       -5    1    4    4    0  501 -3.99439788296E+01  1.72310666763E+01  4.33538398107E+01  6.14165004691E+01  0.00000000000E+00 0.00000000000E+00  1.
</event>
<event>
 6  50   1.0000000E+00   1.2500000E+02   7.8125000E-03   1.2380607E-01
      -11   -1    0    0    0    0  0.00000000000E+00  0.00000000000E+00  1.25000000000E+02  1.25000000000E+02  0.00000000000E+00 0.00000000000E+00  1.
       11   -1    0    0    0    0  0.00000000000E+00  0.00000000000E+00 -1.25000000000E+02  1.25000000000E+02  0.00000000000E+00 0.00000000000E+00  1.
       22    1    1    2    0    0 -8.66625654767E+01 -3.18199045662E+01  1.62941479495E+01  9.37464977426E+01  0.00000000000E+00 0.00000000000E+00  1.
       25    2    1    2    0    0  8.66625654767E+01  3.18199045662E+01 -1.62941479495E+01  1.56253502257E+02  1.25007004319E+02 0.00000000000E+00  1.
        5    1    4    4  501    0  3.32554538714E+00  4.10637303557E+01  3.82570521361E+01  5.62218039643E+01  0.00000000000E+00 0.00000000000E+00  1.
       -5    1    4    4    0  501  8.33370200895E+01 -9.24382578952E+00 -5.45512000857E+01  1.00031698293E+02  0.00000000000E+00 0.00000000000E+00  1.
</event>
<event>
 6  50   1.0000000E+00   1.2500000E+02   7.8125000E-03   1.2380607E-01
      -11   -1    0    0    0    0  0.00000000000E+00  0.00000000000E+00  1.25000000000E+02  1.25000000000E+02  0.00000000000E+00 0.00000000000E+00  1.
       11   -1    0    0    0    0  0.00000000000E+00  0.00000000000E+00 -1.25000000000E+02  1.25000000000E+02  0.00000000000E+00 0.00000000000E+00  1.
       22    1    1    2    0    0 -2.27308727619E+01 -5.72168212620E+01  3.64115992299E+01  7.15280488363E+01  0.00000000000E+00 0.00000000000E+00  1.
       25    2    1    2    0    0  2.27308727619E+01  5.72168212620E+01 -3.64115992299E+01  1.78471951164E+02  1.63511392820E+02 0.00000000000E+00  1.
        5    1    4    4  501    0  1.64054419574E+01  6.48338061026E+01  5.49614909290E+01  8.65640018987E+01  0.00000000000E+00 0.00000000000E+00  1.
       -5    1    4    4    0  501  6.32543080449E+00 -7.61698484060E+00 -9.13730901589E+01  9.19079492650E+01  0.00000000000E+00 0.00000000000E+00  1.
</event>
<event>
 6  50   1.0000000E+00   1.2500000E+02   7.8125000E-03   1.2380607E-01
      -11   -1    0    0    0    0  0.00000000000E+00  0.00000000000E+00  1.25000000000E+02  1.25000000000E+02  0.00000000000E+00 0.00000000000E+00  1.
       11   -1    0    0    0    0  0.00000000000E+00  0.00000000000E+00 -1.25000000000E+02  1.25000000000E+02  0.00000000000E+00 0.00000000000E+00  1.
       22    1    1    2    0    0  4.54415686889E+01  8.13051257893E+01  1.06516421529E+01  9.37492246639E+01  0.00000000000E+00 0.00000000000E+00  1.
       25    2    1    2    0    0 -4.54415686889E+01 -8.13051257893E+01 -1.06516421529E+01  1.56250775336E+02  1.25001550663E+02 0.00000000000E+00  1.
        5    1    4    4  501    0 -7.51364844020E+01 -5.83958051176E+01  3.11129754839E+01  1.00117823524E+02  0.00000000000E+00 0.00000000000E+00  1.
       -5    1    4    4    0  501  2.96949157131E+01 -2.29093206717E+01 -4.17646176368E+01  5.61329518126E+01  0.00000000000E+00 0.00000000000E+00  1.
</event>
<event>
 6  50   1.0000000E+00   1.2500000E+02   7.8125000E-03   1.2380607E-01
      -11   -1    0    0    0    0  0.00000000000E+00  0.00000000000E+00  1.25000000000E+02  1.25000000000E+02  0.00000000000E+00 0.00000000000E+00  1.
       11   -1    0    0    0    0  0.00000000000E+00  0.00000000000E+00 -1.25000000000E+02  1.25000000000E+02  0.00000000000E+00 0.00000000000E+00  1.
       22    1    1    2    0    0 -2.93498391671E+01  8.38418892991E+01 -3.00613026867E+01  9.37793014454E+01  0.00000000000E+00 0.00000000000E+00  1.
       25    2    1    2    0    0  2.93498391671E+01 -8.38418892991E+01  3.00613026867E+01  1.56220698555E+02  1.24941383366E+02 0.00000000000E+00  1.
        5    1    4    4  501    0 -3.09965899852E+01 -7.30126096086E+01 -1.42291781616E+01  8.05859743611E+01  0.00000000000E+00 0.00000000000E+00  1.
       -5    1    4    4    0  501  6.03464291523E+01 -1.08292796904E+01  4.42904808484E+01  7.56347241935E+01  0.00000000000E+00 0.00000000000E+00  1.
</event>
<event>
 6  50   1.0000000E+00   1.2500000E+02   7.8125000E-03   1.2380607E-01
      -11   -1    0    0    0    0  0.00000000000E+00  0.00000000000E+00  1.25000000000E+02  1.25000000000E+02  0.00000000000E+00 0.00000000000E+00  1.
       11   -1    0    0    0    0  0.00000000000E+00  0.00000000000E+00 -1.25000000000E+02  1.25000000000E+02  0.00000000000E+00 0.00000000000E+00  1.
       22    1    1    2    0    0  5.15836602745E+01 -7.00736205178E+01 -3.49020146630E+01  9.37514636010E+01  0.00000000000E+00 0.00000000000E+00  1.
       25    2    1    2    0    0 -5.15836602745E+01  7.00736205178E+01  3.49020146630E+01  1.56248536399E+02  1.24997072764E+02 0.00000000000E+00  1.
        5    1    4    4  501    0 -6.37123004134E+01  7.41746722318E+01 -2.00578197603E+01  9.98171095464E+01  0.00000000000E+00 0.00000000000E+00  1.
       -5    1    4    4    0  501  1.21286401389E+01 -4.10105171396E+00  5.49598344234E+01  5.64314268526E+01  0.00000000000E+00 0.00000000000E+00  1.
</event>
<event>
 6  50   1.0000000E+00   1.2500000E+02   7.8125000E-03   1.2380607E-01
      -11   -1    0    0    0    0  0.00000000000E+00  0.00000000000E+00  1.25000000000E+02  1.25000000000E+02  0.00000000000E+00 0.00000000000E+00  1.
       11   -1    0    0    0    0  0.00000000000E+00  0.00000000000E+00 -1.25000000000E+02  1.25000000000E+02  0.00000000000E+00 0.00000000000E+00  1.
       22    1    1    2    0    0  3.99203385292E+01 -7.55121793446E+01 -3.86453603834E+01  9.37506615274E+01  0.00000000000E+00 0.00000000000E+00  1.
       25    2    1    2    0    0 -3.99203385292E+01  7.55121793446E+01  3.86453603834E+01  1.56249338473E+02  1.24998676938E+02 0.00000000000E+00  1.
        5    1    4    4  501    0 -5.25061603054E+01  2.60594462823E+01 -3.37787318602E+01  6.76534872467E+01  0.00000000000E+00 0.00000000000E+00  1.
       -5    1    4    4    0  501  1.25858217762E+01  4.94527330623E+01  7.24240922437E+01  8.85958512259E+01  0.00000000000E+00 0.00000000000E+00  1.
</event>
<event>
 6  50   1.0000000E+00   1.2500000E+02   7.8125000E-03   1.2380607E-01
      -11   -1    0    0    0    0  0.00000000000E+00  0.00000000000E+00  1.25000000000E+02  1.25000000000E+02  0.00000000000E+00 0.00000000000E+00  1.
       11   -1    0    0    0    0  0.00000000000E+00  0.00000000000E+00 -1.25000000000E+02  1.25000000000E+02  0.00000000000E+00 0.00000000000E+00  1.
       22    1    1    2    0    0  6.16416255893E+01  6.99373535809E+01  9.90952106037E+00  9.37503175399E+01  0.00000000000E+00 0.00000000000E+00  1.
       25    2    1    2    0    0 -6.16416255893E+01 -6.99373535809E+01 -9.90952106037E+00  1.56249682460E+02  1.24999364919E+02 0.00000000000E+00  1.
        5    1    4    4  501    0 -5.67109391993E+01 -7.85776104571E+01  4.03830325836E+01  1.04982669097E+02  0.00000000000E+00 0.00000000000E+00  1.
       -5    1    4    4    0  501 -4.93068638997E+00  8.64025687623E+00 -5.02925536440E+01  5.12670133634E+01  0.00000000000E+00 0.00000000000E+00  1.
</event>
<event>
 6  50   1.0000000E+00   1.2500000E+02   7.8125000E-03   1.2380607E-01
      -11   -1    0    0    0    0  0.00000000000E+00  0.00000000000E+00  1.25000000000E+02  1.25000000000E+02  0.00000000000E+00 0.00000000000E+00  1.
       11   -1    0    0    0    0  0.00000000000E+00  0.00000000000E+00 -1.25000000000E+02  1.25000000000E+02  0.00000000000E+00 0.00000000000E+00  1.
       22    1    1    2    0    0  8.80261556952E+00  6.16512828617E+01  7.00765557234E+01  9.37501487007E+01  0.00000000000E+00 0.00000000000E+00  1.
       25    2    1    2    0    0 -8.80261556952E+00 -6.16512828617E+01 -7.00765557234E+01  1.56249851299E+02  1.24999702598E+02 0.00000000000E+00  1.
        5    1    4    4  501    0  5.48365933763E+01 -5.10224539749E+01 -3.31568427969E+01  8.19128744887E+01  0.00000000000E+00 0.00000000000E+00  1.
       -5    1    4    4    0  501 -6.36392089459E+01 -1.06288288868E+01 -3.69197129265E+01  7.43369768106E+01  0.00000000000E+00 0.00000000000E+00  1.
</event>
<event>
 6  50   1.0000000E+00   1.2500000E+02   7.8125000E-03   1.2380607E-01
      -11   -1    0    0    0    0  0.00000000000E+00  0.00000000000E+00  1.25000000000E+02  1.25000000000E+02  0.00000000000E+00 0.00000000000E+00  1.
       11   -1    0    0    0    0  0.00000000000E+00  0.00000000000E+00 -1.25000000000E+02  1.25000000000E+02  0.00000000000E+00 0.00000000000E+00  1.
       22    1    1    2    0    0 -3.28069815009E+01  1.57168686572E+01  8.64055298036E+01  9.37509124021E+01  0.00000000000E+00 0.00000000000E+00  1.
       25    2    1    2    0    0  3.28069815009E+01 -1.57168686572E+01 -8.64055298036E+01  1.56249087598E+02  1.24998175183E+02 0.00000000000E+00  1.
        5    1    4    4  501    0 -4.00781502733E+01 -1.78623487849E+01 -6.81966591724E+01  8.10931930295E+01  0.00000000000E+00 0.00000000000E+00  1.
       -5    1    4    4    0  501  7.28851317742E+01  2.14548012765E+00 -1.82088706312E+01  7.51558945684E+01  0.00000000000E+00 0.00000000000E+00  1.
</event>
<event>
 6  50   1.0000000E+00   1.2500000E+02   7.8125000E-03   1.2380607E-01
      -11   -1    0    0    0    0  0.00000000000E+00  0.00000000000E+00  1.25000000000E+02  1.25000000000E+02  0.00000000000E+00 0.00000000000E+00  1.
       11   -1    0    0    0    0  0.00000000000E+00  0.00000000000E+00 -1.25000000000E+02  1.25000000000E+02  0.00000000000E+00 0.00000000000E+00  1.
       22    1    1    2    0    0 -2.60408644681E+01 -2.73727914753E+01 -8.57991663478E+01  9.37490974963E+01  0.00000000000E+00 0.00000000000E+00  1.
       25    2    1    2    0    0  2.60408644681E+01  2.73727914753E+01  8.57991663478E+01  1.56250902504E+02  1.25001804994E+02 0.00000000000E+00  1.
        5    1    4    4  501    0 -2.33934948011E+01  3.55718189112E+00 -2.38759178559E+01  3.36150055105E+01  0.00000000000E+00 0.00000000000E+00  1.
       -5    1    4    4    0  501  4.94343592692E+01  2.38156095841E+01  1.09675084204E+02  1.22635896993E+02  0.00000000000E+00 0.00000000000E+00  1.
</event>
<event>
 6  50   1.0000000E+00   1.2500000E+02   7.8125000E-03   1.2380607E-01
      -11   -1    0    0    0    0  0.00000000000E+00  0.00000000000E+00  1.25000000000E+02  1.25000000000E+02  0.00000000000E+00 0.00000000000E+00  1.
       11   -1    0    0    0    0  0.00000000000E+00  0.00000000000E+00 -1.25000000000E+02  1.25000000000E+02  0.00000000000E+00 0.00000000000E+00  1.
       22    1    1    2    0    0 -3.57650631215E+01 -7.95745083054E+01 -3.43076648751E+01  9.37457091355E+01  0.00000000000E+00 0.00000000000E+00  1.
       25    2    1    2    0    0  3.57650631215E+01  7.95745083054E+01  3.43076648751E+01  1.56254290865E+02  1.25008581435E+02 0.00000000000E+00  1.
        5    1    4    4  501    0 -3.44699610140E+01  9.18654519847E+00  4.36592730863E+01  5.63799871534E+01  0.00000000000E+00 0.00000000000E+00  1.
       -5    1    4    4    0  501  7.02350241355E+01  7.03879631069E+01 -9.35160821120E+00  9.98743037112E+01  0.00000000000E+00 0.00000000000E+00  1.
</event>
<event>
 6  50   1.0000000E+00   1.2500000E+02   7.8125000E-03   1.2380607E-01
      -11   -1    0    0    0    0  0.00000000000E+00  0.00000000000E+00  1.25000000000E+02  1.25000000000E+02  0.00000000000E+00 0.00000000000E+00  1.
       11   -1    0    0    0    0  0.00000000000E+00  0.00000000000E+00 -1.25000000000E+02  1.25000000000E+02  0.00000000000E+00 0.00000000000E+00  1.
       22    1    1    2    0    0 -4.55574403407E+01  3.40766811451E+01 -7.45144256444E+01  9.37502010524E+01  0.00000000000E+00 0.00000000000E+00  1.
       25    2    1    2    0    0  4.55574403407E+01 -3.40766811451E+01  7.45144256444E+01  1.56249798948E+02  1.24999597895E+02 0.00000000000E+00  1.
        5    1    4    4  501    0  8.75737039654E+01 -2.15108190540E+01  6.55601622208E+01  1.11489927047E+02  0.00000000000E+00 0.00000000000E+00  1.
       -5    1    4    4    0  501 -4.20162636247E+01 -1.25658620911E+01  8.95426342359E+00  4.47598719003E+01  0.00000000000E+00 0.00000000000E+00  1.
</event>
<event>
 6  50   1.0000000E+00   1.2500000E+02   7.8125000E-03   1.2380607E-01
      -11   -1    0    0    0    0  0.00000000000E+00  0.00000000000E+00  1.25000000000E+02  1.25000000000E+02  0.00000000000E+00 0.00000000000E+00  1.
       11   -1    0    0    0    0  0.00000000000E+00  0.00000000000E+00 -1.25000000000E+02  1.25000000000E+02  0.00000000000E+00 0.00000000000E+00  1.
       22    1    1    2    0    0 -7.80006448496E+01 -5.99161434294E+00  5.16599229914E+01  9.37483209602E+01  0.00000000000E+00 0.00000000000E+00  1.
       25    2    1    2    0    0  7.80006448496E+01  5.99161434294E+00 -5.16599229914E+01  1.56251679040E+02  1.25003358034E+02 0.00000000000E+00  1.
        5    1    4    4  501    0  6.61559818180E+01  6.07537431037E+01 -4.29123823702E+01  9.95444814749E+01  0.00000000000E+00 0.00000000000E+00  1.
       -5    1    4    4    0  501  1.18446630316E+01 -5.47621287608E+01 -8.74754062115E+00  5.67071975649E+01  0.00000000000E+00 0.00000000000E+00  1.
</event>
<event>
 6  50   1.0000000E+00   1.2500000E+02   7.8125000E-03   1.2380607E-01
      -11   -1    0    0    0    0  0.00000000000E+00  0.00000000000E+00  1.25000000000E+02  1.25000000000E+02  0.00000000000E+00 0.00000000000E+00  1.
       11   -1    0    0    0    0  0.00000000000E+00  0.00000000000E+00 -1.25000000000E+02  1.25000000000E+02  0.00000000000E+00 0.00000000000E+00  1.
       22    1    1    2    0    0 -7.63396163644E+01 -2.72746551117E+01  4.70900091684E+01  9.37502682748E+01  0.00000000000E+00 0.00000000000E+00  1.
       25    2    1    2    0    0  7.63396163644E+01  2.72746551117E+01 -4.70900091684E+01  1.56249731725E+02  1.24999463449E+02 0.00000000000E+00  1.
        5    1    4    4  501    0  2.58034230946E+01  1.07901927591E+01  4.32062786435E+01  5.14687032808E+01  0.00000000000E+00 0.00000000000E+00  1.
       -5    1    4    4    0  501  5.05361932698E+01  1.64844623525E+01 -9.02962878119E+01  1.04781028444E+02  0.00000000000E+00 0.00000000000E+00  1.
</event>
<event>
 6  50   1.0000000E+00   1.2500000E+02   7.8125000E-03   1.2380607E-01
      -11   -1    0    0    0    0  0.00000000000E+00  0.00000000000E+00  1.25000000000E+02  1.25000000000E+02  0.00000000000E+00 0.00000000000E+00  1.
       11   -1    0    0    0    0  0.00000000000E+00  0.00000000000E+00 -1.25000000000E+02  1.25000000000E+02  0.00000000000E+00 0.00000000000E+00  1.
       22    1    1    2    0    0  5.03892931735E+01 -6.78039739766E+01  4.06501454873E+01  9.37491017647E+01  0.00000000000E+00 0.00000000000E+00  1.
       25    2    1    2    0    0 -5.03892931735E+01  6.78039739766E+01 -4.06501454873E+01  1.56250898235E+02  1.25001796458E+02 0.00000000000E+00  1.
        5    1    4    4  501    0  9.32242956229E+00  9.52823660666E+00 -6.73426384972E+01  6.86492967592E+01  0.00000000000E+00 0.00000000000E+00  1.
       -5    1    4    4    0  501 -5.97117227358E+01  5.82757373699E+01  2.66924930099E+01  8.76016014761E+01  0.00000000000E+00 0.00000000000E+00  1.
</event>
<event>
 6  50   1.0000000E+00   1.2500000E+02   7.8125000E-03   1.2380607E-01
      -11   -1    0    0    0    0  0.00000000000E+00  0.00000000000E+00  1.25000000000E+02  1.25000000000E+02  0.00000000000E+00 0.00000000000E+00  1.
       11   -1    0    0    0    0  0.00000000000E+00  0.00000000000E+00 -1.25000000000E+02  1.25000000000E+02  0.00000000000E+00 0.00000000000E+00  1.
       22    1    1    2    0    0 -2.22242232014E+01  6.30757980208E+01  6.56984824517E+01  9.37484025961E+01  0.00000000000E+00 0.00000000000E+00  1.
       25    2    1    2    0    0  2.22242232014E+01 -6.30757980208E+01 -6.56984824517E+01  1.56251597404E+02  1.25003194767E+02 0.00000000000E+00  1.
        5    1    4    4  501    0  5.63493612344E+01 -8.14952545089E+01 -2.99445924262E+01  1.03505582625E+02  0.00000000000E+00 0.00000000000E+00  1.
       -5    1    4    4    0  501 -3.41251380330E+01  1.84194564881E+01 -3.57538900255E+01  5.27460147787E+01  0.00000000000E+00 0.00000000000E+00  1.
</event>
<event>
 6  50   1.0000000E+00   1.2500000E+02   7.8125000E-03   1.2380607E-01
      -11   -1    0    0    0    0  0.00000000000E+00  0.00000000000E+00  1.25000000000E+02  1.25000000000E+02  0.00000000000E+00 0.00000000000E+00  1.
       11   -1    0    0    0    0  0.00000000000E+00  0.00000000000E+00 -1.25000000000E+02  1.25000000000E+02  0.00000000000E+00 0.00000000000E+00  1.
       22    1    1    2    0    0  3.64333154252E+01  3.26180687036E+01 -5.36318559008E+01  7.25789283897E+01  0.00000000000E+00 0.00000000000E+00  1.
       25    2    1    2    0    0 -3.64333154252E+01 -3.26180687036E+01  5.36318559008E+01  1.77421071610E+02  1.61896682502E+02 0.00000000000E+00  1.
        5    1    4    4  501    0  3.69850564268E+01 -2.22347937444E+01 -3.94135833215E+01  5.84440844054E+01  0.00000000000E+00 0.00000000000E+00  1.
       -5    1    4    4    0  501 -7.34183718520E+01 -1.03832749592E+01  9.30454392223E+01  1.18976987205E+02  0.00000000000E+00 0.00000000000E+00  1.
</event>
<event>
 6  50   1.0000000E+00   1.2500000E+02   7.8125000E-03   1.2380607E-01
      -11   -1    0    0    0    0  0.00000000000E+00  0.00000000000E+00  1.25000000000E+02  1.25000000000E+02  0.00000000000E+00 0.00000000000E+00  1.
       11   -1    0    0    0    0  0.00000000000E+00  0.00000000000E+00 -1.25000000000E+02  1.25000000000E+02  0.00000000000E+00 0.00000000000E+00  1.
       22    1    1    2    0    0 -6.27528245021E+00  3.44420453914E+01  8.69692491671E+01  9.37511811193E+01  0.00000000000E+00 0.00000000000E+00  1.
       25    2    1    2    0    0  6.27528245021E+00 -3.44420453914E+01 -8.69692491671E+01  1.56248818881E+02  1.24997637739E+02 0.00000000000E+00  1.
        5    1    4    4  501    0  3.48631198096E+01  2.89573206554E+01 -7.20520794402E+01  8.51203013038E+01  0.00000000000E+00 0.00000000000E+00  1.
       -5    1    4    4    0  501 -2.85878373594E+01 -6.33993660468E+01 -1.49171697269E+01  7.11285175769E+01  0.00000000000E+00 0.00000000000E+00  1.
</event>
<event>
 6  50   1.0000000E+00   1.2500000E+02   7.8125000E-03   1.2380607E-01
      -11   -1    0    0    0    0  0.00000000000E+00  0.00000000000E+00  1.25000000000E+02  1.25000000000E+02  0.00000000000E+00 0.00000000000E+00  1.
       11   -1    0    0    0    0  0.00000000000E+00  0.00000000000E+00 -1.25000000000E+02  1.25000000000E+02  0.00000000000E+00 0.00000000000E+00  1.
       22    1    1    2    0    0  2.28517463043E+01 -6.04847906993E+01  6.78847870493E+01  9.37494348133E+01  0.00000000000E+00 0.00000000000E+00  1.
       25    2    1    2    0    0 -2.28517463043E+01  6.04847906993E+01 -6.78847870493E+01  1.56250565187E+02  1.25001130368E+02 0.00000000000E+00  1.
        5    1    4    4  501    0  1.73715344530E+01  8.87945789735E-01 -8.12735014563E+01  8.31140222582E+01  0.00000000000E+00 0.00000000000E+00  1.
       -5    1    4    4    0  501 -4.02232807574E+01  5.95968449095E+01  1.33887144070E+01  7.31365429285E+01  0.00000000000E+00 0.00000000000E+00  1.
</event>
<event>
 6  50   1.0000000E+00   1.2500000E+02   7.8125000E-03   1.2380607E-01
      -11   -1    0    0    0    0  0.00000000000E+00  0.00000000000E+00  1.25000000000E+02  1.25000000000E+02  0.00000000000E+00 0.00000000000E+00  1.
       11   -1    0    0    0    0  0.00000000000E+00  0.00000000000E+00 -1.25000000000E+02  1.25000000000E+02  0.00000000000E+00 0.00000000000E+00  1.
       22    1    1    2    0    0  1.34217331320E-01  4.50849244068E+01 -8.22008838963E+01  9.37531532077E+01  0.00000000000E+00 0.00000000000E+00  1.
       25    2    1    2    0    0 -1.34217331320E-01 -4.50849244068E+01  8.22008838963E+01  1.56246846792E+02  1.24993693425E+02 0.00000000000E+00  1.
        5    1    4    4  501    0 -5.66243153556E+01 -2.08526000644E+01  9.56922363465E+00  6.10959414356E+01  0.00000000000E+00 0.00000000000E+00  1.
       -5    1    4    4    0  501  5.64900980243E+01 -2.42323243425E+01  7.26316602616E+01  9.51509053567E+01  0.00000000000E+00 0.00000000000E+00  1.
</event>
<event>
 6  50   1.0000000E+00   1.2500000E+02   7.8125000E-03   1.2380607E-01
      -11   -1    0    0    0    0  0.00000000000E+00  0.00000000000E+00  1.25000000000E+02  1.25000000000E+02  0.00000000000E+00 0.00000000000E+00  1.
       11   -1    0    0    0    0  0.00000000000E+00  0.00000000000E+00 -1.25000000000E+02  1.25000000000E+02  0.00000000000E+00 0.00000000000E+00  1.
       22    1    1    2    0    0 -9.25166545674E+00 -9.06559638621E+01  2.20240509510E+01  9.37504982268E+01  0.00000000000E+00 0.00000000000E+00  1.
       25    2    1    2    0    0  9.25166545674E+00  9.06559638621E+01 -2.20240509510E+01  1.56249501773E+02  1.24999003542E+02 0.00000000000E+00  1.
        5    1    4    4  501    0  1.24589398672E+01  7.09914546428E+00  4.61723542156E+01  4.83477956349E+01  0.00000000000E+00 0.00000000000E+00  1.
       -5    1    4    4    0  501 -3.20727441042E+00  8.35568183978E+01 -6.81964051666E+01  1.07901706138E+02  0.00000000000E+00 0.00000000000E+00  1.
</event>
<event>
 6  50   1.0000000E+00   1.2500000E+02   7.8125000E-03   1.2380607E-01
      -11   -1    0    0    0    0  0.00000000000E+00  0.00000000000E+00  1.25000000000E+02  1.25000000000E+02  0.00000000000E+00 0.00000000000E+00  1.
       11   -1    0    0    0    0  0.00000000000E+00  0.00000000000E+00 -1.25000000000E+02  1.25000000000E+02  0.00000000000E+00 0.00000000000E+00  1.
       22    1    1    2    0    0 -3.42837582304E+01  8.51905005802E+01 -1.88716507468E+01  9.37493289011E+01  0.00000000000E+00 0.00000000000E+00  1.
       25    2    1    2    0    0  3.42837582304E+01 -8.51905005802E+01  1.88716507468E+01  1.56250671099E+02  1.25001342191E+02 0.00000000000E+00  1.
        5    1    4    4  501    0  4.67848997045E+01 -5.02188751114E+01  6.66933589464E+01  9.57014440088E+01  0.00000000000E+00 0.00000000000E+00  1.
       -5    1    4    4    0  501 -1.25011414741E+01 -3.49716254687E+01 -4.78217081996E+01  6.05492270901E+01  0.00000000000E+00 0.00000000000E+00  1.
</event>
<event>
 6  50   1.0000000E+00   1.2500000E+02   7.8125000E-03   1.2380607E-01
      -11   -1    0    0    0    0  0.00000000000E+00  0.00000000000E+00  1.25000000000E+02  1.25000000000E+02  0.00000000000E+00 0.00000000000E+00  1.
       11   -1    0    0    0    0  0.00000000000E+00  0.00000000000E+00 -1.25000000000E+02  1.25000000000E+02  0.00000000000E+00 0.00000000000E+00  1.
       22    1    1    2    0    0  8.59260805102E+01  1.88083988645E+01  3.24341838663E+01  9.37497918012E+01  0.00000000000E+00 0.00000000000E+00  1.
       25    2    1    2    0    0 -8.59260805102E+01 -1.88083988645E+01 -3.24341838663E+01  1.56250208199E+02  1.25000416397E+02 0.00000000000E+00  1.
        5    1    4    4  501    0  7.34088991013E+00 -4.72047801429E+01  1.17735556104E+01  4.92015908759E+01  0.00000000000E+00 0.00000000000E+00  1.
       -5    1    4    4    0  501 -9.32669704203E+01  2.83963812784E+01 -4.42077394767E+01  1.07048617323E+02  0.00000000000E+00 0.00000000000E+00  1.
</event>
<event>
 6  50   1.0000000E+00   1.2500000E+02   7.8125000E-03   1.2380607E-01
      -11   -1    0    0    0    0  0.00000000000E+00  0.00000000000E+00  1.25000000000E+02  1.25000000000E+02  0.00000000000E+00 0.00000000000E+00  1.
       11   -1    0    0    0    0  0.00000000000E+00  0.00000000000E+00 -1.25000000000E+02  1.25000000000E+02  0.00000000000E+00 0.00000000000E+00  1.
       22    1    1    2    0    0  6.25059812098E+00 -4.05271732255E+01  8.43004015964E+01  9.37447569511E+01  0.00000000000E+00 0.00000000000E+00  1.
       25    2    1    2    0    0 -6.25059812098E+00  4.05271732255E+01 -8.43004015964E+01  1.56255243049E+02  1.25010485658E+02 0.00000000000E+00  1.
        5    1    4    4  501    0 -6.90412697151E+00  5.46022148976E+01  1.41296604550E+01  5.68217928751E+01  0.00000000000E+00 0.00000000000E+00  1.
       -5    1    4    4    0  501  6.53528850530E-01 -1.40750416721E+01 -9.84300620514E+01  9.94334501738E+01  0.00000000000E+00 0.00000000000E+00  1.
</event>
<event>
 6  50   1.0000000E+00   1.2500000E+02   7.8125000E-03   1.2380607E-01
      -11   -1    0    0    0    0  0.00000000000E+00  0.00000000000E+00  1.25000000000E+02  1.25000000000E+02  0.00000000000E+00 0.00000000000E+00  1.
       11   -1    0    0    0    0  0.00000000000E+00  0.00000000000E+00 -1.25000000000E+02  1.25000000000E+02  0.00000000000E+00 0.00000000000E+00  1.
       22    1    1    2    0    0  5.17512318248E+01  2.35406068024E+01 -7.45434139936E+01  9.37500439138E+01  0.00000000000E+00 0.00000000000E+00  1.
       25    2    1    2    0    0 -5.17512318248E+01 -2.35406068024E+01  7.45434139936E+01  1.56249956086E+02  1.24999912172E+02 0.00000000000E+00  1.
        5    1    4    4  501    0  5.77217152600E+00 -2.03828761365E+01 -3.00934532495E+01  3.68021131486E+01  0.00000000000E+00 0.00000000000E+00  1.
       -5    1    4    4    0  501 -5.75234033508E+01 -3.15773066592E+00  1.04636867243E+02  1.19447842938E+02  0.00000000000E+00 0.00000000000E+00  1.
</event>
<event>
 6  50   1.0000000E+00   1.2500000E+02   7.8125000E-03   1.2380607E-01
      -11   -1    0    0    0    0  0.00000000000E+00  0.00000000000E+00  1.25000000000E+02  1.25000000000E+02  0.00000000000E+00 0.00000000000E+00  1.
       11   -1    0    0    0    0  0.00000000000E+00  0.00000000000E+00 -1.25000000000E+02  1.25000000000E+02  0.00000000000E+00 0.00000000000E+00  1.
       22    1    1    2    0    0  4.18125045857E+01 -2.91503873608E+01 -7.86789164875E+01  9.37464800548E+01  0.00000000000E+00 0.00000000000E+00  1.
       25    2    1    2    0    0 -4.18125045857E+01  2.91503873608E+01  7.86789164875E+01  1.56253519945E+02  1.25007039692E+02 0.00000000000E+00  1.
        5    1    4    4  501    0 -2.97451524483E+01 -4.81728140847E+01  2.97358757511E+01  6.39501088169E+01  0.00000000000E+00 0.00000000000E+00  1.
       -5    1    4    4    0  501 -1.20673521374E+01  7.73232014455E+01  4.89430407364E+01  9.23034111283E+01  0.00000000000E+00 0.00000000000E+00  1.
</event>
<event>
 6  50   1.0000000E+00   1.2500000E+02   7.8125000E-03   1.2380607E-01
      -11   -1    0    0    0    0  0.00000000000E+00  0.00000000000E+00  1.25000000000E+02  1.25000000000E+02  0.00000000000E+00 0.00000000000E+00  1.
       11   -1    0    0    0    0  0.00000000000E+00  0.00000000000E+00 -1.25000000000E+02  1.25000000000E+02  0.00000000000E+00 0.00000000000E+00  1.
       22    1    1    2    0    0  1.37493129857E+01 -3.06617524079E+00  9.26864010997E+01  9.37508079272E+01  0.00000000000E+00 0.00000000000E+00  1.
       25    2    1    2    0    0 -1.37493129857E+01  3.06617524079E+00 -9.26864010997E+01  1.56249192073E+02  1.24998384135E+02 0.00000000000E+00  1.
        5    1    4    4  501    0 -1.40580108155E+01  3.37886495454E+01 -1.13423794201E+02  1.19181616020E+02  0.00000000000E+00 0.00000000000E+00  1.
       -5    1    4    4    0  501  3.08697829777E-01 -3.07224743046E+01  2.07373931016E+01  3.70675760524E+01  0.00000000000E+00 0.00000000000E+00  1.
</event>
<event>
 6  50   1.0000000E+00   1.2500000E+02   7.8125000E-03   1.2380607E-01
      -11   -1    0    0    0    0  0.00000000000E+00  0.00000000000E+00  1.25000000000E+02  1.25000000000E+02  0.00000000000E+00 0.00000000000E+00  1.
       11   -1    0    0    0    0  0.00000000000E+00  0.00000000000E+00 -1.25000000000E+02  1.25000000000E+02  0.00000000000E+00 0.00000000000E+00  1.
       22    1    1    2    0    0  8.42053235980E+01 -4.08796819054E+01  5.22549731366E+00  9.37496172638E+01  0.00000000000E+00 0.00000000000E+00  1.
       25    2    1    2    0    0 -8.42053235980E+01  4.08796819054E+01 -5.22549731366E+00  1.56250382736E+02  1.25000765470E+02 0.00000000000E+00  1.
        5    1    4    4  501    0 -5.38418369834E+01  6.37549544089E+01  4.37741511125E+01  9.42327646153E+01  0.00000000000E+00 0.00000000000E+00  1.
       -5    1    4    4    0  501 -3.03634866146E+01 -2.28752725035E+01 -4.89996484262E+01  6.20176181209E+01  0.00000000000E+00 0.00000000000E+00  1.
</event>
<event>
 6  50   1.0000000E+00   1.2500000E+02   7.8125000E-03   1.2380607E-01
      -11   -1    0    0    0    0  0.00000000000E+00  0.00000000000E+00  1.25000000000E+02  1.25000000000E+02  0.00000000000E+00 0.00000000000E+00  1.
       11   -1    0    0    0    0  0.00000000000E+00  0.00000000000E+00 -1.25000000000E+02  1.25000000000E+02  0.00000000000E+00 0.00000000000E+00  1.
       22    1    1    2    0    0  4.48999249938E+01 -8.14550675986E+01  1.17695820456E+01  9.37520899152E+01  0.00000000000E+00 0.00000000000E+00  1.
       25    2    1    2    0    0 -4.48999249938E+01  8.14550675986E+01 -1.17695820456E+01  1.56247910085E+02  1.24995820100E+02 0.00000000000E+00  1.
        5    1    4    4  501    0  2.43574322243E+01  6.94255139070E+01 -3.59804522720E+01  8.19010343739E+01  0.00000000000E+00 0.00000000000E+00  1.
       -5    1    4    4    0  501 -6.92573572181E+01  1.20295536916E+01  2.42108702265E+01  7.43468757109E+01  0.00000000000E+00 0.00000000000E+00  1.
</event>
<event>
 6  50   1.0000000E+00   1.2500000E+02   7.8125000E-03   1.2380607E-01
      -11   -1    0    0    0    0  0.00000000000E+00  0.00000000000E+00  1.25000000000E+02  1.25000000000E+02  0.00000000000E+00 0.00000000000E+00  1.
       11   -1    0    0    0    0  0.00000000000E+00  0.00000000000E+00 -1.25000000000E+02  1.25000000000E+02  0.00000000000E+00 0.00000000000E+00  1.
       22    1    1    2    0    0 -2.13994654501E+01 -7.80734517070E+01 -4.72817316499E+01  9.37494700295E+01  0.00000000000E+00 0.00000000000E+00  1.
       25    2    1    2    0    0  2.13994654501E+01  7.80734517070E+01  4.72817316499E+01  1.56250529971E+02  1.25001059937E+02 0.00000000000E+00  1.
        5    1    4    4  501    0  5.69410621929E+01  8.34412848097E+01  5.54718237321E+00  1.01170666730E+02  0.00000000000E+00 0.00000000000E+00  1.
       -5    1    4    4    0  501 -3.55415967427E+01 -5.36783310272E+00  4.17345492767E+01  5.50798632403E+01  0.00000000000E+00 0.00000000000E+00  1.
</event>
<event>
 6  50   1.0000000E+00   1.2500000E+02   7.8125000E-03   1.2380607E-01
      -11   -1    0    0    0    0  0.00000000000E+00  0.00000000000E+00  1.25000000000E+02  1.25000000000E+02  0.00000000000E+00 0.00000000000E+00  1.
       11   -1    0    0    0    0  0.00000000000E+00  0.00000000000E+00 -1.25000000000E+02  1.25000000000E+02  0.00000000000E+00 0.00000000000E+00  1.
       22    1    1    2    0    0 -4.08865647166E+01  7.94424325774E+01 -2.84007975133E+01  9.37518883412E+01  0.00000000000E+00 0.00000000000E+00  1.
       25    2    1    2    0    0  4.08865647166E+01 -7.94424325774E+01  2.84007975133E+01  1.56248111659E+02  1.24996223261E+02 0.00000000000E+00  1.
        5    1    4    4  501    0  1.40090052744E+00 -9.88278577659E+01  4.58135418286E+01  1.08939380427E+02  0.00000000000E+00 0.00000000000E+00  1.
       -5    1    4    4    0  501  3.94856641892E+01  1.93854251884E+01 -1.74127443153E+01  4.73087312321E+01  0.00000000000E+00 0.00000000000E+00  1.
</event>
<event>
 6  50   1.0000000E+00   1.2500000E+02   7.8125000E-03   1.2380607E-01
      -11   -1    0    0    0    0  0.00000000000E+00  0.00000000000E+00  1.25000000000E+02  1.25000000000E+02  0.00000000000E+00 0.00000000000E+00  1.
       11   -1    0    0    0    0  0.00000000000E+00  0.00000000000E+00 -1.25000000000E+02  1.25000000000E+02  0.00000000000E+00 0.00000000000E+00  1.
       22    1    1    2    0    0  9.19309751892E+01  4.64711758294E+00 -1.77267250918E+01  9.37397284162E+01  0.00000000000E+00 0.00000000000E+00  1.
       25    2    1    2    0    0 -9.19309751892E+01 -4.64711758294E+00  1.77267250918E+01  1.56260271584E+02  1.25020541480E+02 0.00000000000E+00  1.
        5    1    4    4  501    0 -2.19108166303E+01 -7.42586484308E-01 -5.25736971246E+01  5.69616445465E+01  0.00000000000E+00 0.00000000000E+00  1.
       -5    1    4    4    0  501 -7.00201585588E+01 -3.90453109863E+00  7.03004222163E+01  9.92986270373E+01  0.00000000000E+00 0.00000000000E+00  1.
</event>
<event>
 6  50   1.0000000E+00   1.2500000E+02   7.8125000E-03   1.2380607E-01
      -11   -1    0    0    0    0  0.00000000000E+00  0.00000000000E+00  1.25000000000E+02  1.25000000000E+02  0.00000000000E+00 0.00000000000E+00  1.
       11   -1    0    0    0    0  0.00000000000E+00  0.00000000000E+00 -1.25000000000E+02  1.25000000000E+02  0.00000000000E+00 0.00000000000E+00  1.
       22    1    1    2    0    0  6.38727162694E+01  4.99123059631E+00 -6.84437726147E+01  9.37506601376E+01  0.00000000000E+00 0.00000000000E+00  1.
       25    2    1    2    0    0 -6.38727162694E+01 -4.99123059631E+00  6.84437726147E+01  1.56249339862E+02  1.24998679718E+02 0.00000000000E+00  1.
        5    1    4    4  501    0 -4.74763534953E+01  3.30670050421E+01  9.19266365942E+01  1.08618310976E+02  0.00000000000E+00 0.00000000000E+00  1.
       -5    1    4    4    0  501 -1.63963627742E+01 -3.80582356384E+01 -2.34828639795E+01  4.76310288868E+01  0.00000000000E+00 0.00000000000E+00  1.
</event>
<event>
 6  50   1.0000000E+00   1.2500000E+02   7.8125000E-03   1.2380607E-01
      -11   -1    0    0    0    0  0.00000000000E+00  0.00000000000E+00  1.25000000000E+02  1.25000000000E+02  0.00000000000E+00 0.00000000000E+00  1.
       11   -1    0    0    0    0  0.00000000000E+00  0.00000000000E+00 -1.25000000000E+02  1.25000000000E+02  0.00000000000E+00 0.00000000000E+00  1.
       22    1    1    2    0    0  6.14438842071E+01 -6.07081436667E+01  3.64454033252E+01  9.37501841995E+01  0.00000000000E+00 0.00000000000E+00  1.
       25    2    1    2    0    0 -6.14438842071E+01  6.07081436667E+01 -3.64454033252E+01  1.56249815800E+02  1.24999631600E+02 0.00000000000E+00  1.
        5    1    4    4  501    0 -2.04583878073E+01  9.54144739236E+01 -3.03775380608E+01  1.02202065950E+02  0.00000000000E+00 0.00000000000E+00  1.
       -5    1    4    4    0  501 -4.09854963998E+01 -3.47063302569E+01 -6.06786526442E+00  5.40477498505E+01  0.00000000000E+00 0.00000000000E+00  1.
</event>
<event>
 6  50   1.0000000E+00   1.2500000E+02   7.8125000E-03   1.2380607E-01
      -11   -1    0    0    0    0  0.00000000000E+00  0.00000000000E+00  1.25000000000E+02  1.25000000000E+02  0.00000000000E+00 0.00000000000E+00  1.
       11   -1    0    0    0    0  0.00000000000E+00  0.00000000000E+00 -1.25000000000E+02  1.25000000000E+02  0.00000000000E+00 0.00000000000E+00  1.
       22    1    1    2    0    0  5.51682803055E+00  3.75916582681E+01 -8.56982316859E+01  9.37430268178E+01  0.00000000000E+00 0.00000000000E+00  1.
       25    2    1    2    0    0 -5.51682803055E+00 -3.75916582681E+01  8.56982316859E+01  1.56256973182E+02  1.25013945586E+02 0.00000000000E+00  1.
        5    1    4    4  501    0 -4.67061004074E+01  1.06115470308E+01 -2.11841685697E+00  4.79432209559E+01  0.00000000000E+00 0.00000000000E+00  1.
       -5    1    4    4    0  501  4.11892723768E+01 -4.82032052990E+01  8.78166485429E+01  1.08313752226E+02  0.00000000000E+00 0.00000000000E+00  1.
</event>
<event>
 6  50   1.0000000E+00   1.2500000E+02   7.8125000E-03   1.2380607E-01
      -11   -1    0    0    0    0  0.00000000000E+00  0.00000000000E+00  1.25000000000E+02  1.25000000000E+02  0.00000000000E+00 0.00000000000E+00  1.
       11   -1    0    0    0    0  0.00000000000E+00  0.00000000000E+00 -1.25000000000E+02  1.25000000000E+02  0.00000000000E+00 0.00000000000E+00  1.
       22    1    1    2    0    0  6.19715605903E+01 -5.96829089796E+01 -3.72376775792E+01  9.37505657464E+01  0.00000000000E+00 0.00000000000E+00  1.
       25    2    1    2    0    0 -6.19715605903E+01  5.96829089796E+01  3.72376775792E+01  1.56249434254E+02  1.24998868502E+02 0.00000000000E+00  1.
        5    1    4    4  501    0 -9.10421661499E+01  6.43244461660E+01  3.57581026533E+00  1.11530698962E+02  0.00000000000E+00 0.00000000000E+00  1.
       -5    1    4    4    0  501  2.90706055595E+01 -4.64153718640E+00  3.36618673139E+01  4.47187352919E+01  0.00000000000E+00 0.00000000000E+00  1.
</event>
<event>
 6  50   1.0000000E+00   1.2500000E+02   7.8125000E-03   1.2380607E-01
      -11   -1    0    0    0    0  0.00000000000E+00  0.00000000000E+00  1.25000000000E+02  1.25000000000E+02  0.00000000000E+00 0.00000000000E+00  1.
       11   -1    0    0    0    0  0.00000000000E+00  0.00000000000E+00 -1.25000000000E+02  1.25000000000E+02  0.00000000000E+00 0.00000000000E+00  1.
       22    1    1    2    0    0  2.44349548834E+01 -7.59345528012E+01  4.92554663759E+01  9.37508629143E+01  0.00000000000E+00 0.00000000000E+00  1.
       25    2    1    2    0    0 -2.44349548834E+01  7.59345528012E+01 -4.92554663759E+01  1.56249137086E+02  1.24998274159E+02 0.00000000000E+00  1.
        5    1    4    4  501    0 -4.94580910206E+01  9.54193265596E+01 -1.32837909133E+01  1.08293165756E+02  0.00000000000E+00 0.00000000000E+00  1.
       -5    1    4    4    0  501  2.50231361372E+01 -1.94847737584E+01 -3.59716754627E+01  4.79559713294E+01  0.00000000000E+00 0.00000000000E+00  1.
</event>
<event>
 6  50   1.0000000E+00   1.2500000E+02   7.8125000E-03   1.2380607E-01
      -11   -1    0    0    0    0  0.00000000000E+00  0.00000000000E+00  1.25000000000E+02  1.25000000000E+02  0.00000000000E+00 0.00000000000E+00  1.
       11   -1    0    0    0    0  0.00000000000E+00  0.00000000000E+00 -1.25000000000E+02  1.25000000000E+02  0.00000000000E+00 0.00000000000E+00  1.
       22    1    1    2    0    0  5.99907808451E+01 -1.19831063401E+01  7.10414742719E+01  9.37516916684E+01  0.00000000000E+00 0.00000000000E+00  1.
       25    2    1    2    0    0 -5.99907808451E+01  1.19831063401E+01 -7.10414742719E+01  1.56248308332E+02  1.24996616617E+02 0.00000000000E+00  1.
        5    1    4    4  501    0 -6.44689131706E+01  5.97828460741E+01 -6.15107479193E+01  1.07302383756E+02  0.00000000000E+00 0.00000000000E+00  1.
       -5    1    4    4    0  501  4.47813232550E+00 -4.77997397339E+01 -9.53072635258E+00  4.89459245757E+01  0.00000000000E+00 0.00000000000E+00  1.
</event>
<event>
 6  50   1.0000000E+00   1.2500000E+02   7.8125000E-03   1.2380607E-01
      -11   -1    0    0    0    0  0.00000000000E+00  0.00000000000E+00  1.25000000000E+02  1.25000000000E+02  0.00000000000E+00 0.00000000000E+00  1.
       11   -1    0    0    0    0  0.00000000000E+00  0.00000000000E+00 -1.25000000000E+02  1.25000000000E+02  0.00000000000E+00 0.00000000000E+00  1.
       22    1    1    2    0    0  5.36501907990E+01  5.61455798493E+01  5.25221736553E+01  9.37509884474E+01  0.00000000000E+00 0.00000000000E+00  1.
       25    2    1    2    0    0 -5.36501907990E+01 -5.61455798493E+01 -5.25221736553E+01  1.56249011553E+02  1.24998023090E+02 0.00000000000E+00  1.
        5    1    4    4  501    0 -5.96933970019E+01 -9.26158369311E+01 -3.97766455575E+01  1.17145962064E+02  0.00000000000E+00 0.00000000000E+00  1.
       -5    1    4    4    0  501  6.04320620289E+00  3.64702570818E+01 -1.27455280978E+01  3.91030494887E+01  0.00000000000E+00 0.00000000000E+00  1.
</event>
<event>
 6  50   1.0000000E+00   1.2500000E+02   7.8125000E-03   1.2380607E-01
      -11   -1    0    0    0    0  0.00000000000E+00  0.00000000000E+00  1.25000000000E+02  1.25000000000E+02  0.00000000000E+00 0.00000000000E+00  1.
       11   -1    0    0    0    0  0.00000000000E+00  0.00000000000E+00 -1.25000000000E+02  1.25000000000E+02  0.00000000000E+00 0.00000000000E+00  1.
       22    1    1    2    0    0 -5.87611685684E+01  6.38585180678E+01 -3.54707369347E+01  9.37494450118E+01  0.00000000000E+00 0.00000000000E+00  1.
       25    2    1    2    0    0  5.87611685684E+01 -6.38585180678E+01  3.54707369347E+01  1.56250554988E+02  1.25001109971E+02 0.00000000000E+00  1.
        5    1    4    4  501    0  1.96482490093E+01 -9.53722384681E+01  5.00319388683E+00  9.75035871577E+01  0.00000000000E+00 0.00000000000E+00  1.
       -5    1    4    4    0  501  3.91129195591E+01  3.15137204003E+01  3.04675430478E+01  5.87469678305E+01  0.00000000000E+00 0.00000000000E+00  1.
</event>
<event>
 6  50   1.0000000E+00   1.2500000E+02   7.8125000E-03   1.2380607E-01
      -11   -1    0    0    0    0  0.00000000000E+00  0.00000000000E+00  1.25000000000E+02  1.25000000000E+02  0.00000000000E+00 0.00000000000E+00  1.
       11   -1    0    0    0    0  0.00000000000E+00  0.00000000000E+00 -1.25000000000E+02  1.25000000000E+02  0.00000000000E+00 0.00000000000E+00  1.
       22    1    1    2    0    0  3.82633724123E+01  5.61379976698E+00 -8.54030219754E+01  9.37511417462E+01  0.00000000000E+00 0.00000000000E+00  1.
       25    2    1    2    0    0 -3.82633724123E+01 -5.61379976698E+00  8.54030219754E+01  1.56248858254E+02  1.24997716487E+02 0.00000000000E+00  1.
        5    1    4    4  501    0 -3.74145523269E+01 -6.27372784921E+01  4.00492729954E+01  8.33052165587E+01  0.00000000000E+00 0.00000000000E+00  1.
       -5    1    4    4    0  501 -8.48820085407E-01  5.71234787252E+01  4.53537489800E+01  7.29436416951E+01  0.00000000000E+00 0.00000000000E+00  1.
</event>
<event>
 6  50   1.0000000E+00   1.2500000E+02   7.8125000E-03   1.2380607E-01
      -11   -1    0    0    0    0  0.00000000000E+00  0.00000000000E+00  1.25000000000E+02  1.25000000000E+02  0.00000000000E+00 0.00000000000E+00  1.
       11   -1    0    0    0    0  0.00000000000E+00  0.00000000000E+00 -1.25000000000E+02  1.25000000000E+02  0.00000000000E+00 0.00000000000E+00  1.
       22    1    1    2    0    0 -5.54247779131E+00  8.46779722367E+01 -3.98519703282E+01  9.37510404274E+01  0.00000000000E+00 0.00000000000E+00  1.
       25    2    1    2    0    0  5.54247779131E+00 -8.46779722367E+01  3.98519703282E+01  1.56248959573E+02  1.24997919128E+02 0.00000000000E+00  1.
        5    1    4    4  501    0 -4.33157678794E+01  7.37827094541E+00  2.61534662361E+01  5.11341219274E+01  0.00000000000E+00 0.00000000000E+00  1.
       -5    1    4    4    0  501  4.88582456707E+01 -9.20562431821E+01  1.36985040920E+01  1.05114837645E+02  0.00000000000E+00 0.00000000000E+00  1.
</event>
<event>
 6  50   1.0000000E+00   1.2500000E+02   7.8125000E-03   1.2380607E-01
      -11   -1    0    0    0    0  0.00000000000E+00  0.00000000000E+00  1.25000000000E+02  1.25000000000E+02  0.00000000000E+00 0.00000000000E+00  1.
       11   -1    0    0    0    0  0.00000000000E+00  0.00000000000E+00 -1.25000000000E+02  1.25000000000E+02  0.00000000000E+00 0.00000000000E+00  1.
       22    1    1    2    0    0  4.53122358496E+00 -7.86110466857E+01  5.08779731896E+01  9.37485829444E+01  0.00000000000E+00 0.00000000000E+00  1.
       25    2    1    2    0    0 -4.53122358496E+00  7.86110466857E+01 -5.08779731896E+01  1.56251417056E+02  1.25002834079E+02 0.00000000000E+00  1.
        5    1    4    4  501    0  7.66773007934E+00  7.28694448967E+01  2.63421682067E+01  7.78630843850E+01  0.00000000000E+00 0.00000000000E+00  1.
       -5    1    4    4    0  501 -1.21989536643E+01  5.74160178902E+00 -7.72201413963E+01  7.83883326706E+01  0.00000000000E+00 0.00000000000E+00  1.
</event>
<event>
 6  50   1.0000000E+00   1.2500000E+02   7.8125000E-03   1.2380607E-01
      -11   -1    0    0    0    0  0.00000000000E+00  0.00000000000E+00  1.25000000000E+02  1.25000000000E+02  0.00000000000E+00 0.00000000000E+00  1.
       11   -1    0    0    0    0  0.00000000000E+00  0.00000000000E+00 -1.25000000000E+02  1.25000000000E+02  0.00000000000E+00 0.00000000000E+00  1.
       22    1    1    2    0    0  4.33671631804E+01  3.84127406671E+01  7.34178652837E+01  9.35223632652E+01  0.00000000000E+00 0.00000000000E+00  1.
       25    2    1    2    0    0 -4.33671631804E+01 -3.84127406671E+01 -7.34178652837E+01  1.56477636735E+02  1.25454447380E+02 0.00000000000E+00  1.
        5    1    4    4  501    0  8.11602580500E+00  4.66765846227E+00 -8.74057639291E+01  8.79057704501E+01  0.00000000000E+00 0.00000000000E+00  1.
       -5    1    4    4    0  501 -5.14831889854E+01 -4.30803991294E+01  1.39878986454E+01  6.85718662848E+01  0.00000000000E+00 0.00000000000E+00  1.
</event>
<event>
 6  50   1.0000000E+00   1.2500000E+02   7.8125000E-03   1.2380607E-01
      -11   -1    0    0    0    0  0.00000000000E+00  0.00000000000E+00  1.25000000000E+02  1.25000000000E+02  0.00000000000E+00 0.00000000000E+00  1.
       11   -1    0    0    0    0  0.00000000000E+00  0.00000000000E+00 -1.25000000000E+02  1.25000000000E+02  0.00000000000E+00 0.00000000000E+00  1.
       22    1    1    2    0    0 -1.55304153685E+01 -4.24604430139E+01  8.21292873589E+01  9.37512819354E+01  0.00000000000E+00 0.00000000000E+00  1.
       25    2    1    2    0    0  1.55304153685E+01  4.24604430139E+01 -8.21292873589E+01  1.56248718065E+02  1.24997436103E+02 0.00000000000E+00  1.
        5    1    4    4  501    0 -4.61376155118E+01 -1.30420043960E+01 -4.34671837756E+01  6.47160684001E+01  0.00000000000E+00 0.00000000000E+00  1.
       -5    1    4    4    0  501  6.16680308803E+01  5.55024474099E+01 -3.86621035832E+01  9.15326496646E+01  0.00000000000E+00 0.00000000000E+00  1.
</event>
<event>
 6  50   1.0000000E+00   1.2500000E+02   7.8125000E-03   1.2380607E-01
      -11   -1    0    0    0    0  0.00000000000E+00  0.00000000000E+00  1.25000000000E+02  1.25000000000E+02  0.00000000000E+00 0.00000000000E+00  1.
       11   -1    0    0    0    0  0.00000000000E+00  0.00000000000E+00 -1.25000000000E+02  1.25000000000E+02  0.00000000000E+00 0.00000000000E+00  1.
       22    1    1    2    0    0 -7.26963408371E+01  5.67770683150E+01  1.67523343534E+01  9.37498488736E+01  0.00000000000E+00 0.00000000000E+00  1.
       25    2    1    2    0    0  7.26963408371E+01 -5.67770683150E+01 -1.67523343534E+01  1.56250151126E+02  1.25000302252E+02 0.00000000000E+00  1.
        5    1    4    4  501    0 -1.28160003912E+01  1.61409358917E+01  2.84402955470E+01  3.51230705988E+01  0.00000000000E+00 0.00000000000E+00  1.
       -5    1    4    4    0  501  8.55123412282E+01 -7.29180042067E+01 -4.51926299004E+01  1.21127080528E+02  0.00000000000E+00 0.00000000000E+00  1.
</event>
<event>
 6  50   1.0000000E+00   1.2500000E+02   7.8125000E-03   1.2380607E-01
      -11   -1    0    0    0    0  0.00000000000E+00  0.00000000000E+00  1.25000000000E+02  1.25000000000E+02  0.00000000000E+00 0.00000000000E+00  1.
       11   -1    0    0    0    0  0.00000000000E+00  0.00000000000E+00 -1.25000000000E+02  1.25000000000E+02  0.00000000000E+00 0.00000000000E+00  1.
       22    1    1    2    0    0 -6.88203468820E+01 -3.01947564261E+01  5.60454079887E+01  9.37499398251E+01  0.00000000000E+00 0.00000000000E+00  1.
       25    2    1    2    0    0  6.88203468820E+01  3.01947564261E+01 -5.60454079887E+01  1.56250060175E+02  1.25000120350E+02 0.00000000000E+00  1.
        5    1    4    4  501    0  8.31518997246E+01  7.56458073340E+00  1.08440116731E+01  8.41965195162E+01  0.00000000000E+00 0.00000000000E+00  1.
       -5    1    4    4    0  501 -1.43315528426E+01  2.26301756927E+01 -6.68894196618E+01  7.20535406587E+01  0.00000000000E+00 0.00000000000E+00  1.
</event>
<event>
 6  50   1.0000000E+00   1.2500000E+02   7.8125000E-03   1.2380607E-01
      -11   -1    0    0    0    0  0.00000000000E+00  0.00000000000E+00  1.25000000000E+02  1.25000000000E+02  0.00000000000E+00 0.00000000000E+00  1.
       11   -1    0    0    0    0  0.00000000000E+00  0.00000000000E+00 -1.25000000000E+02  1.25000000000E+02  0.00000000000E+00 0.00000000000E+00  1.
       22    1    1    2    0    0  8.73006402615E+01 -3.41512097628E+01 -1.29162377952E+00  9.37516677735E+01  0.00000000000E+00 0.00000000000E+00  1.
       25    2    1    2    0    0 -8.73006402615E+01  3.41512097628E+01  1.29162377952E+00  1.56248332226E+02  1.24996664408E+02 0.00000000000E+00  1.
        5    1    4    4  501    0  1.61029591071E+01 -1.62277843257E+01 -2.93601022542E+01  3.72110451413E+01  0.00000000000E+00 0.00000000000E+00  1.
       -5    1    4    4    0  501 -1.03403599369E+02  5.03789940886E+01  3.06517260337E+01  1.19037287085E+02  0.00000000000E+00 0.00000000000E+00  1.
</event>
<event>
 6  50   1.0000000E+00   1.2500000E+02   7.8125000E-03   1.2380607E-01
      -11   -1    0    0    0    0  0.00000000000E+00  0.00000000000E+00  1.25000000000E+02  1.25000000000E+02  0.00000000000E+00 0.00000000000E+00  1.
       11   -1    0    0    0    0  0.00000000000E+00  0.00000000000E+00 -1.25000000000E+02  1.25000000000E+02  0.00000000000E+00 0.00000000000E+00  1.
       22    1    1    2    0    0 -2.74645987069E+01  3.63187355706E+01  8.19501454361E+01  9.37506323849E+01  0.00000000000E+00 0.00000000000E+00  1.
       25    2    1    2    0    0  2.74645987069E+01 -3.63187355706E+01 -8.19501454361E+01  1.56249367615E+02  1.24998735224E+02 0.00000000000E+00  1.
        5    1    4    4  501    0  1.08992480381E+01 -8.07586283103E+01 -3.25015990553E+01  8.77331385254E+01  0.00000000000E+00 0.00000000000E+00  1.
       -5    1    4    4    0  501  1.65653506687E+01  4.44398927397E+01 -4.94485463808E+01  6.85162290897E+01  0.00000000000E+00 0.00000000000E+00  1.
</event>
<event>
 6  50   1.0000000E+00   1.2500000E+02   7.8125000E-03   1.2380607E-01
      -11   -1    0    0    0    0  0.00000000000E+00  0.00000000000E+00  1.25000000000E+02  1.25000000000E+02  0.00000000000E+00 0.00000000000E+00  1.
       11   -1    0    0    0    0  0.00000000000E+00  0.00000000000E+00 -1.25000000000E+02  1.25000000000E+02  0.00000000000E+00 0.00000000000E+00  1.
       22    1    1    2    0    0 -3.35360815337E+00 -8.68871065526E+01 -3.50528562059E+01  9.37513663950E+01  0.00000000000E+00 0.00000000000E+00  1.
       25    2    1    2    0    0  3.35360815337E+00  8.68871065526E+01  3.50528562059E+01  1.56248633605E+02  1.24997267180E+02 0.00000000000E+00  1.
        5    1    4    4  501    0 -5.69299081820E+01  6.25495183609E+01  3.42030571726E+01  9.12321533931E+01  0.00000000000E+00 0.00000000000E+00  1.
       -5    1    4    4    0  501  6.02835163354E+01  2.43375881917E+01  8.49799033336E-01  6.50164802119E+01  0.00000000000E+00 0.00000000000E+00  1.
</event>
<event>
 6  50   1.0000000E+00   1.2500000E+02   7.8125000E-03   1.2380607E-01
      -11   -1    0    0    0    0  0.00000000000E+00  0.00000000000E+00  1.25000000000E+02  1.25000000000E+02  0.00000000000E+00 0.00000000000E+00  1.
       11   -1    0    0    0    0  0.00000000000E+00  0.00000000000E+00 -1.25000000000E+02  1.25000000000E+02  0.00000000000E+00 0.00000000000E+00  1.
       22    1    1    2    0    0 -6.08191772547E+01 -5.29708832812E+01  4.77932975282E+01  9.37501257927E+01  0.00000000000E+00 0.00000000000E+00  1.
       25    2    1    2    0    0  6.08191772547E+01  5.29708832812E+01 -4.77932975282E+01  1.56249874207E+02  1.24999748414E+02 0.00000000000E+00  1.
        5    1    4    4  501    0  6.96936734936E+01  8.22589552423E+01 -5.99036849098E+01  1.23337728649E+02  0.00000000000E+00 0.00000000000E+00  1.
       -5    1    4    4    0  501 -8.87449623894E+00 -2.92880719611E+01  1.21103873817E+01  3.29121455580E+01  0.00000000000E+00 0.00000000000E+00  1.
</event>
<event>
 6  50   1.0000000E+00   1.2500000E+02   7.8125000E-03   1.2380607E-01
      -11   -1    0    0    0    0  0.00000000000E+00  0.00000000000E+00  1.25000000000E+02  1.25000000000E+02  0.00000000000E+00 0.00000000000E+00  1.
       11   -1    0    0    0    0  0.00000000000E+00  0.00000000000E+00 -1.25000000000E+02  1.25000000000E+02  0.00000000000E+00 0.00000000000E+00  1.
       22    1    1    2    0    0 -4.57220649442E+01 -6.00445661987E+01 -5.56157239663E+01  9.37494848255E+01  0.00000000000E+00 0.00000000000E+00  1.
       25    2    1    2    0    0  4.57220649442E+01  6.00445661987E+01  5.56157239663E+01  1.56250515175E+02  1.25001030345E+02 0.00000000000E+00  1.
        5    1    4    4  501    0 -1.15551316950E+01 -2.82137639571E+01  3.93601296324E+01  4.97871203204E+01  0.00000000000E+00 0.00000000000E+00  1.
       -5    1    4    4    0  501  5.72771966391E+01  8.82583301558E+01  1.62555943339E+01  1.06463394854E+02  0.00000000000E+00 0.00000000000E+00  1.
</event>
<event>
 6  50   1.0000000E+00   1.2500000E+02   7.8125000E-03   1.2380607E-01
      -11   -1    0    0    0    0  0.00000000000E+00  0.00000000000E+00  1.25000000000E+02  1.25000000000E+02  0.00000000000E+00 0.00000000000E+00  1.
       11   -1    0    0    0    0  0.00000000000E+00  0.00000000000E+00 -1.25000000000E+02  1.25000000000E+02  0.00000000000E+00 0.00000000000E+00  1.
       22    1    1    2    0    0  5.42851029837E+01 -7.62196073446E+01  5.70096751973E+00  9.37486105517E+01  0.00000000000E+00 0.00000000000E+00  1.
       25    2    1    2    0    0 -5.42851029837E+01  7.62196073446E+01 -5.70096751973E+00  1.56251389448E+02  1.25002778866E+02 0.00000000000E+00  1.
        5    1    4    4  501    0 -4.86625973193E+01 -1.40108276915E+01  3.02198791348E+01  5.89711180612E+01  0.00000000000E+00 0.00000000000E+00  1.
       -5    1    4    4    0  501 -5.62250566434E+00  9.02304350362E+01 -3.59208466546E+01  9.72802713871E+01  0.00000000000E+00 0.00000000000E+00  1.
</event>
<event>
 6  50   1.0000000E+00   1.2500000E+02   7.8125000E-03   1.2380607E-01
      -11   -1    0    0    0    0  0.00000000000E+00  0.00000000000E+00  1.25000000000E+02  1.25000000000E+02  0.00000000000E+00 0.00000000000E+00  1.
       11   -1    0    0    0    0  0.00000000000E+00  0.00000000000E+00 -1.25000000000E+02  1.25000000000E+02  0.00000000000E+00 0.00000000000E+00  1.
       22    1    1    2    0    0 -3.48296170131E+01 -3.72837553721E+01 -7.86503982101E+01  9.37500174642E+01  0.00000000000E+00 0.00000000000E+00  1.
       25    2    1    2    0    0  3.48296170131E+01  3.72837553721E+01  7.86503982101E+01  1.56249982536E+02  1.24999965072E+02 0.00000000000E+00  1.
        5    1    4    4  501    0  5.55585937234E+01  5.93757335814E+01  9.23106400033E+01  1.23018247966E+02  0.00000000000E+00 0.00000000000E+00  1.
       -5    1    4    4    0  501 -2.07289767103E+01 -2.20919782093E+01 -1.36602417932E+01  3.32317345696E+01  0.00000000000E+00 0.00000000000E+00  1.
</event>
<event>
 6  50   1.0000000E+00   1.2500000E+02   7.8125000E-03   1.2380607E-01
      -11   -1    0    0    0    0  0.00000000000E+00  0.00000000000E+00  1.25000000000E+02  1.25000000000E+02  0.00000000000E+00 0.00000000000E+00  1.
       11   -1    0    0    0    0  0.00000000000E+00  0.00000000000E+00 -1.25000000000E+02  1.25000000000E+02  0.00000000000E+00 0.00000000000E+00  1.
       22    1    1    2    0    0 -6.76256185417E+01  5.48512466710E+01  3.47583443590E+01  9.37551387770E+01  0.00000000000E+00 0.00000000000E+00  1.
       25    2    1    2    0    0  6.76256185417E+01 -5.48512466710E+01 -3.47583443590E+01  1.56244861223E+02  1.24989722023E+02 0.00000000000E+00  1.
        5    1    4    4  501    0  9.97855862395E+01 -6.43687677479E+01 -2.86776135678E+01  1.22159350860E+02  0.00000000000E+00 0.00000000000E+00  1.
       -5    1    4    4    0  501 -3.21599676977E+01  9.51752107686E+00 -6.08073079124E+00  3.40855103633E+01  0.00000000000E+00 0.00000000000E+00  1.
</event>
<event>
 6  50   1.0000000E+00   1.2500000E+02   7.8125000E-03   1.2380607E-01
      -11   -1    0    0    0    0  0.00000000000E+00  0.00000000000E+00  1.25000000000E+02  1.25000000000E+02  0.00000000000E+00 0.00000000000E+00  1.
       11   -1    0    0    0    0  0.00000000000E+00  0.00000000000E+00 -1.25000000000E+02  1.25000000000E+02  0.00000000000E+00 0.00000000000E+00  1.
       22    1    1    2    0    0  2.69263989781E+01  2.57781724582E+00  8.97642947941E+01  9.37512918501E+01  0.00000000000E+00 0.00000000000E+00  1.
       25    2    1    2    0    0 -2.69263989781E+01 -2.57781724582E+00 -8.97642947941E+01  1.56248708150E+02  1.24997416273E+02 0.00000000000E+00  1.
        5    1    4    4  501    0 -9.15370726297E+00 -3.97203181309E+01  1.51951434687E+01  4.35015679500E+01  0.00000000000E+00 0.00000000000E+00  1.
       -5    1    4    4    0  501 -1.77726917152E+01  3.71425008851E+01 -1.04959438263E+02  1.12747140200E+02  0.00000000000E+00 0.00000000000E+00  1.
</event>
<event>
 6  50   1.0000000E+00   1.2500000E+02   7.8125000E-03   1.2380607E-01
      -11   -1    0    0    0    0  0.00000000000E+00  0.00000000000E+00  1.25000000000E+02  1.25000000000E+02  0.00000000000E+00 0.00000000000E+00  1.
       11   -1    0    0    0    0  0.00000000000E+00  0.00000000000E+00 -1.25000000000E+02  1.25000000000E+02  0.00000000000E+00 0.00000000000E+00  1.
       22    1    1    2    0    0  1.12003908594E+01  8.90598343944E+01  2.67751094904E+01  9.36696821068E+01  0.00000000000E+00 0.00000000000E+00  1.
       25    2    1    2    0    0 -1.12003908594E+01 -8.90598343944E+01 -2.67751094904E+01  1.56330317893E+02  1.25160532703E+02 0.00000000000E+00  1.
        5    1    4    4  501    0 -6.61297799481E+01 -5.49310793317E+01 -3.13354414451E+01  9.15012631775E+01  0.00000000000E+00 0.00000000000E+00  1.
       -5    1    4    4    0  501  5.49293890887E+01 -3.41287550627E+01  4.56033195470E+00  6.48290547157E+01  0.00000000000E+00 0.00000000000E+00  1.
</event>
<event>
 6  50   1.0000000E+00   1.2500000E+02   7.8125000E-03   1.2380607E-01
      -11   -1    0    0    0    0  0.00000000000E+00  0.00000000000E+00  1.25000000000E+02  1.25000000000E+02  0.00000000000E+00 0.00000000000E+00  1.
       11   -1    0    0    0    0  0.00000000000E+00  0.00000000000E+00 -1.25000000000E+02  1.25000000000E+02  0.00000000000E+00 0.00000000000E+00  1.
       22    1    1    2    0    0 -5.00374716309E+01 -6.86575397066E+01  3.96404369242E+01  9.37495096804E+01  0.00000000000E+00 0.00000000000E+00  1.
       25    2    1    2    0    0  5.00374716309E+01  6.86575397066E+01 -3.96404369242E+01  1.56250490320E+02  1.25000980635E+02 0.00000000000E+00  1.
        5    1    4    4  501    0 -3.39515298391E+01  3.21118448749E+00  1.41925644085E+01  3.69384213079E+01  0.00000000000E+00 0.00000000000E+00  1.
       -5    1    4    4    0  501  8.39890014700E+01  6.54463552191E+01 -5.38330013326E+01  1.19312069012E+02  0.00000000000E+00 0.00000000000E+00  1.
</event>
<event>
 6  50   1.0000000E+00   1.2500000E+02   7.8125000E-03   1.2380607E-01
      -11   -1    0    0    0    0  0.00000000000E+00  0.00000000000E+00  1.25000000000E+02  1.25000000000E+02  0.00000000000E+00 0.00000000000E+00  1.
       11   -1    0    0    0    0  0.00000000000E+00  0.00000000000E+00 -1.25000000000E+02  1.25000000000E+02  0.00000000000E+00 0.00000000000E+00  1.
       22    1    1    2    0    0 -7.60686496873E+00  7.82975950599E+01 -5.09961568818E+01  9.37495909513E+01  0.00000000000E+00 0.00000000000E+00  1.
       25    2    1    2    0    0  7.60686496873E+00 -7.82975950599E+01  5.09961568818E+01  1.56250409049E+02  1.25000818095E+02 0.00000000000E+00  1.
        5    1    4    4  501    0  4.65341436998E+01 -9.01608517064E+01  1.62793763291E+01  1.02759057041E+02  0.00000000000E+00 0.00000000000E+00  1.
       -5    1    4    4    0  501 -3.89272787311E+01  1.18632566465E+01  3.47167805527E+01  5.34913520077E+01  0.00000000000E+00 0.00000000000E+00  1.
</event>
<event>
 6  50   1.0000000E+00   1.2500000E+02   7.8125000E-03   1.2380607E-01
      -11   -1    0    0    0    0  0.00000000000E+00  0.00000000000E+00  1.25000000000E+02  1.25000000000E+02  0.00000000000E+00 0.00000000000E+00  1.
       11   -1    0    0    0    0  0.00000000000E+00  0.00000000000E+00 -1.25000000000E+02  1.25000000000E+02  0.00000000000E+00 0.00000000000E+00  1.
       22    1    1    2    0    0  6.66112731302E+00 -7.62041985011E+00  9.32040712163E+01  9.37520149494E+01  0.00000000000E+00 0.00000000000E+00  1.
       25    2    1    2    0    0 -6.66112731302E+00  7.62041985011E+00 -9.32040712163E+01  1.56247985051E+02  1.24995970036E+02 0.00000000000E+00  1.
        5    1    4    4  501    0 -4.93028232566E+01  3.14646643242E+01 -8.99385622444E+01  1.07283449146E+02  0.00000000000E+00 0.00000000000E+00  1.
       -5    1    4    4    0  501  4.26416959436E+01 -2.38442444741E+01 -3.26550897191E+00  4.89645359044E+01  0.00000000000E+00 0.00000000000E+00  1.
</event>
<event>
 6  50   1.0000000E+00   1.2500000E+02   7.8125000E-03   1.2380607E-01
      -11   -1    0    0    0    0  0.00000000000E+00  0.00000000000E+00  1.25000000000E+02  1.25000000000E+02  0.00000000000E+00 0.00000000000E+00  1.
       11   -1    0    0    0    0  0.00000000000E+00  0.00000000000E+00 -1.25000000000E+02  1.25000000000E+02  0.00000000000E+00 0.00000000000E+00  1.
       22    1    1    2    0    0 -5.08851544922E+01 -7.56615444475E-01  7.87314643916E+01  9.37470794205E+01  0.00000000000E+00 0.00000000000E+00  1.
       25    2    1    2    0    0  5.08851544922E+01  7.56615444475E-01 -7.87314643916E+01  1.56252920580E+02  1.25005841023E+02 0.00000000000E+00  1.
        5    1    4    4  501    0 -1.94938599108E+00  5.38874610759E+01 -1.05480256097E+01  5.49446941134E+01  0.00000000000E+00 0.00000000000E+00  1.
       -5    1    4    4    0  501  5.28345404833E+01 -5.31308456314E+01 -6.81834387818E+01  1.01308226466E+02  0.00000000000E+00 0.00000000000E+00  1.
</event>
<event>
 6  50   1.0000000E+00   1.2500000E+02   7.8125000E-03   1.2380607E-01
      -11   -1    0    0    0    0  0.00000000000E+00  0.00000000000E+00  1.25000000000E+02  1.25000000000E+02  0.00000000000E+00 0.00000000000E+00  1.
       11   -1    0    0    0    0  0.00000000000E+00  0.00000000000E+00 -1.25000000000E+02  1.25000000000E+02  0.00000000000E+00 0.00000000000E+00  1.
       22    1    1    2    0    0 -5.87490854412E+01  1.86905022329E+01 -7.06277483636E+01  9.37500333483E+01  0.00000000000E+00 0.00000000000E+00  1.
       25    2    1    2    0    0  5.87490854412E+01 -1.86905022329E+01  7.06277483636E+01  1.56249966652E+02  1.24999933303E+02 0.00000000000E+00  1.
        5    1    4    4  501    0  5.85865363527E+01 -4.93103620984E+01  9.14076242252E+01  1.19244487582E+02  0.00000000000E+00 0.00000000000E+00  1.
       -5    1    4    4    0  501  1.62549088454E-01  3.06198598655E+01 -2.07798758616E+01  3.70054790702E+01  0.00000000000E+00 0.00000000000E+00  1.
</event>
<event>
 6  50   1.0000000E+00   1.2500000E+02   7.8125000E-03   1.2380607E-01
      -11   -1    0    0    0    0  0.00000000000E+00  0.00000000000E+00  1.25000000000E+02  1.25000000000E+02  0.00000000000E+00 0.00000000000E+00  1.
       11   -1    0    0    0    0  0.00000000000E+00  0.00000000000E+00 -1.25000000000E+02  1.25000000000E+02  0.00000000000E+00 0.00000000000E+00  1.
       22    1    1    2    0    0  9.79942493646E+00  2.59634177898E+01  8.95480984178E+01  9.37496118533E+01  0.00000000000E+00 0.00000000000E+00  1.
       25    2    1    2    0    0 -9.79942493646E+00 -2.59634177898E+01 -8.95480984178E+01  1.56250388147E+02  1.25000776291E+02 0.00000000000E+00  1.
        5    1    4    4  501    0 -5.22567242744E+00  2.79016408868E+01 -9.75555659956E+01  1.01601661764E+02  0.00000000000E+00 0.00000000000E+00  1.
       -5    1    4    4    0  501 -4.57375250902E+00 -5.38650586765E+01  8.00746757782E+00  5.46487263827E+01  0.00000000000E+00 0.00000000000E+00  1.
</event>
<event>
 6  50   1.0000000E+00   1.2500000E+02   7.8125000E-03   1.2380607E-01
      -11   -1    0    0    0    0  0.00000000000E+00  0.00000000000E+00  1.25000000000E+02  1.25000000000E+02  0.00000000000E+00 0.00000000000E+00  1.
       11   -1    0    0    0    0  0.00000000000E+00  0.00000000000E+00 -1.25000000000E+02  1.25000000000E+02  0.00000000000E+00 0.00000000000E+00  1.
       22    1    1    2    0    0  4.18590587844E+01  1.27173937116E+01 -8.29145953142E+01  9.37482960978E+01  0.00000000000E+00 0.00000000000E+00  1.
       25    2    1    2    0    0 -4.18590587844E+01 -1.27173937116E+01  8.29145953142E+01  1.56251703902E+02  1.25003407758E+02 0.00000000000E+00  1.
        5    1    4    4  501    0  1.58913225549E+01 -5.25972396673E+01  6.23784636854E+01  8.31268698130E+01  0.00000000000E+00 0.00000000000E+00  1.
       -5    1    4    4    0  501 -5.77503813393E+01  3.98798459557E+01  2.05361316289E+01  7.31248340891E+01  0.00000000000E+00 0.00000000000E+00  1.
</event>
<event>
 6  50   1.0000000E+00   1.2500000E+02   7.8125000E-03   1.2380607E-01
      -11   -1    0    0    0    0  0.00000000000E+00  0.00000000000E+00  1.25000000000E+02  1.25000000000E+02  0.00000000000E+00 0.00000000000E+00  1.
       11   -1    0    0    0    0  0.00000000000E+00  0.00000000000E+00 -1.25000000000E+02  1.25000000000E+02  0.00000000000E+00 0.00000000000E+00  1.
       22    1    1    2    0    0 -1.69656295772E+01  7.49359600085E+01 -5.37185031599E+01  9.37491774422E+01  0.00000000000E+00 0.00000000000E+00  1.
       25    2    1    2    0    0  1.69656295772E+01 -7.49359600085E+01  5.37185031599E+01  1.56250822558E+02  1.25001645105E+02 0.00000000000E+00  1.
        5    1    4    4  501    0 -2.72770168856E+00 -3.91887720243E+00  7.83888732764E+01  7.85341544079E+01  0.00000000000E+00 0.00000000000E+00  1.
       -5    1    4    4    0  501  1.96933312658E+01 -7.10170828061E+01 -2.46703701165E+01  7.77166681498E+01  0.00000000000E+00 0.00000000000E+00  1.
</event>
<event>
 6  50   1.0000000E+00   1.2500000E+02   7.8125000E-03   1.2380607E-01
      -11   -1    0    0    0    0  0.00000000000E+00  0.00000000000E+00  1.25000000000E+02  1.25000000000E+02  0.00000000000E+00 0.00000000000E+00  1.
       11   -1    0    0    0    0  0.00000000000E+00  0.00000000000E+00 -1.25000000000E+02  1.25000000000E+02  0.00000000000E+00 0.00000000000E+00  1.
       22    1    1    2    0    0  4.29847401730E+01  1.38400054182E+01  8.21552460026E+01  9.37481630938E+01  0.00000000000E+00 0.00000000000E+00  1.
       25    2    1    2    0    0 -4.29847401730E+01 -1.38400054182E+01 -8.21552460026E+01  1.56251836906E+02  1.25003673758E+02 0.00000000000E+00  1.
        5    1    4    4  501    0  1.40200073121E+01 -1.47652213282E+01  2.65765863255E+01  3.34796551150E+01  0.00000000000E+00 0.00000000000E+00  1.
       -5    1    4    4    0  501 -5.70047474851E+01  9.25215909975E-01 -1.08731832328E+02  1.22772181791E+02  0.00000000000E+00 0.00000000000E+00  1.
</event>
<event>
 6  50   1.0000000E+00   1.2500000E+02   7.8125000E-03   1.2380607E-01
      -11   -1    0    0    0    0  0.00000000000E+00  0.00000000000E+00  1.25000000000E+02  1.25000000000E+02  0.00000000000E+00 0.00000000000E+00  1.
       11   -1    0    0    0    0  0.00000000000E+00  0.00000000000E+00 -1.25000000000E+02  1.25000000000E+02  0.00000000000E+00 0.00000000000E+00  1.
       22    1    1    2    0    0  7.82436800728E+01  2.09145472246E+01 -4.72171681354E+01  9.37494145244E+01  0.00000000000E+00 0.00000000000E+00  1.
       25    2    1    2    0    0 -7.82436800728E+01 -2.09145472246E+01  4.72171681354E+01  1.56250585476E+02  1.25001170946E+02 0.00000000000E+00  1.
        5    1    4    4  501    0 -7.07628253265E+01  4.37278028185E+01  3.39120544495E+01  8.98305383737E+01  0.00000000000E+00 0.00000000000E+00  1.
       -5    1    4    4    0  501 -7.48085474631E+00 -6.46423500431E+01  1.33051136859E+01  6.64200471019E+01  0.00000000000E+00 0.00000000000E+00  1.
</event>
<event>
 6  50   1.0000000E+00   1.2500000E+02   7.8125000E-03   1.2380607E-01
      -11   -1    0    0    0    0  0.00000000000E+00  0.00000000000E+00  1.25000000000E+02  1.25000000000E+02  0.00000000000E+00 0.00000000000E+00  1.
       11   -1    0    0    0    0  0.00000000000E+00  0.00000000000E+00 -1.25000000000E+02  1.25000000000E+02  0.00000000000E+00 0.00000000000E+00  1.
       22    1    1    2    0    0  1.84353606338E+01 -9.05337544328E+01 -1.59068027313E+01  9.37509977895E+01  0.00000000000E+00 0.00000000000E+00  1.
       25    2    1    2    0    0 -1.84353606338E+01  9.05337544328E+01  1.59068027313E+01  1.56249002210E+02  1.24998004405E+02 0.00000000000E+00  1.
        5    1    4    4  501    0  1.31800044995E+01  5.45543148726E+01 -4.97357343501E+01  7.49901930999E+01  0.00000000000E+00 0.00000000000E+00  1.
       -5    1    4    4    0  501 -3.16153651333E+01  3.59794395602E+01  6.56425370814E+01  8.12588091105E+01  0.00000000000E+00 0.00000000000E+00  1.
</event>
<event>
 6  50   1.0000000E+00   1.2500000E+02   7.8125000E-03   1.2380607E-01
      -11   -1    0    0    0    0  0.00000000000E+00  0.00000000000E+00  1.25000000000E+02  1.25000000000E+02  0.00000000000E+00 0.00000000000E+00  1.
       11   -1    0    0    0    0  0.00000000000E+00  0.00000000000E+00 -1.25000000000E+02  1.25000000000E+02  0.00000000000E+00 0.00000000000E+00  1.
       22    1    1    2    0    0 -1.53264451184E+01 -9.12570827462E+01 -1.50449702627E+01  9.37502330745E+01  0.00000000000E+00 0.00000000000E+00  1.
       25    2    1    2    0    0  1.53264451184E+01  9.12570827462E+01  1.50449702627E+01  1.56249766925E+02  1.24999533850E+02 0.00000000000E+00  1.
        5    1    4    4  501    0 -3.60448308284E+01  9.24464203364E+01 -8.77519892836E+00  9.96121206415E+01  0.00000000000E+00 0.00000000000E+00  1.
       -5    1    4    4    0  501  5.13712759468E+01 -1.18933759013E+00  2.38201691910E+01  5.66376462840E+01  0.00000000000E+00 0.00000000000E+00  1.
</event>
<event>
 6  50   1.0000000E+00   1.2500000E+02   7.8125000E-03   1.2380607E-01
      -11   -1    0    0    0    0  0.00000000000E+00  0.00000000000E+00  1.25000000000E+02  1.25000000000E+02  0.00000000000E+00 0.00000000000E+00  1.
       11   -1    0    0    0    0  0.00000000000E+00  0.00000000000E+00 -1.25000000000E+02  1.25000000000E+02  0.00000000000E+00 0.00000000000E+00  1.
       22    1    1    2    0    0 -2.84995681051E+01  6.71040987327E+01  5.89387298405E+01  9.37494497270E+01  0.00000000000E+00 0.00000000000E+00  1.
       25    2    1    2    0    0  2.84995681051E+01 -6.71040987327E+01 -5.89387298405E+01  1.56250550273E+02  1.25001100541E+02 0.00000000000E+00  1.
        5    1    4    4  501    0  6.03243981715E-01 -5.35865277389E+01 -9.47691248188E+01  1.08871791008E+02  0.00000000000E+00 0.00000000000E+00  1.
       -5    1    4    4    0  501  2.78963241234E+01 -1.35175709938E+01  3.58303949783E+01  4.73787592648E+01  0.00000000000E+00 0.00000000000E+00  1.
</event>
<event>
 6  50   1.0000000E+00   1.2500000E+02   7.8125000E-03   1.2380607E-01
      -11   -1    0    0    0    0  0.00000000000E+00  0.00000000000E+00  1.25000000000E+02  1.25000000000E+02  0.00000000000E+00 0.00000000000E+00  1.
       11   -1    0    0    0    0  0.00000000000E+00  0.00000000000E+00 -1.25000000000E+02  1.25000000000E+02  0.00000000000E+00 0.00000000000E+00  1.
       22    1    1    2    0    0  5.09763453971E+01  6.41979221774E+01  4.54886561327E+01  9.37506204710E+01  0.00000000000E+00 0.00000000000E+00  1.
       25    2    1    2    0    0 -5.09763453971E+01 -6.41979221774E+01 -4.54886561327E+01  1.56249379529E+02  1.24998759052E+02 0.00000000000E+00  1.
        5    1    4    4  501    0 -6.41280991098E+01 -4.01431809826E+00 -6.52283724378E+01  9.15601901271E+01  0.00000000000E+00 0.00000000000E+00  1.
       -5    1    4    4    0  501  1.31517537127E+01 -6.01836040791E+01  1.97397163051E+01  6.46891894019E+01  0.00000000000E+00 0.00000000000E+00  1.
</event>
</LesHouchesEvents>
