<LesHouchesEvents version="1.0">
<!--
Output from the JHUGenerator v7.5.1 described in arXiv:1001.3396 [hep-ph], arXiv:1208.4018 [hep-ph], arXiv:1309.4819 [hep-ph], arXiv:1606.03107 [hep-ph]
   
   Command line: ./JHUGen Seed=765543533 VegasNc0=100000 ReadLHE=compare_to_reference/gg_bbH.lhe DataFile=compare_to_reference/gg_bbH_tautau TauDK=0 ghg2=0.383432074687728,0.918260989345657 ghg3=6294.49296087723,2253.12941717723 ghg4=0.335495485382528,0.17285803562226 ghz1=0.154934976270359,0.453918144016304 ghz2=0.469297059144414,0.745302300947002 ghz3=3947.40921062637,3597.4885961919 ghz4=0.177791270766536,0.920170534486048 ghzgs2=0.0240331049939919,0.232175381101053 ghzgs3=0.331962910170583,0.0450183240308457 ghzgs4=0.808286540247172,0.133184346613754 ghgsgs2=0.530394804029869,0.211218112389125 ghgsgs3=0.914978695198138,0.055650585081425 ghgsgs4=0.694524307167701,0.511424456076726 ghz1_prime=0.143354267833606,0.0910761280837012 ghz1_prime2=7416.7007267243,4861.35525489789 ghz1_prime3=4431.44656075298,4436.48625894176 ghz1_prime4=2441.69123517064,6946.16318931911 ghz1_prime5=78314042.889773,69465359.939181 ghz1_prime6=51233058.8130761,29537873.5850789 ghz1_prime7=47832192.9001564,59559649.9633293 ghz
   
   Input Parameter:
    Collider: P-P, sqrt(s)=13000.00
    Resonance: spin=0, mass= 125.00 width=   0.00407
               (This is ReadLHEFile mode. Resonance mass/width are read from LHE input parameters.)
    Random seed:   765543533
    To reproduce results using this seed, JHUGen should be compiled with the same compiler:
      GNU Fortran (GCC) 6.3.0
    Interference: T
    Intermediate off-shell photons: F
    
    spin-0-ff couplings: 
      kappa=  0.68931060E+00  0.64979173E+00i
      kappa_tilde=  0.20205949E+00  0.39840175E+00i
    
    LHE output: compare_to_reference/gg_bbH_tautau.lhe
    Histogram output: compare_to_reference/gg_bbH_tautau.dat
    Log file: compare_to_reference/gg_bbH_tautau.log
    LHE input: compare_to_reference/gg_bbH.lhe
    

Output from the JHUGenerator v7.5.1 described in arXiv:1001.3396 [hep-ph], arXiv:1208.4018 [hep-ph], arXiv:1309.4819 [hep-ph], arXiv:1606.03107 [hep-ph]

   Command line: ./JHUGen Seed=765543533 PDFSet=3 Process=90 VegasNc0=100000 VegasNc2=10 DataFile=compare_to_reference/gg_bbH PChannel=0 ghg2=0.383432074687728,

   Input Parameter:
    Collider: P-P, sqrt(s)=13000.00
    Resonance: spin=0, mass= 125.00 width=   0.00407
    Bottom quark mass=  4.7500
    Jet cuts:
            pT >=    15.00 GeV
        DeltaR >=     0.30
           mJJ >=     0.00 GeV
    Random seed:   765543533
    To reproduce results using this seed, JHUGen should be compiled with the same compiler:
      GNU Fortran (GCC) 6.3.0

    WidthScheme:   2
    PChannel: 0
    PDFSet:   3
    Unweighted: T

    spin-0-ff couplings:
      kappa=  0.68931060E+00  0.64979173E+00i
      kappa_tilde=  0.20205949E+00  0.39840175E+00i

    LHE output: compare_to_reference/gg_bbH.lhe
    Histogram output: compare_to_reference/gg_bbH.dat
    Log file: compare_to_reference/gg_bbH.log

-->
<init>
2212 2212   6500.0000000000000000    6500.0000000000000000 0 0  263000  263000  3  1
 1.0000000E+00  1.0000000E+14  1.0000000E+00  90
</init>
<event>
 7  90   1.0000000E+00   6.7250000E+01   7.8125000E-03   1.3660097E-01
       21   -1    0    0  501  510  0.00000000000E+00  0.00000000000E+00  1.18511423575E+03  1.18511423575E+03  0.00000000000E+00  0.00000000000E+00  1.
       21   -1    0    0  510  502  0.00000000000E+00  0.00000000000E+00 -1.15621786722E+01  1.15621786722E+01  0.00000000000E+00  0.00000000000E+00  1.
       25    2    1    2    0    0  3.96284838093E+01  6.69715757342E+00  1.05331646525E+03  1.06146872050E+03  1.25000000000E+02  0.00000000000E+00  1.
       -5    1    1    2    0  502 -1.69998169042E+01 -1.64854742732E+01  1.00244349003E+02  1.03112834525E+02  4.75000000000E+00  0.00000000000E+00  1.
        5    1    1    2  501    0 -2.26286669051E+01  9.78831669983E+00  1.99912428311E+01  3.20948593960E+01  4.75000000000E+00  0.00000000000E+00  1.
      -15    1    3    3    0    0  6.33371483478E+01  5.06500047259E+01  6.22044059235E+02  6.27310916522E+02  1.77680000002E+00  0.00000000000E+00  1.
       15    1    3    3    0    0 -2.37086645385E+01 -4.39528471525E+01  4.31272406015E+02  4.34157803978E+02  1.77680000000E+00  0.00000000000E+00  1.
</event>
<event>
 7  90   1.0000000E+00   6.7250000E+01   7.8125000E-03   1.3660097E-01
       21   -1    0    0  501  510  0.00000000000E+00  0.00000000000E+00  3.37886798738E+01  3.37886798738E+01  0.00000000000E+00  0.00000000000E+00  1.
       21   -1    0    0  510  502  0.00000000000E+00  0.00000000000E+00 -5.09730171700E+02  5.09730171700E+02  0.00000000000E+00  0.00000000000E+00  1.
       25    2    1    2    0    0 -8.86587522531E+00  7.10141002871E+01 -4.29007980656E+02  4.52542212009E+02  1.25000000000E+02  0.00000000000E+00  1.
       -5    1    1    2    0  502  1.52673658981E+01 -4.85861902858E+01 -4.30596439051E+01  6.68610931798E+01  4.75000000000E+00  0.00000000000E+00  1.
        5    1    1    2  501    0 -6.40149067282E+00 -2.24279100012E+01 -3.87386726457E+00  2.41155463849E+01  4.75000000000E+00  0.00000000000E+00  1.
      -15    1    3    3    0    0  7.28831142952E+00  6.14088286632E+01 -4.29227546517E+02  4.33663011368E+02  1.77680000001E+00  0.00000000000E+00  1.
       15    1    3    3    0    0 -1.61541866548E+01  9.60527162394E+00  2.19565860935E-01  1.88792006413E+01  1.77680000000E+00  0.00000000000E+00  1.
</event>
<event>
 7  90   1.0000000E+00   6.7250000E+01   7.8125000E-03   1.3660097E-01
       21   -1    0    0  501  510  0.00000000000E+00  0.00000000000E+00  1.03706306762E+02  1.03706306762E+02  0.00000000000E+00  0.00000000000E+00  1.
       21   -1    0    0  510  502  0.00000000000E+00  0.00000000000E+00 -1.17276728499E+02  1.17276728499E+02  0.00000000000E+00  0.00000000000E+00  1.
       25    2    1    2    0    0  3.93896622390E+00 -9.45851404446E+00 -4.70318842044E+01  1.33947665432E+02  1.25000000000E+02  0.00000000000E+00  1.
       -5    1    1    2    0  502 -1.58991086152E+01 -8.87848449324E-01 -2.29062361781E+01  2.82989060826E+01  4.75000000000E+00  0.00000000000E+00  1.
        5    1    1    2  501    0  1.19601423913E+01  1.03463624938E+01  5.63676986452E+01  5.87364637463E+01  4.75000000000E+00  0.00000000000E+00  1.
      -15    1    3    3    0    0 -4.05058620330E+01 -7.53567018060E+00 -7.19473966482E+01  8.29282586745E+01  1.77680000000E+00  0.00000000000E+00  1.
       15    1    3    3    0    0  4.44448282569E+01 -1.92284386386E+00  2.49155124438E+01  5.10194067575E+01  1.77680000000E+00  0.00000000000E+00  1.
</event>
<event>
 7  90   1.0000000E+00   6.7250000E+01   7.8125000E-03   1.3660097E-01
       21   -1    0    0  501  510  0.00000000000E+00  0.00000000000E+00  7.87613604263E+02  7.87613604263E+02  0.00000000000E+00  0.00000000000E+00  1.
       21   -1    0    0  510  502  0.00000000000E+00  0.00000000000E+00 -4.43219037693E+02  4.43219037693E+02  0.00000000000E+00  0.00000000000E+00  1.
       25    2    1    2    0    0  2.05376827136E+01 -1.40731202170E+02  2.68627383782E+02  3.28652915692E+02  1.25000000000E+02  0.00000000000E+00  1.
       -5    1    1    2    0  502 -1.36400475219E+01 -3.45856084488E+01  4.69554500811E+02  4.71047987937E+02  4.75000000000E+00  0.00000000000E+00  1.
        5    1    1    2  501    0 -6.89763519170E+00  1.75316810619E+02 -3.93787318023E+02  4.31131738326E+02  4.75000000000E+00  0.00000000000E+00  1.
      -15    1    3    3    0    0 -5.06391927726E+01 -3.69316438869E+01  7.56965277800E+01  9.82923979819E+01  1.77680000000E+00  0.00000000000E+00  1.
       15    1    3    3    0    0  7.11768754862E+01 -1.03799558283E+02  1.92930856002E+02  2.30360517710E+02  1.77680000000E+00  0.00000000000E+00  1.
</event>
<event>
 7  90   1.0000000E+00   6.7250000E+01   7.8125000E-03   1.3660097E-01
       21   -1    0    0  501  510  0.00000000000E+00  0.00000000000E+00  1.62177369557E+03  1.62177369557E+03  0.00000000000E+00  0.00000000000E+00  1.
       21   -1    0    0  510  502  0.00000000000E+00  0.00000000000E+00 -3.17832318697E+01  3.17832318697E+01  0.00000000000E+00  0.00000000000E+00  1.
       25    2    1    2    0    0  2.87749288283E+01 -2.73342890377E+01  8.06291019639E+02  8.16887610530E+02  1.25000000000E+02  0.00000000000E+00  1.
       -5    1    1    2    0  502 -3.09730440682E+01 -2.60583329994E+00 -1.67612715722E+01  3.56317632282E+01  4.75000000000E+00  0.00000000000E+00  1.
        5    1    1    2  501    0  2.19811523990E+00  2.99401223377E+01  8.00460715634E+02  8.01037553683E+02  4.75000000000E+00  0.00000000000E+00  1.
      -15    1    3    3    0    0  5.88310658209E+01 -2.64557315865E+01  7.52300542712E+02  7.55063085856E+02  1.77680000000E+00  0.00000000000E+00  1.
       15    1    3    3    0    0 -3.00561369926E+01 -8.78557451164E-01  5.39904769267E+01  6.18245246737E+01  1.77680000000E+00  0.00000000000E+00  1.
</event>
<event>
 7  90   1.0000000E+00   6.7250000E+01   7.8125000E-03   1.3660097E-01
       21   -1    0    0  501  510  0.00000000000E+00  0.00000000000E+00  1.37353219448E+02  1.37353219448E+02  0.00000000000E+00  0.00000000000E+00  1.
       21   -1    0    0  510  502  0.00000000000E+00  0.00000000000E+00 -7.42478201637E+01  7.42478201637E+01  0.00000000000E+00  0.00000000000E+00  1.
       25    2    1    2    0    0 -3.31221627914E+01 -1.89327714705E+01  5.58730119164E+01  1.42134868924E+02  1.25000000000E+02  0.00000000000E+00  1.
       -5    1    1    2    0  502 -1.42757682822E+01  1.17974735526E+01 -5.01660707040E+00  1.97663043781E+01  4.75000000000E+00  0.00000000000E+00  1.
        5    1    1    2  501    0  4.73979310735E+01  7.13529791792E+00  1.22489944388E+01  4.96998663096E+01  4.75000000000E+00  0.00000000000E+00  1.
      -15    1    3    3    0    0 -6.26748101698E+01 -4.71558196711E+01  6.29971163812E+01  1.00616086434E+02  1.77680000000E+00  0.00000000000E+00  1.
       15    1    3    3    0    0  2.95526473784E+01  2.82230482006E+01 -7.12410446482E+00  4.15187824902E+01  1.77680000000E+00  0.00000000000E+00  1.
</event>
<event>
 7  90   1.0000000E+00   6.7250000E+01   7.8125000E-03   1.3660097E-01
       21   -1    0    0  501  510  0.00000000000E+00  0.00000000000E+00  1.14663726278E+02  1.14663726278E+02  0.00000000000E+00  0.00000000000E+00  1.
       21   -1    0    0  510  502  0.00000000000E+00  0.00000000000E+00 -2.09903407126E+03  2.09903407126E+03  0.00000000000E+00  0.00000000000E+00  1.
       25    2    1    2    0    0  9.11704705014E+01 -1.44207464057E+01 -3.62558323142E+02  3.94453483059E+02  1.25000000000E+02  0.00000000000E+00  1.
       -5    1    1    2    0  502 -3.31663563045E+01 -3.65486221811E+01  9.15619282486E+01  1.04124724146E+02  4.75000000000E+00  0.00000000000E+00  1.
        5    1    1    2  501    0 -5.80041141969E+01  5.09693685868E+01 -1.71337395009E+03  1.71511959034E+03  4.75000000000E+00  0.00000000000E+00  1.
      -15    1    3    3    0    0  9.75190977826E+01  2.77054827533E+01 -3.13326929699E+02  3.29324293212E+02  1.77679999999E+00  0.00000000000E+00  1.
       15    1    3    3    0    0 -6.34862728124E+00 -4.21262291590E+01 -4.92313934430E+01  6.51291898468E+01  1.77680000000E+00  0.00000000000E+00  1.
</event>
<event>
 7  90   1.0000000E+00   6.7250000E+01   7.8125000E-03   1.3660097E-01
       21   -1    0    0  501  510  0.00000000000E+00  0.00000000000E+00  1.28670247771E+02  1.28670247771E+02  0.00000000000E+00  0.00000000000E+00  1.
       21   -1    0    0  510  502  0.00000000000E+00  0.00000000000E+00 -1.14532919331E+02  1.14532919331E+02  0.00000000000E+00  0.00000000000E+00  1.
       25    2    1    2    0    0 -1.89510859583E+01  5.08135016145E+01  1.45511654527E+01  1.37032448790E+02  1.25000000000E+02  0.00000000000E+00  1.
       -5    1    1    2    0  502  3.78033542006E+00 -4.37815638552E+01  4.16030719124E+01  6.07000359312E+01  4.75000000000E+00  0.00000000000E+00  1.
        5    1    1    2  501    0  1.51707505382E+01 -7.03193775922E+00 -4.20169089249E+01  4.54706823805E+01  4.75000000000E+00  0.00000000000E+00  1.
      -15    1    3    3    0    0 -4.67183691176E+01 -7.94319837938E+00  4.48818568678E+01  6.52934798249E+01  1.77680000000E+00  0.00000000000E+00  1.
       15    1    3    3    0    0  2.77672831593E+01  5.87566999939E+01 -3.03306914151E+01  7.17389689651E+01  1.77680000000E+00  0.00000000000E+00  1.
</event>
<event>
 7  90   1.0000000E+00   6.7250000E+01   7.8125000E-03   1.3660097E-01
       21   -1    0    0  501  510  0.00000000000E+00  0.00000000000E+00  1.59773319095E+02  1.59773319095E+02  0.00000000000E+00  0.00000000000E+00  1.
       21   -1    0    0  510  502  0.00000000000E+00  0.00000000000E+00 -1.38099446311E+02  1.38099446311E+02  0.00000000000E+00  0.00000000000E+00  1.
       25    2    1    2    0    0 -2.65362728406E+01  3.28658460866E+00 -8.54702271075E+01  1.53769747143E+02  1.25000000000E+02  0.00000000000E+00  1.
       -5    1    1    2    0  502  3.23311025670E+00 -1.61630500666E+01  1.14737518411E+02  1.16012748526E+02  4.75000000000E+00  0.00000000000E+00  1.
        5    1    1    2  501    0  2.33031625839E+01  1.28764654579E+01 -7.59341851980E+00  2.80902697374E+01  4.75000000000E+00  0.00000000000E+00  1.
      -15    1    3    3    0    0  1.02443948639E+01 -4.34282677490E+01 -8.29820847675E+01  9.42345238031E+01  1.77680000000E+00  0.00000000000E+00  1.
       15    1    3    3    0    0 -3.67806677045E+01  4.67148523576E+01 -2.48814234000E+00  5.95352233399E+01  1.77680000000E+00  0.00000000000E+00  1.
</event>
<event>
 7  90   1.0000000E+00   6.7250000E+01   7.8125000E-03   1.3660097E-01
       21   -1    0    0  501  510  0.00000000000E+00  0.00000000000E+00  9.88493093157E+01  9.88493093157E+01  0.00000000000E+00  0.00000000000E+00  1.
       21   -1    0    0  510  502  0.00000000000E+00  0.00000000000E+00 -2.19187308431E+02  2.19187308431E+02  0.00000000000E+00  0.00000000000E+00  1.
       25    2    1    2    0    0 -7.58333158008E+01  3.92834986213E+01 -4.66836657603E+01  1.58424271177E+02  1.25000000000E+02  0.00000000000E+00  1.
       -5    1    1    2    0  502  7.16736014952E+01  1.75603428735E+01 -7.07572390728E+01  1.02345591866E+02  4.75000000000E+00  0.00000000000E+00  1.
        5    1    1    2  501    0  4.15971430556E+00 -5.68438414948E+01 -2.89709428205E+00  5.72667547035E+01  4.75000000000E+00  0.00000000000E+00  1.
      -15    1    3    3    0    0  3.05034122827E+01 -1.21972295530E+01 -1.45702417770E+01  3.59816555114E+01  1.77680000000E+00  0.00000000000E+00  1.
       15    1    3    3    0    0 -1.06336728084E+02  5.14807281743E+01 -3.21134239833E+01  1.22442615666E+02  1.77680000000E+00  0.00000000000E+00  1.
</event>
</LesHouchesEvents>
