<LesHouchesEvents version="1.0">
<!--
Output from the JHUGenerator v7.4.1 described in arXiv:1001.3396 [hep-ph], arXiv:1208.4018 [hep-ph], arXiv:1309.4819 [hep-ph], arXiv:1606.03107 [hep-ph]
   
   Command line: ./JHUGen Seed=765543533 PDFSet=3 Process=2 PChannel=0 VegasNc0=100000 VegasNc2=100 DataFile=compare_to_reference/gg_spin2_ZZ DecayMode1=9 DecayMode2=9 a1=0.937975757145835,0.0862675302011808 a2=0.525646610895282,0.270023242162833 a3=0.828619106655766,0.907278117187348 a4=0.853796956695806,0.883046297308361 a5=0.196874483378909,0.400008066791416 graviton_qq_left=0.5049181979003,0.327360285207962 graviton_qq_right=0.474004828998714,0.337826183822731 b1=0.773894454518313,0.356509253551872 b2=0.611963485285581,0.517604060575373 b3=0.517046784436693,0.278595934220158 b4=0.498002413656408,0.719085874763941 b5=0.37181772187872,0.255137246282311 b6=0.497431828513849,0.714324156704701 b7=0.131774490564963,0.238483964950039 b8=0.312064180125662,0.479555186522064 b9=0.221471678113706,0.976703560709093 b10=0.907566021052922,0.940674709510495
   
   Input Parameter:
    Collider: P-P, sqrt(s)=13000.00
    Resonance: spin=2, mass= 125.00 width=   0.00407
    DecayMode1: 9  DecayMode2: 9
    Z boson: mass=91.188, width=2.4952
    Random seed:   765543533
    To reproduce results using this seed, JHUGen should be compiled with the same compiler:
      GNU Fortran (GCC) 6.3.0
    
    OffXVV: TTT
    WidthScheme:   2
    PChannel: 0
    PDFSet:   3
    Unweighted: T
    Interference: T
    Intermediate off-shell photons: F
    
    Spin-2-VV couplings: 
      generate_bis=T
      use_dynamic_MG=T
      a1 =  0.93797576E+00  0.86267530E-01i
      a2 =  0.52564661E+00  0.27002324E+00i
      a3 =  0.82861911E+00  0.90727812E+00i
      a4 =  0.85379696E+00  0.88304630E+00i
      a5 =  0.19687448E+00  0.40000807E+00i
      b1 =  0.77389445E+00  0.35650925E+00i
      b2 =  0.61196349E+00  0.51760406E+00i
      b3 =  0.51704678E+00  0.27859593E+00i
      b4 =  0.49800241E+00  0.71908587E+00i
      b5 =  0.37181772E+00  0.25513725E+00i
      b6 =  0.49743183E+00  0.71432416E+00i
      b7 =  0.13177449E+00  0.23848396E+00i
      b8 =  0.31206418E+00  0.47955519E+00i
      b9 =  0.22147168E+00  0.97670356E+00i
      b10=  0.90756602E+00  0.94067471E+00i
    
    LHE output: compare_to_reference/gg_spin2_ZZ.lhe
    Histogram output: compare_to_reference/gg_spin2_ZZ.dat
    Log file: compare_to_reference/gg_spin2_ZZ.log
    
-->
<init>
2212 2212   6500.0000000000000000    6500.0000000000000000 0 0  263000  263000  3  1
 6.5887275E+08  6.4202163E+06  1.0000000E+00   2
</init>
<event>
 9   2   1.0000000E+00   6.2499681E+01   7.8125000E-03   1.3828951E-01
       21   -1    0    0  501  502  0.00000000000E+00  0.00000000000E+00  6.86218240780E+00  6.86218240780E+00  0.00000000000E+00  0.00000000000E+00  1.
       21   -1    0    0  502  501  0.00000000000E+00  0.00000000000E+00 -5.69237298451E+02  5.69237298451E+02  0.00000000000E+00  0.00000000000E+00  1.
       39    2    1    2    0    0  0.00000000000E+00  5.32907051820E-15 -5.62375116043E+02  5.76099480859E+02  1.24999362803E+02  0.00000000000E+00  1.
       23    2    3    3    0    0 -1.56410894816E+01  8.58328762216E+00 -4.01212775308E+02  4.12510339128E+02  9.42060099477E+01  0.00000000000E+00  1.
       23    2    3    3    0    0  1.56410894816E+01 -8.58328762216E+00 -1.61162340735E+02  1.63589141731E+02  2.16746560414E+01  0.00000000000E+00  1.
        2    1    4    4  803    0 -8.94331318656E+00 -3.96599493816E+01 -2.59397750216E+02  2.62564444000E+02  0.00000000000E+00  0.00000000000E+00  1.
       -2    1    4    4    0  803 -6.69777629505E+00  4.82432370038E+01 -1.41815025092E+02  1.49945895228E+02  2.69739830470E-06  0.00000000000E+00  1.
        4    1    5    5  804    0  1.61552461964E+01  2.30391692910E+00 -1.13863354573E+02  1.15033860895E+02  1.27500000000E+00  0.00000000000E+00  1.
       -4    1    5    5    0  804 -5.14156714788E-01 -1.08872045513E+01 -4.72989861618E+01  4.85552808353E+01  1.27500000000E+00  0.00000000000E+00  1.
</event>
<event>
 9   2   1.0000000E+00   6.2495504E+01   7.8125000E-03   1.3829106E-01
       21   -1    0    0  501  502  0.00000000000E+00  0.00000000000E+00  3.67188643496E+00  3.67188643496E+00  0.00000000000E+00  0.00000000000E+00  1.
       21   -1    0    0  502  501  0.00000000000E+00  0.00000000000E+00 -1.06367343782E+03  1.06367343782E+03  0.00000000000E+00  0.00000000000E+00  1.
       39    2    1    2    0    0  3.55271367880E-15 -8.88178419700E-16 -1.06000155139E+03  1.06734532426E+03  1.24991008758E+02  0.00000000000E+00  1.
       23    2    3    3    0    0  1.57743996217E+01  2.03517472011E+00 -5.19244137661E+01  5.50820132180E+01  9.21465222556E+00  0.00000000000E+00  1.
       23    2    3    3    0    0 -1.57743996217E+01 -2.03517472011E+00 -1.00807713762E+03  1.01226331104E+03  9.05788157452E+01  0.00000000000E+00  1.
        3    1    4    4  803    0  1.49979128177E+01  1.47872618294E+00 -3.47032014771E+01  3.78343259533E+01  0.00000000000E+00  0.00000000000E+00  1.
       -3    1    4    4    0  803  7.76486803958E-01  5.56448537176E-01 -1.72212122890E+01  1.72476873648E+01  0.00000000000E+00  0.00000000000E+00  1.
        4    1    5    5  804    0 -2.76265695776E+01  3.96954983569E+01 -5.63331964231E+02  5.65405595556E+02  1.27500000002E+00  0.00000000000E+00  1.
       -4    1    5    5    0  804  1.18521699560E+01 -4.17306730770E+01 -4.44745173391E+02  4.46857715484E+02  1.27499999998E+00  0.00000000000E+00  1.
</event>
<event>
 9   2   1.0000000E+00   6.2501830E+01   7.8125000E-03   1.3828870E-01
       21   -1    0    0  501  502  0.00000000000E+00  0.00000000000E+00  1.25815984264E+01  1.25815984264E+01  0.00000000000E+00  0.00000000000E+00  1.
       21   -1    0    0  502  501  0.00000000000E+00  0.00000000000E+00 -3.10491452575E+02  3.10491452575E+02  0.00000000000E+00  0.00000000000E+00  1.
       39    2    1    2    0    0  0.00000000000E+00 -1.77635683940E-15 -2.97909854149E+02  3.23073051002E+02  1.25003660284E+02  0.00000000000E+00  1.
       23    2    3    3    0    0 -4.09337069152E+00 -6.50951826541E+00 -1.62431015156E+01  2.95219476257E+01  2.34217320688E+01  0.00000000000E+00  1.
       23    2    3    3    0    0  4.09337069152E+00  6.50951826541E+00 -2.81666752633E+02  2.93551103376E+02  8.23223010041E+01  0.00000000000E+00  1.
       14    1    4    4    0    0 -3.77313233206E-02 -1.51243182299E+01 -1.02743521819E+01  1.82841117364E+01  0.00000000000E+00  0.00000000000E+00  1.
      -14    1    4    4    0    0 -4.05563936820E+00  8.61479996454E+00 -5.96874933364E+00  1.12378360893E+01  0.00000000000E+00  0.00000000000E+00  1.
        2    1    5    5  804    0  8.83681952357E-01 -1.85052390630E+01 -1.06617877769E+01  2.13751839628E+01  4.65679764381E-06  0.00000000000E+00  1.
       -2    1    5    5    0  804  3.20968873916E+00  2.50147573284E+01 -2.71004964857E+02  2.72175919613E+02  3.81469726562E-06  0.00000000000E+00  1.
</event>
<event>
 9   2   1.0000000E+00   6.2498116E+01   7.8125000E-03   1.3829009E-01
       21   -1    0    0  501  502  0.00000000000E+00  0.00000000000E+00  5.11329269598E+02  5.11329269598E+02  0.00000000000E+00  0.00000000000E+00  1.
       21   -1    0    0  502  501  0.00000000000E+00  0.00000000000E+00 -7.63894181610E+00  7.63894181610E+00  0.00000000000E+00  0.00000000000E+00  1.
       39    2    1    2    0    0  3.55271367880E-15 -5.32907051820E-15  5.03690327782E+02  5.18968211414E+02  1.24996232572E+02  0.00000000000E+00  1.
       23    2    3    3    0    0 -2.11078161914E+01  2.82306956168E-01  4.32760725521E+02  4.42929172622E+02  9.19716630525E+01  0.00000000000E+00  1.
       23    2    3    3    0    0  2.11078161914E+01 -2.82306956168E-01  7.09296022613E+01  7.60390387924E+01  1.74730461552E+01  0.00000000000E+00  1.
       12    1    4    4    0    0 -3.06283931511E+01  1.78880221699E+01  4.13934480313E+02  4.15451361629E+02  7.62939453125E-06  0.00000000000E+00  1.
      -12    1    4    4    0    0  9.52057695966E+00 -1.76057152138E+01  1.88262452073E+01  2.74778111926E+01  3.67040737113E-06  0.00000000000E+00  1.
       16    1    5    5    0    0  5.50224253740E+00  8.00741520320E+00  2.64467161426E+01  2.81748499826E+01  0.00000000000E+00  0.00000000000E+00  1.
      -16    1    5    5    0    0  1.56055736540E+01 -8.28972215936E+00  4.44828861187E+01  4.78641889099E+01  0.00000000000E+00  0.00000000000E+00  1.
</event>
<event>
 9   2   1.0000000E+00   6.2500255E+01   7.8125000E-03   1.3828929E-01
       21   -1    0    0  501  502  0.00000000000E+00  0.00000000000E+00  1.09621359516E+01  1.09621359516E+01  0.00000000000E+00  0.00000000000E+00  1.
       21   -1    0    0  502  501  0.00000000000E+00  0.00000000000E+00 -3.56343135546E+02  3.56343135546E+02  0.00000000000E+00  0.00000000000E+00  1.
       39    2    1    2    0    0  1.77635683940E-15  0.00000000000E+00 -3.45380999594E+02  3.67305271498E+02  1.25000510356E+02  0.00000000000E+00  1.
       23    2    3    3    0    0 -5.32642810327E+00 -1.87088581706E+01 -9.34907136582E+01  9.84595365367E+01  2.39869669681E+01  0.00000000000E+00  1.
       23    2    3    3    0    0  5.32642810327E+00  1.87088581706E+01 -2.51890285936E+02  2.68845734961E+02  9.19288901665E+01  0.00000000000E+00  1.
        1    1    4    4  803    0 -1.39917122132E+01 -6.12602908468E+00 -3.95494656621E+01  4.23964205701E+01  0.00000000000E+00  0.00000000000E+00  1.
       -1    1    4    4    0  803  8.66528410992E+00 -1.25828290859E+01 -5.39412479961E+01  5.60631159666E+01  0.00000000000E+00  0.00000000000E+00  1.
        5    1    5    5  804    0 -1.77068666674E+01 -1.39657548515E+01 -1.27454591582E+01  2.63359956125E+01  4.75000000000E+00  0.00000000000E+00  1.
       -5    1    5    5    0  804  2.30332947706E+01  3.26746130221E+01 -2.39144826778E+02  2.42509739348E+02  4.75000000000E+00  0.00000000000E+00  1.
</event>
<event>
 9   2   1.0000000E+00   6.2500028E+01   7.8125000E-03   1.3828938E-01
       21   -1    0    0  501  502  0.00000000000E+00  0.00000000000E+00  3.50167228770E+01  3.50167228770E+01  0.00000000000E+00  0.00000000000E+00  1.
       21   -1    0    0  502  501  0.00000000000E+00  0.00000000000E+00 -1.11553941733E+02  1.11553941733E+02  0.00000000000E+00  0.00000000000E+00  1.
       39    2    1    2    0    0  9.32587340685E-15  1.77635683940E-15 -7.65372188557E+01  1.46570664610E+02  1.25000055416E+02  0.00000000000E+00  1.
       23    2    3    3    0    0 -2.19414360542E+00  1.44145442573E+01 -1.82464067955E+01  3.75470594241E+01  2.93982475352E+01  0.00000000000E+00  1.
       23    2    3    3    0    0  2.19414360542E+00 -1.44145442573E+01 -5.82908120602E+01  1.09023605186E+02  9.09710633373E+01  0.00000000000E+00  1.
       11    1    4    4    0    0  1.22946484053E+00  2.21084984649E+01 -6.46835860342E+00  2.30680937975E+01  5.10999939536E-04  0.00000000000E+00  1.
      -11    1    4    4    0    0 -3.42360844596E+00 -7.69395420759E+00 -1.17780481921E+01  1.44789656266E+01  5.10999876963E-04  0.00000000000E+00  1.
        5    1    5    5  803    0 -3.72811504093E+01 -1.61057576516E+01 -5.57630903748E+01  6.91474103168E+01  4.75000000000E+00  0.00000000000E+00  1.
       -5    1    5    5    0  803  3.94752940147E+01  1.69121339429E+00 -2.52772168535E+00  3.98761948687E+01  4.75000000000E+00  0.00000000000E+00  1.
</event>
<event>
 9   2   1.0000000E+00   6.2499540E+01   7.8125000E-03   1.3828956E-01
       21   -1    0    0  501  502  0.00000000000E+00  0.00000000000E+00  1.31790175276E+01  1.31790175276E+01  0.00000000000E+00  0.00000000000E+00  1.
       21   -1    0    0  502  501  0.00000000000E+00  0.00000000000E+00 -2.96394817522E+02  2.96394817522E+02  0.00000000000E+00  0.00000000000E+00  1.
       39    2    1    2    0    0 -6.21724893790E-15 -7.10542735760E-15 -2.83215799994E+02  3.09573835049E+02  1.24999079920E+02  0.00000000000E+00  1.
       23    2    3    3    0    0 -6.95996953015E+00  1.45354986277E+01 -2.55178562967E+02  2.71213580042E+02  9.04487982528E+01  0.00000000000E+00  1.
       23    2    3    3    0    0  6.95996953015E+00 -1.45354986277E+01 -2.80372370274E+01  3.83602550070E+01  2.06325133675E+01  0.00000000000E+00  1.
        5    1    4    4  804    0 -3.90019172222E+01 -1.62096945065E+01 -1.67600441856E+02  1.72905680512E+02  4.75000000000E+00  0.00000000000E+00  1.
       -5    1    4    4    0  804  3.20419476920E+01  3.07451931342E+01 -8.75781211105E+01  9.83078995300E+01  4.75000000000E+00  0.00000000000E+00  1.
        4    1    5    5  803    0  7.66351575981E+00 -7.09103745216E+00 -2.88725519872E+01  3.07288491357E+01  1.27500000000E+00  0.00000000000E+00  1.
       -4    1    5    5    0  803 -7.03546229661E-01 -7.44446117550E+00  8.35314959879E-01  7.63140587133E+00  1.27500000000E+00  0.00000000000E+00  1.
</event>
<event>
 9   2   1.0000000E+00   6.2500124E+01   7.8125000E-03   1.3828934E-01
       21   -1    0    0  501  502  0.00000000000E+00  0.00000000000E+00  8.26845101584E+01  8.26845101584E+01  0.00000000000E+00  0.00000000000E+00  1.
       21   -1    0    0  502  501  0.00000000000E+00  0.00000000000E+00 -4.72430142101E+01  4.72430142101E+01  0.00000000000E+00  0.00000000000E+00  1.
       39    2    1    2    0    0  0.00000000000E+00  3.55271367880E-15  3.54414959482E+01  1.29927524369E+02  1.25000247814E+02  0.00000000000E+00  1.
       23    2    3    3    0    0  1.66908691197E+01 -2.51639245648E+01  2.62959018033E+01  7.83913077727E+01  6.73937272392E+01  0.00000000000E+00  1.
       23    2    3    3    0    0 -1.66908691197E+01  2.51639245648E+01  9.14559414490E+00  5.15362165959E+01  4.07496198422E+01  0.00000000000E+00  1.
       13    1    4    4    0    0  3.87530092631E+01  1.30312256240E+00  1.89607208706E+01  4.31626453699E+01  1.05660000009E-01  0.00000000000E+00  1.
      -13    1    4    4    0    0 -2.20621401434E+01 -2.64670471272E+01  7.33518093274E+00  3.52286624028E+01  1.05660000008E-01  0.00000000000E+00  1.
        5    1    5    5  804    0  1.18497824344E+01  8.45628590307E-01  7.30911507528E-01  1.28151926668E+01  4.75000000000E+00  0.00000000000E+00  1.
       -5    1    5    5    0  804 -2.85406515540E+01  2.43182959745E+01  8.41468263737E+00  3.87210239291E+01  4.75000000000E+00  0.00000000000E+00  1.
</event>
<event>
 9   2   1.0000000E+00   6.2499215E+01   7.8125000E-03   1.3828968E-01
       21   -1    0    0  501  502  0.00000000000E+00  0.00000000000E+00  8.49584026630E+02  8.49584026630E+02  0.00000000000E+00  0.00000000000E+00  1.
       21   -1    0    0  502  501  0.00000000000E+00  0.00000000000E+00 -4.59772285125E+00  4.59772285125E+00  0.00000000000E+00  0.00000000000E+00  1.
       39    2    1    2    0    0  7.10542735760E-15  0.00000000000E+00  8.44986303779E+02  8.54181749482E+02  1.24998430283E+02  0.00000000000E+00  1.
       23    2    3    3    0    0  9.80247378038E+00  6.94312536317E+00  5.99381023611E+02  6.06210695858E+02  8.99416523378E+01  0.00000000000E+00  1.
       23    2    3    3    0    0 -9.80247378038E+00 -6.94312536317E+00  2.45605280168E+02  2.47971053624E+02  3.19905346453E+01  0.00000000000E+00  1.
        1    1    4    4  804    0 -2.02981812227E+01 -1.38452845039E+00  3.16748754074E+01  3.76461261228E+01  1.02658510883E-05  0.00000000000E+00  1.
       -1    1    4    4    0  804  3.01006550030E+01  8.32765381356E+00  5.67706148204E+02  5.68564569735E+02  7.62939453125E-06  0.00000000000E+00  1.
        4    1    5    5  803    0 -1.46485799919E+01 -5.88471795144E+00  5.34393776712E+01  5.57369133702E+01  1.27500000000E+00  0.00000000000E+00  1.
       -4    1    5    5    0  803  4.84610621154E+00 -1.05840741173E+00  1.92165902497E+02  1.92234140253E+02  1.27500000000E+00  0.00000000000E+00  1.
</event>
<event>
 9   2   1.0000000E+00   6.2501835E+01   7.8125000E-03   1.3828870E-01
       21   -1    0    0  501  502  0.00000000000E+00  0.00000000000E+00  9.01858680687E+00  9.01858680687E+00  0.00000000000E+00  0.00000000000E+00  1.
       21   -1    0    0  502  501  0.00000000000E+00  0.00000000000E+00 -4.33158699708E+02  4.33158699708E+02  0.00000000000E+00  0.00000000000E+00  1.
       39    2    1    2    0    0 -1.77635683940E-15 -4.44089209850E-16 -4.24140112901E+02  4.42177286515E+02  1.25003669298E+02  0.00000000000E+00  1.
       23    2    3    3    0    0  1.11358946741E+01 -3.75081168168E+00 -6.16059062446E+01  6.81660740081E+01  2.67067261751E+01  0.00000000000E+00  1.
       23    2    3    3    0    0 -1.11358946741E+01  3.75081168168E+00 -3.62534206656E+02  3.74011212507E+02  9.11880438778E+01  0.00000000000E+00  1.
       11    1    4    4    0    0  2.10454597319E+00 -3.12972341986E+00 -5.84612238037E+01  5.85827531901E+01  5.11002157370E-04  0.00000000000E+00  1.
      -11    1    4    4    0    0  9.03134870091E+00 -6.21088261820E-01 -3.14468244091E+00  9.58332081805E+00  5.11000217634E-04  0.00000000000E+00  1.
        1    1    5    5  804    0  1.43749186106E+01 -8.62546960598E+00 -8.41317479047E+00  1.87568260852E+01  7.87232731872E-06  0.00000000000E+00  1.
       -1    1    5    5    0  804 -2.55108132846E+01  1.23762812877E+01 -3.54121031866E+02  3.55254386622E+02  7.62939453125E-06  0.00000000000E+00  1.
</event>
<event>
 9   2   1.0000000E+00   6.2499990E+01   7.8125000E-03   1.3828939E-01
       21   -1    0    0  501  502  0.00000000000E+00  0.00000000000E+00  1.46029075176E+01  1.46029075176E+01  0.00000000000E+00  0.00000000000E+00  1.
       21   -1    0    0  502  501  0.00000000000E+00  0.00000000000E+00 -2.67498017074E+02  2.67498017074E+02  0.00000000000E+00  0.00000000000E+00  1.
       39    2    1    2    0    0  5.32907051820E-15  1.77635683940E-15 -2.52895109557E+02  2.82100924592E+02  1.24999980872E+02  0.00000000000E+00  1.
       23    2    3    3    0    0 -8.47762876038E+00 -1.28795268065E+01 -9.06158309292E+01  9.83337319765E+01  3.49362509335E+01  0.00000000000E+00  1.
       23    2    3    3    0    0  8.47762876038E+00  1.28795268065E+01 -1.62279278627E+02  1.83767192615E+02  8.48414074006E+01  0.00000000000E+00  1.
        4    1    4    4  803    0 -8.96284956960E+00  1.80181975172E+00 -3.33251865854E+00  9.81379296880E+00  1.27500000000E+00  0.00000000000E+00  1.
       -4    1    4    4    0  803  4.85220809220E-01 -1.46813465583E+01 -8.72833122706E+01  8.85199390077E+01  1.27500000000E+00  0.00000000000E+00  1.
        3    1    5    5  804    0  3.30114137880E+01 -6.18360374140E+00 -2.21432051201E+01  4.02282478926E+01  3.69356474515E-06  0.00000000000E+00  1.
       -3    1    5    5    0  804 -2.45337850276E+01  1.90631305479E+01 -1.40136073507E+02  1.43538944723E+02  4.26496119976E-06  0.00000000000E+00  1.
</event>
<event>
 9   2   1.0000000E+00   6.2500317E+01   7.8125000E-03   1.3828927E-01
       21   -1    0    0  501  502  0.00000000000E+00  0.00000000000E+00  3.48911149320E+02  3.48911149320E+02  0.00000000000E+00  0.00000000000E+00  1.
       21   -1    0    0  502  501  0.00000000000E+00  0.00000000000E+00 -1.11956573340E+01  1.11956573340E+01  0.00000000000E+00  0.00000000000E+00  1.
       39    2    1    2    0    0 -1.42108547152E-14  0.00000000000E+00  3.37715491986E+02  3.60106806654E+02  1.25000634683E+02  0.00000000000E+00  1.
       23    2    3    3    0    0  1.75166926437E+01 -2.07684481049E+00  1.58036385255E+02  1.70491375054E+02  6.14870888705E+01  0.00000000000E+00  1.
       23    2    3    3    0    0 -1.75166926437E+01  2.07684481049E+00  1.79679106731E+02  1.89615431601E+02  5.79506919694E+01  0.00000000000E+00  1.
       14    1    4    4    0    0  3.19041012187E+01  1.45398212267E+01  1.31193515088E+02  1.35797704241E+02  0.00000000000E+00  0.00000000000E+00  1.
      -14    1    4    4    0    0 -1.43874085751E+01 -1.66166660372E+01  2.68428701668E+01  3.46936709131E+01  3.07180851143E-06  0.00000000000E+00  1.
        2    1    5    5  803    0 -3.02143128173E+01 -1.37187456037E+01  1.50331084704E+02  1.53949809055E+02  2.69739830470E-06  0.00000000000E+00  1.
       -2    1    5    5    0  803  1.26976201736E+01  1.57955904142E+01  2.93480220278E+01  3.56656225454E+01  1.11828226085E-06  0.00000000000E+00  1.
</event>
<event>
 9   2   1.0000000E+00   6.2500424E+01   7.8125000E-03   1.3828923E-01
       21   -1    0    0  501  502  0.00000000000E+00  0.00000000000E+00  2.96530672917E+02  2.96530672917E+02  0.00000000000E+00  0.00000000000E+00  1.
       21   -1    0    0  502  501  0.00000000000E+00  0.00000000000E+00 -1.31733522565E+01  1.31733522565E+01  0.00000000000E+00  0.00000000000E+00  1.
       39    2    1    2    0    0 -3.55271367880E-15  3.55271367880E-15  2.83357320661E+02  3.09704025174E+02  1.25000848144E+02  0.00000000000E+00  1.
       23    2    3    3    0    0  1.66413312772E+01 -2.40804958217E+01  1.71572465985E+02  1.77432643128E+02  3.44735779638E+01  0.00000000000E+00  1.
       23    2    3    3    0    0 -1.66413312772E+01  2.40804958217E+01  1.11784854676E+02  1.32271382046E+02  6.43666108136E+01  0.00000000000E+00  1.
       13    1    4    4    0    0  1.29523298791E+01 -2.99475891073E+01  9.30516798959E+01  9.86065273606E+01  1.05660000004E-01  0.00000000000E+00  1.
      -13    1    4    4    0    0  3.68900139815E+00  5.86709328560E+00  7.85207860888E+01  7.88261157674E+01  1.05659999995E-01  0.00000000000E+00  1.
       14    1    5    5    0    0 -1.24594897506E+01  1.69798319555E+00 -4.81803384819E+00  1.34660864632E+01  0.00000000000E+00  0.00000000000E+00  1.
      -14    1    5    5    0    0 -4.18184152660E+00  2.23825126262E+01  1.16602888524E+02  1.18805295782E+02  1.90734863281E-06  0.00000000000E+00  1.
</event>
<event>
 9   2   1.0000000E+00   6.2499614E+01   7.8125000E-03   1.3828953E-01
       21   -1    0    0  501  502  0.00000000000E+00  0.00000000000E+00  1.08806781042E+01  1.08806781042E+01  0.00000000000E+00  0.00000000000E+00  1.
       21   -1    0    0  502  501  0.00000000000E+00  0.00000000000E+00 -3.59003517993E+02  3.59003517993E+02  0.00000000000E+00  0.00000000000E+00  1.
       39    2    1    2    0    0 -5.32907051820E-15  5.32907051820E-15 -3.48122839889E+02  3.69884196097E+02  1.24999227478E+02  0.00000000000E+00  1.
       23    2    3    3    0    0 -1.15499534820E+01  1.35530421670E+01 -7.20224018235E+01  8.02825191243E+01  3.06752365126E+01  0.00000000000E+00  1.
       23    2    3    3    0    0  1.15499534820E+01 -1.35530421670E+01 -2.76100438065E+02  2.89601676973E+02  8.55604641655E+01  0.00000000000E+00  1.
        5    1    4    4  804    0 -1.30936161757E+01  2.15159896292E+01 -5.78817802451E+01  6.33027928185E+01  4.75000000000E+00  0.00000000000E+00  1.
       -5    1    4    4    0  804  1.54366269374E+00 -7.96294746217E+00 -1.41406215783E+01  1.69797263058E+01  4.75000000000E+00  0.00000000000E+00  1.
        3    1    5    5  803    0 -1.51844196568E+01  3.43752137683E+00 -2.44025615285E+02  2.44521745595E+02  2.69739830470E-06  0.00000000000E+00  1.
       -3    1    5    5    0  803  2.67343731388E+01 -1.69905635438E+01 -3.20748227805E+01  4.50799314782E+01  2.93942165516E-06  0.00000000000E+00  1.
</event>
<event>
 9   2   1.0000000E+00   6.2500030E+01   7.8125000E-03   1.3828937E-01
       21   -1    0    0  501  502  0.00000000000E+00  0.00000000000E+00  5.53858431934E+01  5.53858431934E+01  0.00000000000E+00  0.00000000000E+00  1.
       21   -1    0    0  502  501  0.00000000000E+00  0.00000000000E+00 -7.05280180100E+01  7.05280180100E+01  0.00000000000E+00  0.00000000000E+00  1.
       39    2    1    2    0    0  0.00000000000E+00  1.77635683940E-15 -1.51421748166E+01  1.25913861203E+02  1.25000059940E+02  0.00000000000E+00  1.
       23    2    3    3    0    0 -5.59211828424E+00 -1.28013295858E+01 -1.11714851034E+01  8.87017012640E+01  8.68794791745E+01  0.00000000000E+00  1.
       23    2    3    3    0    0  5.59211828424E+00  1.28013295858E+01 -3.97068971318E+00  3.72121599394E+01  3.42612411405E+01  0.00000000000E+00  1.
        5    1    4    4  803    0  1.01577323269E+01 -3.04564356848E+01 -3.97377214673E+01  5.13071438306E+01  4.75000000000E+00  0.00000000000E+00  1.
       -5    1    4    4    0  803 -1.57498506111E+01  1.76551060989E+01  2.85662363639E+01  3.73945574333E+01  4.75000000000E+00  0.00000000000E+00  1.
        1    1    5    5  804    0 -8.64660138618E+00  1.56497321760E+01 -1.10903734861E+01  2.10398246423E+01  0.00000000000E+00  0.00000000000E+00  1.
       -1    1    5    5    0  804  1.42387196704E+01 -2.84840259016E+00  7.11968377292E+00  1.61723354971E+01  0.00000000000E+00  0.00000000000E+00  1.
</event>
<event>
 9   2   1.0000000E+00   6.2503082E+01   7.8125000E-03   1.3828824E-01
       21   -1    0    0  501  502  0.00000000000E+00  0.00000000000E+00  7.96460816724E+00  7.96460816724E+00  0.00000000000E+00  0.00000000000E+00  1.
       21   -1    0    0  502  501  0.00000000000E+00  0.00000000000E+00 -4.90499359256E+02  4.90499359256E+02  0.00000000000E+00  0.00000000000E+00  1.
       39    2    1    2    0    0  2.66453525910E-15  0.00000000000E+00 -4.82534751088E+02  4.98463967423E+02  1.25006163092E+02  0.00000000000E+00  1.
       23    2    3    3    0    0  2.19253078730E-01  1.58340149386E+01 -3.60263103216E+02  3.72000577064E+02  9.13463830491E+01  0.00000000000E+00  1.
       23    2    3    3    0    0 -2.19253078730E-01 -1.58340149386E+01 -1.22271647873E+02  1.26463390359E+02  2.81401692717E+01  0.00000000000E+00  1.
        5    1    4    4  804    0 -3.76743989865E+01  2.83884520678E+01 -2.54009130046E+02  2.58395946555E+02  4.75000000000E+00  0.00000000000E+00  1.
       -5    1    4    4    0  804  3.78936520653E+01 -1.25544371292E+01 -1.06253973170E+02  1.13604630508E+02  4.75000000000E+00  0.00000000000E+00  1.
        1    1    5    5  803    0 -3.85544786753E+00 -2.08035548137E+01 -1.15020951413E+02  1.16950723206E+02  1.34869915235E-06  0.00000000000E+00  1.
       -1    1    5    5    0  803  3.63619478880E+00  4.96953987510E+00 -7.25069645980E+00  9.51266725291E+00  1.16800772800E-06  0.00000000000E+00  1.
</event>
<event>
 9   2   1.0000000E+00   6.2499981E+01   7.8125000E-03   1.3828939E-01
       21   -1    0    0  501  502  0.00000000000E+00  0.00000000000E+00  5.33093097845E+01  5.33093097845E+01  0.00000000000E+00  0.00000000000E+00  1.
       21   -1    0    0  502  501  0.00000000000E+00  0.00000000000E+00 -7.32751502019E+01  7.32751502019E+01  0.00000000000E+00  0.00000000000E+00  1.
       39    2    1    2    0    0  5.32907051820E-15 -5.32907051820E-15 -1.99658404174E+01  1.26584459986E+02  1.24999962906E+02  0.00000000000E+00  1.
       23    2    3    3    0    0 -1.08455984231E+01  2.73663050650E+00 -1.51217159874E+01  9.14487425870E+01  8.94935197355E+01  0.00000000000E+00  1.
       23    2    3    3    0    0  1.08455984231E+01 -2.73663050650E+00 -4.84412443001E+00  3.51357173994E+01  3.29535573799E+01  0.00000000000E+00  1.
        3    1    4    4  804    0  2.54763825456E+01 -2.87390989100E+01  6.14027088870E+00  3.88932488760E+01  1.75403821106E-06  0.00000000000E+00  1.
       -3    1    4    4    0  804 -3.63219809687E+01  3.14757294165E+01 -2.12619868761E+01  5.25554939110E+01  1.99475294717E-06  0.00000000000E+00  1.
        5    1    5    5  803    0 -8.43315505481E+00 -7.71432981957E+00 -7.53439153430E+00  1.44899463262E+01  4.75000000000E+00  0.00000000000E+00  1.
       -5    1    5    5    0  803  1.92787534779E+01  4.97769931307E+00  2.69026710429E+00  2.06457710732E+01  4.75000000000E+00  0.00000000000E+00  1.
</event>
<event>
 9   2   1.0000000E+00   6.2500127E+01   7.8125000E-03   1.3828934E-01
       21   -1    0    0  501  502  0.00000000000E+00  0.00000000000E+00  2.10643815701E+01  2.10643815701E+01  0.00000000000E+00  0.00000000000E+00  1.
       21   -1    0    0  502  501  0.00000000000E+00  0.00000000000E+00 -1.85444128188E+02  1.85444128188E+02  0.00000000000E+00  0.00000000000E+00  1.
       39    2    1    2    0    0 -1.77635683940E-15  0.00000000000E+00 -1.64379746618E+02  2.06508509758E+02  1.25000254017E+02  0.00000000000E+00  1.
       23    2    3    3    0    0  1.93568909201E+00  1.04248735034E+01 -6.83387083708E+01  8.77058581626E+01  5.39417613212E+01  0.00000000000E+00  1.
       23    2    3    3    0    0 -1.93568909201E+00 -1.04248735034E+01 -9.60410382471E+01  1.18802651595E+02  6.91213723728E+01  0.00000000000E+00  1.
        5    1    4    4  804    0 -1.50349105519E+01 -6.14629949941E+00 -5.96474532580E+01  6.20016670180E+01  4.75000000000E+00  0.00000000000E+00  1.
       -5    1    4    4    0  804  1.69705996439E+01  1.65711730028E+01 -8.69125511277E+00  2.57041911446E+01  4.75000000000E+00  0.00000000000E+00  1.
        3    1    5    5  803    0 -1.49026384502E+01 -9.20022186774E-01  5.56358718995E+00  1.59338814859E+01  0.00000000000E+00  0.00000000000E+00  1.
       -3    1    5    5    0  803  1.29669493582E+01 -9.50485131663E+00 -1.01604625437E+02  1.02868770209E+02  0.00000000000E+00  0.00000000000E+00  1.
</event>
<event>
 9   2   1.0000000E+00   6.2498855E+01   7.8125000E-03   1.3828981E-01
       21   -1    0    0  501  502  0.00000000000E+00  0.00000000000E+00  1.05530263097E+02  1.05530263097E+02  0.00000000000E+00  0.00000000000E+00  1.
       21   -1    0    0  502  501  0.00000000000E+00  0.00000000000E+00 -3.70140926539E+01  3.70140926539E+01  0.00000000000E+00  0.00000000000E+00  1.
       39    2    1    2    0    0  0.00000000000E+00 -1.77635683940E-15  6.85161704430E+01  1.42544355751E+02  1.24997710956E+02  0.00000000000E+00  1.
       23    2    3    3    0    0 -6.37039172755E+00  1.14133948386E+01  3.62409507398E+01  9.79718764457E+01  9.00790463496E+01  0.00000000000E+00  1.
       23    2    3    3    0    0  6.37039172755E+00 -1.14133948386E+01  3.22752197032E+01  4.45724793052E+01  2.78238859977E+01  0.00000000000E+00  1.
       16    1    4    4    0    0  3.16350251689E+01  1.70558526249E-02 -1.34568074522E+01  3.43782020348E+01  1.72750672653E-06  0.00000000000E+00  1.
      -16    1    4    4    0    0 -3.80054168965E+01  1.13963389860E+01  4.96977581920E+01  6.35936744108E+01  1.34869915235E-06  0.00000000000E+00  1.
       12    1    5    5    0    0  3.48142161463E-01  1.86348348846E+00 -4.57012549569E+00  4.94770863357E+00  0.00000000000E+00  0.00000000000E+00  1.
      -12    1    5    5    0    0  6.02224956608E+00 -1.32768783271E+01  3.68453451989E+01  3.96247706716E+01  0.00000000000E+00  0.00000000000E+00  1.
</event>
<event>
 9   2   1.0000000E+00   6.2500652E+01   7.8125000E-03   1.3828914E-01
       21   -1    0    0  501  502  0.00000000000E+00  0.00000000000E+00  1.01273335066E+01  1.01273335066E+01  0.00000000000E+00  0.00000000000E+00  1.
       21   -1    0    0  502  501  0.00000000000E+00  0.00000000000E+00 -3.85721617514E+02  3.85721617514E+02  0.00000000000E+00  0.00000000000E+00  1.
       39    2    1    2    0    0 -3.55271367880E-15  1.42108547152E-14 -3.75594284007E+02  3.95848951021E+02  1.25001303374E+02  0.00000000000E+00  1.
       23    2    3    3    0    0 -1.76527167260E+01  3.54408061457E+01 -9.89011857233E+01  1.09273259648E+02  2.43214224217E+01  0.00000000000E+00  1.
       23    2    3    3    0    0  1.76527167260E+01 -3.54408061457E+01 -2.76693098284E+02  2.86575691372E+02  6.32367543398E+01  0.00000000000E+00  1.
        5    1    4    4  803    0 -2.11482007994E+01  3.26961384521E+01 -7.68564397957E+01  8.62888098470E+01  4.75000000000E+00  0.00000000000E+00  1.
       -5    1    4    4    0  803  3.49548407345E+00  2.74466769360E+00 -2.20447459275E+01  2.29844498012E+01  4.75000000000E+00  0.00000000000E+00  1.
       14    1    5    5    0    0  6.80306244671E+00  1.52473052588E+01 -2.85278056191E+01  3.30544653014E+01  2.67624191292E-06  0.00000000000E+00  1.
      -14    1    5    5    0    0  1.08496542793E+01 -5.06881114046E+01 -2.48165292665E+02  2.53521226171E+02  0.00000000000E+00  0.00000000000E+00  1.
</event>
<event>
 9   2   1.0000000E+00   6.2500600E+01   7.8125000E-03   1.3828916E-01
       21   -1    0    0  501  502  0.00000000000E+00  0.00000000000E+00  3.58425155985E+02  3.58425155985E+02  0.00000000000E+00  0.00000000000E+00  1.
       21   -1    0    0  502  501  0.00000000000E+00  0.00000000000E+00 -1.08985794039E+01  1.08985794039E+01  0.00000000000E+00  0.00000000000E+00  1.
       39    2    1    2    0    0  0.00000000000E+00 -1.77635683940E-15  3.47526576581E+02  3.69323735389E+02  1.25001200360E+02  0.00000000000E+00  1.
       23    2    3    3    0    0 -3.58235331249E+00  9.00953990604E+00  2.82634238362E+02  2.96878774350E+02  9.03376383400E+01  0.00000000000E+00  1.
       23    2    3    3    0    0  3.58235331249E+00 -9.00953990604E+00  6.48923382193E+01  7.24449610386E+01  3.07124039395E+01  0.00000000000E+00  1.
        4    1    4    4  804    0 -4.17082759347E+01 -1.30524500100E+01  1.79042119537E+02  1.84303154954E+02  1.27500000000E+00  0.00000000000E+00  1.
       -4    1    4    4    0  804  3.81259226222E+01  2.20619899160E+01  1.03592118824E+02  1.12575619396E+02  1.27500000000E+00  0.00000000000E+00  1.
       16    1    5    5    0    0  1.71738424872E+01 -6.59185422164E+00  3.77708610512E+01  4.20122762107E+01  0.00000000000E+00  0.00000000000E+00  1.
      -16    1    5    5    0    0 -1.35914891747E+01 -2.41768568440E+00  2.71214771681E+01  3.04326848279E+01  0.00000000000E+00  0.00000000000E+00  1.
</event>
<event>
 9   2   1.0000000E+00   6.2498938E+01   7.8125000E-03   1.3828978E-01
       21   -1    0    0  501  502  0.00000000000E+00  0.00000000000E+00  3.97348708891E+01  3.97348708891E+01  0.00000000000E+00  0.00000000000E+00  1.
       21   -1    0    0  502  501  0.00000000000E+00  0.00000000000E+00 -9.83045170339E+01  9.83045170339E+01  0.00000000000E+00  0.00000000000E+00  1.
       39    2    1    2    0    0  3.55271367880E-15  2.66453525910E-15 -5.85696461448E+01  1.38039387923E+02  1.24997876656E+02  0.00000000000E+00  1.
       23    2    3    3    0    0  6.97597049419E+00 -6.56496729172E+00 -2.66142804137E+01  3.88915217922E+01  2.66920884440E+01  0.00000000000E+00  1.
       23    2    3    3    0    0 -6.97597049419E+00  6.56496729172E+00 -3.19553657311E+01  9.91478661307E+01  9.33669695310E+01  0.00000000000E+00  1.
        1    1    4    4  804    0 -5.70602769700E+00 -9.59553780260E+00 -2.26686073295E+01  2.52685349014E+01  0.00000000000E+00  0.00000000000E+00  1.
       -1    1    4    4    0  804  1.26819981912E+01  3.03057051088E+00 -3.94567308411E+00  1.36229868909E+01  0.00000000000E+00  0.00000000000E+00  1.
        4    1    5    5  803    0 -3.61933320277E+01  1.39684475433E+01 -5.05318022935E+01  6.37194120977E+01  1.27500000000E+00  0.00000000000E+00  1.
       -4    1    5    5    0  803  2.92173615335E+01 -7.40348025161E+00  1.85764365624E+01  3.54284540331E+01  1.27500000000E+00  0.00000000000E+00  1.
</event>
<event>
 9   2   1.0000000E+00   6.2500611E+01   7.8125000E-03   1.3828916E-01
       21   -1    0    0  501  502  0.00000000000E+00  0.00000000000E+00  1.88252279968E+02  1.88252279968E+02  0.00000000000E+00  0.00000000000E+00  1.
       21   -1    0    0  502  501  0.00000000000E+00  0.00000000000E+00 -2.07504863156E+01  2.07504863156E+01  0.00000000000E+00  0.00000000000E+00  1.
       39    2    1    2    0    0  0.00000000000E+00 -8.88178419700E-16  1.67501793653E+02  2.09002766284E+02  1.25001221744E+02  0.00000000000E+00  1.
       23    2    3    3    0    0  1.21421180118E+01  3.67256054878E+00  1.20186682177E+02  1.52322352092E+02  9.27164583199E+01  0.00000000000E+00  1.
       23    2    3    3    0    0 -1.21421180118E+01 -3.67256054878E+00  4.73151114757E+01  5.66804141917E+01  2.85136958001E+01  0.00000000000E+00  1.
        5    1    4    4  804    0 -2.43464707147E+01 -2.03506823199E+01  9.86016552352E+00  3.35661476982E+01  4.75000000000E+00  0.00000000000E+00  1.
       -5    1    4    4    0  804  3.64885887266E+01  2.40232428687E+01  1.10326516653E+02  1.18756204394E+02  4.75000000000E+00  0.00000000000E+00  1.
       14    1    5    5    0    0 -9.13626342405E+00  3.99703198929E-01  5.00733260677E-02  9.14513965661E+00  0.00000000000E+00  0.00000000000E+00  1.
      -14    1    5    5    0    0 -3.00585458779E+00 -4.07226374771E+00  4.72650381497E+01  4.75352746350E+01  0.00000000000E+00  0.00000000000E+00  1.
</event>
<event>
 9   2   1.0000000E+00   6.2499720E+01   7.8125000E-03   1.3828949E-01
       21   -1    0    0  501  502  0.00000000000E+00  0.00000000000E+00  4.01577506719E+00  4.01577506719E+00  0.00000000000E+00  0.00000000000E+00  1.
       21   -1    0    0  502  501  0.00000000000E+00  0.00000000000E+00 -9.72717572851E+02  9.72717572851E+02  0.00000000000E+00  0.00000000000E+00  1.
       39    2    1    2    0    0 -7.10542735760E-15  0.00000000000E+00 -9.68701797783E+02  9.76733347918E+02  1.24999439622E+02  0.00000000000E+00  1.
       23    2    3    3    0    0  6.82367963147E-01  1.37594525259E+01 -6.07960231762E+02  6.14795771651E+02  9.03792524680E+01  0.00000000000E+00  1.
       23    2    3    3    0    0 -6.82367963147E-01 -1.37594525259E+01 -3.60741566022E+02  3.61937576267E+02  2.59719752432E+01  0.00000000000E+00  1.
        3    1    4    4  803    0  2.67457563117E+01  2.80392116762E+01 -5.29172650412E+02  5.30589508769E+02  1.07895932188E-05  0.00000000000E+00  1.
       -3    1    4    4    0  803 -2.60633883485E+01 -1.42797591502E+01 -7.87875813499E+01  8.42062628820E+01  8.03580262487E-06  0.00000000000E+00  1.
        2    1    5    5  804    0 -1.27027642263E+01 -5.76724145133E+00 -2.24614105430E+02  2.25046923221E+02  3.81469726562E-06  0.00000000000E+00  1.
       -2    1    5    5    0  804  1.20203962632E+01 -7.99221107461E+00 -1.36127460591E+02  1.36890653145E+02  1.90734863281E-06  0.00000000000E+00  1.
</event>
<event>
 9   2   1.0000000E+00   6.2495154E+01   7.8125000E-03   1.3829120E-01
       21   -1    0    0  501  502  0.00000000000E+00  0.00000000000E+00  2.15214012397E+02  2.15214012397E+02  0.00000000000E+00  0.00000000000E+00  1.
       21   -1    0    0  502  501  0.00000000000E+00  0.00000000000E+00 -1.81477228365E+01  1.81477228365E+01  0.00000000000E+00  0.00000000000E+00  1.
       39    2    1    2    0    0  5.32907051820E-15  1.77635683940E-15  1.97066289560E+02  2.33361735233E+02  1.24990307584E+02  0.00000000000E+00  1.
       23    2    3    3    0    0 -6.67564087524E+00 -3.54444483142E+00  1.26144164559E+02  1.54694299084E+02  8.92235879494E+01  0.00000000000E+00  1.
       23    2    3    3    0    0  6.67564087524E+00  3.54444483142E+00  7.09221250016E+01  7.86674361494E+01  3.31887093047E+01  0.00000000000E+00  1.
       16    1    4    4    0    0 -3.52195049539E+01  2.41103949859E+01  9.51823903954E+01  1.04314007390E+02  3.01578298585E-06  0.00000000000E+00  1.
      -16    1    4    4    0    0  2.85438640786E+01 -2.76548398173E+01  3.09617741632E+01  5.03802918935E+01  1.81574180266E-06  0.00000000000E+00  1.
       12    1    5    5    0    0 -1.02546835669E+01 -2.05480691000E+00  5.04290490942E+01  5.15021335387E+01  0.00000000000E+00  0.00000000000E+00  1.
      -12    1    5    5    0    0  1.69303244422E+01  5.59925174143E+00  2.04930759074E+01  2.71653027107E+01  0.00000000000E+00  0.00000000000E+00  1.
</event>
<event>
 9   2   1.0000000E+00   6.2501587E+01   7.8125000E-03   1.3828879E-01
       21   -1    0    0  501  502  0.00000000000E+00  0.00000000000E+00  2.77631261328E+01  2.77631261328E+01  0.00000000000E+00  0.00000000000E+00  1.
       21   -1    0    0  502  501  0.00000000000E+00  0.00000000000E+00 -1.40706360219E+02  1.40706360219E+02  0.00000000000E+00  0.00000000000E+00  1.
       39    2    1    2    0    0  0.00000000000E+00  3.55271367880E-15 -1.12943234086E+02  1.68469486352E+02  1.25003174783E+02  0.00000000000E+00  1.
       23    2    3    3    0    0  1.79792897707E+01 -2.05707424054E+01 -2.93136713800E+01  4.12641183837E+01  9.85016915782E+00  0.00000000000E+00  1.
       23    2    3    3    0    0 -1.79792897707E+01  2.05707424054E+01 -8.36295627059E+01  1.27205367968E+02  9.18743249101E+01  0.00000000000E+00  1.
        2    1    4    4  804    0  1.27044489621E+01 -9.68684068094E+00 -1.13070853705E+01  1.95726361378E+01  0.00000000000E+00  0.00000000000E+00  1.
       -2    1    4    4    0  804  5.27484080863E+00 -1.08839017244E+01 -1.80065860095E+01  2.16914822458E+01  0.00000000000E+00  0.00000000000E+00  1.
        4    1    5    5  803    0  1.49559060435E+01  3.57325061439E+00  1.51927207296E+01  2.16539057378E+01  1.27500000000E+00  0.00000000000E+00  1.
       -4    1    5    5    0  803 -3.29351958142E+01  1.69974917910E+01 -9.88222834355E+01  1.05551462230E+02  1.27500000000E+00  0.00000000000E+00  1.
</event>
<event>
 9   2   1.0000000E+00   6.2497063E+01   7.8125000E-03   1.3829048E-01
       21   -1    0    0  501  502  0.00000000000E+00  0.00000000000E+00  7.82200572703E+01  7.82200572703E+01  0.00000000000E+00  0.00000000000E+00  1.
       21   -1    0    0  502  501  0.00000000000E+00  0.00000000000E+00 -4.99345445836E+01  4.99345445836E+01  0.00000000000E+00  0.00000000000E+00  1.
       39    2    1    2    0    0  1.77635683940E-15 -2.44249065418E-15  2.82855126867E+01  1.28154601854E+02  1.24994126855E+02  0.00000000000E+00  1.
       23    2    3    3    0    0  8.21194611923E+00  1.65065623838E+00  2.10002019224E+01  9.55610855870E+01  9.28480041395E+01  0.00000000000E+00  1.
       23    2    3    3    0    0 -8.21194611923E+00 -1.65065623838E+00  7.28531076427E+00  3.25935162669E+01  3.06447519916E+01  0.00000000000E+00  1.
       15    1    4    4    0    0  2.76173058077E+01  3.96493316375E+01  8.93784323325E-01  4.83605308907E+01  1.77680000000E+00  0.00000000000E+00  1.
      -15    1    4    4    0    0 -1.94053596885E+01 -3.79986753991E+01  2.01064175991E+01  4.72005546963E+01  1.77680000000E+00  0.00000000000E+00  1.
        3    1    5    5  803    0  1.27083899865E+00 -6.02844275909E-01 -1.14674459264E+01  1.15533877740E+01  0.00000000000E+00  0.00000000000E+00  1.
       -3    1    5    5    0  803 -9.48278511789E+00 -1.04781196248E+00  1.87527566906E+01  2.10401284929E+01  0.00000000000E+00  0.00000000000E+00  1.
</event>
<event>
 9   2   1.0000000E+00   6.2505186E+01   7.8125000E-03   1.3828745E-01
       21   -1    0    0  501  502  0.00000000000E+00  0.00000000000E+00  2.01480649630E+01  2.01480649630E+01  0.00000000000E+00  0.00000000000E+00  1.
       21   -1    0    0  502  501  0.00000000000E+00  0.00000000000E+00 -1.93909353044E+02  1.93909353044E+02  0.00000000000E+00  0.00000000000E+00  1.
       39    2    1    2    0    0  1.77635683940E-15 -1.77635683940E-15 -1.73761288081E+02  2.14057418007E+02  1.25010371443E+02  0.00000000000E+00  1.
       23    2    3    3    0    0 -4.24222507217E+00 -1.32298462922E+01 -3.52990423997E+01  4.59678428705E+01  2.59614113127E+01  0.00000000000E+00  1.
       23    2    3    3    0    0  4.24222507217E+00  1.32298462922E+01 -1.38462245681E+02  1.68089575137E+02  9.42830127011E+01  0.00000000000E+00  1.
       12    1    4    4    0    0 -7.61526791686E+00 -4.92382714317E+00  4.81628813733E-01  9.08120847199E+00  0.00000000000E+00  0.00000000000E+00  1.
      -12    1    4    4    0    0  3.37304284469E+00 -8.30601914906E+00 -3.57806712135E+01  3.68866345985E+01  0.00000000000E+00  0.00000000000E+00  1.
       14    1    5    5    0    0 -1.81782106601E+01 -1.13375934791E+00  7.51557276722E+00  1.97032126081E+01  0.00000000000E+00  0.00000000000E+00  1.
      -14    1    5    5    0    0  2.24204357323E+01  1.43636056401E+01 -1.45977818449E+02  1.48386362528E+02  1.90734863281E-06  0.00000000000E+00  1.
</event>
<event>
 9   2   1.0000000E+00   6.2500805E+01   7.8125000E-03   1.3828909E-01
       21   -1    0    0  501  502  0.00000000000E+00  0.00000000000E+00  8.44166234285E+01  8.44166234285E+01  0.00000000000E+00  0.00000000000E+00  1.
       21   -1    0    0  502  501  0.00000000000E+00  0.00000000000E+00 -4.62746610323E+01  4.62746610323E+01  0.00000000000E+00  0.00000000000E+00  1.
       39    2    1    2    0    0  1.77635683940E-15  0.00000000000E+00  3.81419623962E+01  1.30691284461E+02  1.25001610144E+02  0.00000000000E+00  1.
       23    2    3    3    0    0 -6.74530042851E+00 -9.14857563721E+00  4.00658822119E+01  1.00905611748E+02  9.19101302948E+01  0.00000000000E+00  1.
       23    2    3    3    0    0  6.74530042851E+00  9.14857563721E+00 -1.92391981576E+00  2.97856727125E+01  2.74643280897E+01  0.00000000000E+00  1.
        4    1    4    4  804    0  4.19289339239E+01 -1.25493683757E+01  1.80244968736E+01  4.73500819341E+01  1.27500000000E+00  0.00000000000E+00  1.
       -4    1    4    4    0  804 -4.86742343524E+01  3.40079273852E+00  2.20413853383E+01  5.35555298141E+01  1.27500000000E+00  0.00000000000E+00  1.
       13    1    5    5    0    0 -4.97382898161E+00  1.35919109017E+01  5.18723720913E+00  1.53752271722E+01  1.05660000001E-01  0.00000000000E+00  1.
      -13    1    5    5    0    0  1.17191294101E+01 -4.44333526444E+00 -7.11115702489E+00  1.44104455404E+01  1.05660000001E-01  0.00000000000E+00  1.
</event>
<event>
 9   2   1.0000000E+00   6.2504759E+01   7.8125000E-03   1.3828761E-01
       21   -1    0    0  501  502  0.00000000000E+00  0.00000000000E+00  1.37157735428E+02  1.37157735428E+02  0.00000000000E+00  0.00000000000E+00  1.
       21   -1    0    0  502  501  0.00000000000E+00  0.00000000000E+00 -2.84843209660E+01  2.84843209660E+01  0.00000000000E+00  0.00000000000E+00  1.
       39    2    1    2    0    0  4.44089209850E-16  0.00000000000E+00  1.08673414462E+02  1.65642056394E+02  1.25009518980E+02  0.00000000000E+00  1.
       23    2    3    3    0    0 -1.82980304196E+00  1.83258870926E+01  1.74364473709E+01  3.56751433245E+01  2.50898353403E+01  0.00000000000E+00  1.
       23    2    3    3    0    0  1.82980304196E+00 -1.83258870926E+01  9.12369670915E+01  1.29966913070E+02  9.07084781702E+01  0.00000000000E+00  1.
        3    1    4    4  804    0  6.69341555614E+00  1.96683871983E+01  1.73158563806E+01  2.70460006097E+01  0.00000000000E+00  0.00000000000E+00  1.
       -3    1    4    4    0  804 -8.52321859810E+00 -1.34250010573E+00  1.20590990375E-01  8.62914281477E+00  0.00000000000E+00  0.00000000000E+00  1.
        1    1    5    5  803    0  4.59594477403E+00  1.67456247854E+01  9.31304919140E+01  9.47355645044E+01  1.34869915235E-06  0.00000000000E+00  1.
       -1    1    5    5    0  803 -2.76614173207E+00 -3.50715118779E+01 -1.89352482256E+00  3.52313486655E+01  0.00000000000E+00  0.00000000000E+00  1.
</event>
<event>
 9   2   1.0000000E+00   6.2498812E+01   7.8125000E-03   1.3828983E-01
       21   -1    0    0  501  502  0.00000000000E+00  0.00000000000E+00  4.64249882984E+00  4.64249882984E+00  0.00000000000E+00  0.00000000000E+00  1.
       21   -1    0    0  502  501  0.00000000000E+00  0.00000000000E+00 -8.41379109818E+02  8.41379109818E+02  0.00000000000E+00  0.00000000000E+00  1.
       39    2    1    2    0    0  0.00000000000E+00  2.66453525910E-15 -8.36736610989E+02  8.46021608648E+02  1.24997624502E+02  0.00000000000E+00  1.
       23    2    3    3    0    0  1.05260004042E+01 -5.03124988353E+00 -3.54422178252E+02  3.55565142712E+02  2.59880764024E+01  0.00000000000E+00  1.
       23    2    3    3    0    0 -1.05260004042E+01  5.03124988353E+00 -4.82314432736E+02  4.90456465936E+02  8.82282426021E+01  0.00000000000E+00  1.
       12    1    4    4    0    0  2.68722363981E+00 -7.97853060094E+00 -3.37694240566E+01  3.48030476044E+01  4.47312904341E-06  0.00000000000E+00  1.
      -12    1    4    4    0    0  7.83877676443E+00  2.94728071742E+00 -3.20652754196E+02  3.20762095108E+02  3.81469726562E-06  0.00000000000E+00  1.
        5    1    5    5  804    0  1.49387055607E+00 -3.71566070085E+01 -1.27140131153E+02  1.32551954129E+02  4.75000000000E+00  0.00000000000E+00  1.
       -5    1    5    5    0  804 -1.20198709603E+01  4.21878568921E+01 -3.55174301583E+02  3.57904511807E+02  4.75000000000E+00  0.00000000000E+00  1.
</event>
<event>
 9   2   1.0000000E+00   6.2499109E+01   7.8125000E-03   1.3828972E-01
       21   -1    0    0  501  502  0.00000000000E+00  0.00000000000E+00  2.08477816876E+02  2.08477816876E+02  0.00000000000E+00  0.00000000000E+00  1.
       21   -1    0    0  502  501  0.00000000000E+00  0.00000000000E+00 -1.87364713334E+01  1.87364713334E+01  0.00000000000E+00  0.00000000000E+00  1.
       39    2    1    2    0    0 -3.55271367880E-15 -3.55271367880E-15  1.89741345543E+02  2.27214288209E+02  1.24998218220E+02  0.00000000000E+00  1.
       23    2    3    3    0    0  9.74064730826E+00 -1.80142395168E+01  1.33508046573E+02  1.62374661280E+02  9.01206918013E+01  0.00000000000E+00  1.
       23    2    3    3    0    0 -9.74064730826E+00  1.80142395168E+01  5.62332989700E+01  6.48396269295E+01  2.49519592810E+01  0.00000000000E+00  1.
        3    1    4    4  803    0 -2.99871015413E+01 -3.28652035592E+01  4.05442161079E+01  6.01928677141E+01  2.23656452171E-06  0.00000000000E+00  1.
       -3    1    4    4    0  803  3.97277488496E+01  1.48509640424E+01  9.29638304648E+01  1.02181793566E+02  3.01578298585E-06  0.00000000000E+00  1.
        2    1    5    5  804    0 -1.01365974146E+01 -3.52755855950E+00  1.83926022315E+01  2.12951190037E+01  0.00000000000E+00  0.00000000000E+00  1.
       -2    1    5    5    0  804  3.95950106360E-01  2.15417980763E+01  3.78406967385E+01  4.35445079258E+01  0.00000000000E+00  0.00000000000E+00  1.
</event>
<event>
 9   2   1.0000000E+00   6.2499476E+01   7.8125000E-03   1.3828958E-01
       21   -1    0    0  501  502  0.00000000000E+00  0.00000000000E+00  4.85923398931E+02  4.85923398931E+02  0.00000000000E+00  0.00000000000E+00  1.
       21   -1    0    0  502  501  0.00000000000E+00  0.00000000000E+00 -8.03868379001E+00  8.03868379001E+00  0.00000000000E+00  0.00000000000E+00  1.
       39    2    1    2    0    0  1.77635683940E-15  7.99360577730E-15  4.77884715141E+02  4.93962082721E+02  1.24998952798E+02  0.00000000000E+00  1.
       23    2    3    3    0    0 -1.17467567782E-01 -3.63359128439E+00  2.09866454860E+02  2.11241903895E+02  2.37906767826E+01  0.00000000000E+00  1.
       23    2    3    3    0    0  1.17467567782E-01  3.63359128439E+00  2.68018260282E+02  2.82720178826E+02  8.99093704052E+01  0.00000000000E+00  1.
        1    1    4    4  803    0  9.18846626855E+00 -3.53944173796E+00  4.28675011012E+01  4.39838404376E+01  2.78041453116E-06  0.00000000000E+00  1.
       -1    1    4    4    0  803 -9.30593383633E+00 -9.41495464317E-02  1.66998953758E+02  1.67258063658E+02  1.90734863281E-06  0.00000000000E+00  1.
        1    1    5    5  804    0  8.72886142796E+00  4.42590207263E+01  1.77291606677E+02  1.82940885904E+02  4.26496119976E-06  0.00000000000E+00  1.
       -1    1    5    5    0  804 -8.61139386018E+00 -4.06254294419E+01  9.07266536052E+01  9.97792929217E+01  1.90734863281E-06  0.00000000000E+00  1.
</event>
<event>
 9   2   1.0000000E+00   6.2500013E+01   7.8125000E-03   1.3828938E-01
       21   -1    0    0  501  502  0.00000000000E+00  0.00000000000E+00  1.91551615885E+03  1.91551615885E+03  0.00000000000E+00  0.00000000000E+00  1.
       21   -1    0    0  502  501  0.00000000000E+00  0.00000000000E+00 -2.03926844799E+00  2.03926844799E+00  0.00000000000E+00  0.00000000000E+00  1.
       39    2    1    2    0    0 -3.55271367880E-15  0.00000000000E+00  1.91347689040E+03  1.91755542729E+03  1.25000026630E+02  0.00000000000E+00  1.
       23    2    3    3    0    0 -2.51539422218E+01 -7.17815320519E+00  6.89025596271E+02  6.89683520097E+02  1.49277890150E+01  0.00000000000E+00  1.
       23    2    3    3    0    0  2.51539422218E+01  7.17815320519E+00  1.22445129413E+03  1.22787190720E+03  8.77735842955E+01  0.00000000000E+00  1.
        2    1    4    4  803    0 -1.85528380639E+01 -5.42658742615E+00  3.13240600835E+02  3.13836469619E+02  5.39479660939E-06  0.00000000000E+00  1.
       -2    1    4    4    0  803 -6.60110415788E+00 -1.75156577904E+00  3.75784995435E+02  3.75847050478E+02  7.62939453125E-06  0.00000000000E+00  1.
        4    1    5    5  804    0  9.63954556874E+00  1.03208439529E+01  2.86676532105E+01  3.19828176412E+01  1.27500000006E+00  0.00000000000E+00  1.
       -4    1    5    5    0  804  1.55143966530E+01 -3.14269074768E+00  1.19578364092E+03  1.19588908956E+03  1.27499999986E+00  0.00000000000E+00  1.
</event>
<event>
 9   2   1.0000000E+00   6.2498971E+01   7.8125000E-03   1.3828977E-01
       21   -1    0    0  501  502  0.00000000000E+00  0.00000000000E+00  3.62115062580E+01  3.62115062580E+01  0.00000000000E+00  0.00000000000E+00  1.
       21   -1    0    0  502  501  0.00000000000E+00  0.00000000000E+00 -1.07869618158E+02  1.07869618158E+02  0.00000000000E+00  0.00000000000E+00  1.
       39    2    1    2    0    0 -1.77635683940E-15 -1.77635683940E-15 -7.16581118997E+01  1.44081124416E+02  1.24997941631E+02  0.00000000000E+00  1.
       23    2    3    3    0    0 -1.07515154829E+01  1.46692785248E+01 -5.22499049964E+01  1.06843962623E+02  9.14045784374E+01  0.00000000000E+00  1.
       23    2    3    3    0    0  1.07515154829E+01 -1.46692785248E+01 -1.94082069033E+01  3.72371617923E+01  2.60604087751E+01  0.00000000000E+00  1.
        1    1    4    4  803    0 -3.93512312180E+01 -3.43950923591E-01  6.41722597005E+00  3.98725280081E+01  1.81574180266E-06  0.00000000000E+00  1.
       -1    1    4    4    0  803  2.85997157351E+01  1.50132294484E+01 -5.86671309664E+01  6.69714346153E+01  1.34869915235E-06  0.00000000000E+00  1.
       14    1    5    5    0    0  1.66044628722E+01 -1.36173279027E+00 -6.80329242508E+00  1.79957575914E+01  0.00000000000E+00  0.00000000000E+00  1.
      -14    1    5    5    0    0 -5.85294738930E+00 -1.33075457346E+01 -1.26049144782E+01  1.92414043009E+01  0.00000000000E+00  0.00000000000E+00  1.
</event>
<event>
 9   2   1.0000000E+00   6.2501643E+01   7.8125000E-03   1.3828877E-01
       21   -1    0    0  501  502  0.00000000000E+00  0.00000000000E+00  4.81275016495E+02  4.81275016495E+02  0.00000000000E+00  0.00000000000E+00  1.
       21   -1    0    0  502  501  0.00000000000E+00  0.00000000000E+00 -8.11688806385E+00  8.11688806385E+00  0.00000000000E+00  0.00000000000E+00  1.
       39    2    1    2    0    0 -3.55271367880E-15  1.77635683940E-15  4.73158128431E+02  4.89391904559E+02  1.25003286946E+02  0.00000000000E+00  1.
       23    2    3    3    0    0  6.30637926068E+00  8.74221912152E+00  4.00896856117E+02  4.10757974837E+02  8.88123180266E+01  0.00000000000E+00  1.
       23    2    3    3    0    0 -6.30637926068E+00 -8.74221912152E+00  7.22612723142E+01  7.86339297218E+01  2.90758768135E+01  0.00000000000E+00  1.
       16    1    4    4    0    0  2.61532105916E+01 -3.13027954558E+01  1.31571545308E+02  1.37749508029E+02  3.81469726562E-06  0.00000000000E+00  1.
      -16    1    4    4    0    0 -1.98468313309E+01  4.00450145773E+01  2.69325310809E+02  2.73008466808E+02  3.81469726562E-06  0.00000000000E+00  1.
       15    1    5    5    0    0 -8.48580679438E+00 -2.25909367192E+00  3.67367602577E+00  9.68325022668E+00  1.77680000000E+00  0.00000000000E+00  1.
      -15    1    5    5    0    0  2.17942753370E+00 -6.48312544960E+00  6.85875962885E+01  6.89506794951E+01  1.77680000000E+00  0.00000000000E+00  1.
</event>
<event>
 9   2   1.0000000E+00   6.2499804E+01   7.8125000E-03   1.3828946E-01
       21   -1    0    0  501  502  0.00000000000E+00  0.00000000000E+00  1.51616598142E+02  1.51616598142E+02  0.00000000000E+00  0.00000000000E+00  1.
       21   -1    0    0  502  501  0.00000000000E+00  0.00000000000E+00 -2.57638381409E+01  2.57638381409E+01  0.00000000000E+00  0.00000000000E+00  1.
       39    2    1    2    0    0  0.00000000000E+00  0.00000000000E+00  1.25852760001E+02  1.77380436283E+02  1.24999607904E+02  0.00000000000E+00  1.
       23    2    3    3    0    0  1.91677347245E+01 -1.56885984705E+01  5.08999939212E+01  5.74011856858E+01  9.51591091359E+00  0.00000000000E+00  1.
       23    2    3    3    0    0 -1.91677347245E+01  1.56885984705E+01  7.49527660802E+01  1.19979250597E+02  9.03524723204E+01  0.00000000000E+00  1.
        2    1    4    4  804    0  8.86716802506E+00 -9.55948336270E+00  3.59374573043E+01  3.82297165624E+01  0.00000000000E+00  0.00000000000E+00  1.
       -2    1    4    4    0  804  1.03005666995E+01 -6.12911510777E+00  1.49625366170E+01  1.91714691234E+01  0.00000000000E+00  0.00000000000E+00  1.
       16    1    5    5    0    0 -6.22951915336E+00 -3.79646986086E+01  3.20852353650E+01  5.00957840317E+01  1.84678237257E-06  0.00000000000E+00  1.
      -16    1    5    5    0    0 -1.29382155712E+01  5.36532970791E+01  4.28675307151E+01  6.98834665657E+01  1.34869915235E-06  0.00000000000E+00  1.
</event>
<event>
 9   2   1.0000000E+00   6.2501951E+01   7.8125000E-03   1.3828866E-01
       21   -1    0    0  501  502  0.00000000000E+00  0.00000000000E+00  1.04567948573E+01  1.04567948573E+01  0.00000000000E+00  0.00000000000E+00  1.
       21   -1    0    0  502  501  0.00000000000E+00  0.00000000000E+00 -3.73584247207E+02  3.73584247207E+02  0.00000000000E+00  0.00000000000E+00  1.
       39    2    1    2    0    0 -1.06581410364E-14  0.00000000000E+00 -3.63127452350E+02  3.84041042065E+02  1.25003901299E+02  0.00000000000E+00  1.
       23    2    3    3    0    0  1.89569438322E+01 -3.44963827052E+00 -5.42341268307E+01  6.08362974305E+01  1.97091057206E+01  0.00000000000E+00  1.
       23    2    3    3    0    0 -1.89569438322E+01  3.44963827052E+00 -3.08893325519E+02  3.23204744634E+02  9.31394367601E+01  0.00000000000E+00  1.
       12    1    4    4    0    0  2.27273275546E+01 -4.30160905540E+00 -4.12927999040E+01  4.73300177705E+01  0.00000000000E+00  0.00000000000E+00  1.
      -12    1    4    4    0    0 -3.77038372234E+00  8.51970784887E-01 -1.29413269267E+01  1.35062796601E+01  0.00000000000E+00  0.00000000000E+00  1.
        5    1    5    5  803    0 -5.30640288919E+01  1.00685985519E+01 -1.29094739723E+02  1.40018506502E+02  4.75000000000E+00  0.00000000000E+00  1.
       -5    1    5    5    0  803  3.41070850596E+01 -6.61896028140E+00 -1.79798585796E+02  1.83186238132E+02  4.75000000000E+00  0.00000000000E+00  1.
</event>
<event>
 9   2   1.0000000E+00   6.2494434E+01   7.8125000E-03   1.3829146E-01
       21   -1    0    0  501  502  0.00000000000E+00  0.00000000000E+00  1.19227806205E+01  1.19227806205E+01  0.00000000000E+00  0.00000000000E+00  1.
       21   -1    0    0  502  501  0.00000000000E+00  0.00000000000E+00 -3.27570755423E+02  3.27570755423E+02  0.00000000000E+00  0.00000000000E+00  1.
       39    2    1    2    0    0  0.00000000000E+00 -2.66453525910E-15 -3.15647974802E+02  3.39493536043E+02  1.24988867578E+02  0.00000000000E+00  1.
       23    2    3    3    0    0  1.63406677414E+00  7.11761860610E+00 -1.95699106224E+02  2.10283228096E+02  7.66000337643E+01  0.00000000000E+00  1.
       23    2    3    3    0    0 -1.63406677414E+00 -7.11761860610E+00 -1.19948868578E+02  1.29210307947E+02  4.74788577983E+01  0.00000000000E+00  1.
        5    1    4    4  804    0  1.87037255600E+01  3.10670451831E+01 -1.58295528826E+02  1.62465465846E+02  4.75000000000E+00  0.00000000000E+00  1.
       -5    1    4    4    0  804 -1.70696587858E+01 -2.39494265770E+01 -3.74035773986E+01  4.78177622505E+01  4.75000000000E+00  0.00000000000E+00  1.
        1    1    5    5  803    0 -1.53688268972E+01 -1.32979917452E+01 -1.08244599751E+02  1.10135965161E+02  2.69739830470E-06  0.00000000000E+00  1.
       -1    1    5    5    0  803  1.37347601230E+01  6.18037313905E+00 -1.17042688274E+01  1.90743429867E+01  1.36961046375E-06  0.00000000000E+00  1.
</event>
<event>
 9   2   1.0000000E+00   6.2499922E+01   7.8125000E-03   1.3828942E-01
       21   -1    0    0  501  502  0.00000000000E+00  0.00000000000E+00  1.80689433969E+02  1.80689433969E+02  0.00000000000E+00  0.00000000000E+00  1.
       21   -1    0    0  502  501  0.00000000000E+00  0.00000000000E+00 -2.16185313261E+01  2.16185313261E+01  0.00000000000E+00  0.00000000000E+00  1.
       39    2    1    2    0    0  0.00000000000E+00  0.00000000000E+00  1.59070902643E+02  2.02307965295E+02  1.24999843017E+02  0.00000000000E+00  1.
       23    2    3    3    0    0 -1.51888260483E+01 -1.77045725111E+01  2.26030268736E+01  3.63528872403E+01  1.63243150648E+01  0.00000000000E+00  1.
       23    2    3    3    0    0  1.51888260483E+01  1.77045725111E+01  1.36467875769E+02  1.65955078055E+02  9.15065816793E+01  0.00000000000E+00  1.
        2    1    4    4  804    0 -1.05501992172E+01 -1.57933983437E+01  7.46890247902E+00  2.04088863755E+01  0.00000000000E+00  0.00000000000E+00  1.
       -2    1    4    4    0  804 -4.63862683109E+00 -1.91117416739E+00  1.51341243946E+01  1.59440009649E+01  0.00000000000E+00  0.00000000000E+00  1.
        1    1    5    5  803    0  3.90960184343E+00  5.51485598633E+01  8.23057216799E+01  9.91507965818E+01  1.90734863281E-06  0.00000000000E+00  1.
       -1    1    5    5    0  803  1.12792242048E+01 -3.74439873522E+01  5.41621540894E+01  6.68042814728E+01  0.00000000000E+00  0.00000000000E+00  1.
</event>
<event>
 9   2   1.0000000E+00   6.2500225E+01   7.8125000E-03   1.3828930E-01
       21   -1    0    0  501  502  0.00000000000E+00  0.00000000000E+00  4.75316937946E+00  4.75316937946E+00  0.00000000000E+00  0.00000000000E+00  1.
       21   -1    0    0  502  501  0.00000000000E+00  0.00000000000E+00 -8.21825993725E+02  8.21825993725E+02  0.00000000000E+00  0.00000000000E+00  1.
       39    2    1    2    0    0 -3.55271367880E-15  0.00000000000E+00 -8.17072824346E+02  8.26579163105E+02  1.25000450377E+02  0.00000000000E+00  1.
       23    2    3    3    0    0  1.88898272512E+01  2.29164489303E+00 -3.09932550904E+02  3.11069319287E+02  1.85434107395E+01  0.00000000000E+00  1.
       23    2    3    3    0    0 -1.88898272512E+01 -2.29164489303E+00 -5.07140273442E+02  5.15509843818E+02  9.05376436437E+01  0.00000000000E+00  1.
        4    1    4    4  803    0  1.74145394563E+01 -5.22917473419E+00 -1.85122980734E+02  1.86018155226E+02  1.27500000000E+00  0.00000000000E+00  1.
       -4    1    4    4    0  803  1.47528779494E+00  7.52081962722E+00 -1.24809570170E+02  1.25051164061E+02  1.27500000000E+00  0.00000000000E+00  1.
        3    1    5    5  804    0  2.90923729360E+01  4.22922765839E+00 -3.46114528315E+02  3.47360791167E+02  3.81469726562E-06  0.00000000000E+00  1.
       -3    1    5    5    0  804 -4.79822001872E+01 -6.52087255142E+00 -1.61025745127E+02  1.68149052650E+02  3.81469726562E-06  0.00000000000E+00  1.
</event>
<event>
 9   2   1.0000000E+00   6.2499947E+01   7.8125000E-03   1.3828941E-01
       21   -1    0    0  501  502  0.00000000000E+00  0.00000000000E+00  5.90435206313E+01  5.90435206313E+01  0.00000000000E+00  0.00000000000E+00  1.
       21   -1    0    0  502  501  0.00000000000E+00  0.00000000000E+00 -6.61587132818E+01  6.61587132818E+01  0.00000000000E+00  0.00000000000E+00  1.
       39    2    1    2    0    0 -3.10862446895E-15  5.32907051820E-15 -7.11519265050E+00  1.25202233913E+02  1.24999893642E+02  0.00000000000E+00  1.
       23    2    3    3    0    0 -3.60843757834E+00 -5.65785445980E+00 -1.14720917096E+01  8.16674124955E+01  8.05786897180E+01  0.00000000000E+00  1.
       23    2    3    3    0    0  3.60843757834E+00  5.65785445980E+00  4.35689905913E+00  4.35348214177E+01  4.27932934887E+01  0.00000000000E+00  1.
       16    1    4    4    0    0  1.30831294807E+01 -2.19291744505E+01 -3.83600080837E+01  4.60819617474E+01  1.50789149292E-06  0.00000000000E+00  1.
      -16    1    4    4    0    0 -1.66915670590E+01  1.62713199907E+01  2.68879163740E+01  3.55854509481E+01  1.11828226085E-06  0.00000000000E+00  1.
        5    1    5    5  803    0 -9.47416035471E-01  1.25071257054E+00  2.28635005844E+01  2.34043593813E+01  4.75000000000E+00  0.00000000000E+00  1.
       -5    1    5    5    0  803  4.55585361381E+00  4.40714188926E+00 -1.85066015253E+01  2.01304620364E+01  4.75000000000E+00  0.00000000000E+00  1.
</event>
<event>
 9   2   1.0000000E+00   6.2499395E+01   7.8125000E-03   1.3828961E-01
       21   -1    0    0  501  502  0.00000000000E+00  0.00000000000E+00  9.28931904194E+00  9.28931904194E+00  0.00000000000E+00  0.00000000000E+00  1.
       21   -1    0    0  502  501  0.00000000000E+00  0.00000000000E+00 -4.20501691852E+02  4.20501691852E+02  0.00000000000E+00  0.00000000000E+00  1.
       39    2    1    2    0    0  1.77635683940E-15  7.10542735760E-15 -4.11212372810E+02  4.29791010894E+02  1.24998789967E+02  0.00000000000E+00  1.
       23    2    3    3    0    0  1.16113361477E+01 -2.75637255379E+01 -3.14148095671E+02  3.21466752071E+02  6.12965299228E+01  0.00000000000E+00  1.
       23    2    3    3    0    0 -1.16113361477E+01  2.75637255379E+01 -9.70642771384E+01  1.08324258822E+02  3.76575232905E+01  0.00000000000E+00  1.
       12    1    4    4    0    0  7.90579855459E-01 -1.62075529901E+01 -2.99705512593E+02  3.00144472095E+02  3.81469726562E-06  0.00000000000E+00  1.
      -12    1    4    4    0    0  1.08207562922E+01 -1.13561725478E+01 -1.44425830779E+01  2.13222800759E+01  5.69216555896E-06  0.00000000000E+00  1.
        4    1    5    5  803    0  1.76467014145E-01  1.46086237194E+01 -8.67016150493E+01  8.79331490665E+01  1.27500000000E+00  0.00000000000E+00  1.
       -4    1    5    5    0  803 -1.17878031618E+01  1.29551018185E+01 -1.03626620891E+01  2.03911097560E+01  1.27500000000E+00  0.00000000000E+00  1.
</event>
<event>
 9   2   1.0000000E+00   6.2486336E+01   7.8125000E-03   1.3829449E-01
       21   -1    0    0  501  502  0.00000000000E+00  0.00000000000E+00  2.23904321344E+02  2.23904321344E+02  0.00000000000E+00  0.00000000000E+00  1.
       21   -1    0    0  502  501  0.00000000000E+00  0.00000000000E+00 -1.74384407473E+01  1.74384407473E+01  0.00000000000E+00  0.00000000000E+00  1.
       39    2    1    2    0    0 -3.55271367880E-15  2.66453525910E-15  2.06465880597E+02  2.41342762092E+02  1.24972672866E+02  0.00000000000E+00  1.
       23    2    3    3    0    0 -1.76886485419E+01  6.34241376650E+00  1.85135509302E+02  2.07162830044E+02  9.10393697681E+01  0.00000000000E+00  1.
       23    2    3    3    0    0  1.76886485419E+01 -6.34241376650E+00  2.13303712947E+01  3.41799320472E+01  1.89781062163E+01  0.00000000000E+00  1.
        4    1    4    4  804    0 -7.87840896337E+00 -1.34879073939E+01  1.84321863918E+02  1.84986940395E+02  1.27500000000E+00  0.00000000000E+00  1.
       -4    1    4    4    0  804 -9.81023957853E+00  1.98303211604E+01  8.13645384295E-01  2.21758896490E+01  1.27500000000E+00  0.00000000000E+00  1.
        3    1    5    5  803    0  1.42090554806E+01 -5.90391777425E+00  3.20328583340E+00  1.57166963089E+01  0.00000000000E+00  0.00000000000E+00  1.
       -3    1    5    5    0  803  3.47959306130E+00 -4.38495992242E-01  1.81270854613E+01  1.84632357383E+01  0.00000000000E+00  0.00000000000E+00  1.
</event>
<event>
 9   2   1.0000000E+00   6.2500025E+01   7.8125000E-03   1.3828938E-01
       21   -1    0    0  501  502  0.00000000000E+00  0.00000000000E+00  1.68440457511E+00  1.68440457511E+00  0.00000000000E+00  0.00000000000E+00  1.
       21   -1    0    0  502  501  0.00000000000E+00  0.00000000000E+00 -2.31907062147E+03  2.31907062147E+03  0.00000000000E+00  0.00000000000E+00  1.
       39    2    1    2    0    0  0.00000000000E+00  0.00000000000E+00 -2.31738621690E+03  2.32075502605E+03  1.25000050637E+02  0.00000000000E+00  1.
       23    2    3    3    0    0 -1.93633836936E+01  1.64214644247E+01 -1.59819874780E+03  1.60055760757E+03  8.30711295397E+01  0.00000000000E+00  1.
       23    2    3    3    0    0  1.93633836936E+01 -1.64214644247E+01 -7.19187469100E+02  7.20197418479E+02  2.84446963650E+01  0.00000000000E+00  1.
        1    1    4    4  803    0 -1.20099407359E+01  1.42125574753E+01 -7.28268436296E+01  7.51663796824E+01  4.26496119976E-06  0.00000000000E+00  1.
       -1    1    4    4    0  803 -7.35344295765E+00  2.20890694948E+00 -1.52537190417E+03  1.52539122809E+03  2.15791864376E-05  0.00000000000E+00  1.
        5    1    5    5  804    0  1.38778349819E+01 -9.49681376643E+00 -1.65655315177E+02  1.66574396958E+02  4.74999999999E+00  0.00000000000E+00  1.
       -5    1    5    5    0  804  5.48554871168E+00 -6.92465065832E+00 -5.53532153922E+02  5.53623021520E+02  4.74999999999E+00  0.00000000000E+00  1.
</event>
<event>
 9   2   1.0000000E+00   6.2498991E+01   7.8125000E-03   1.3828976E-01
       21   -1    0    0  501  502  0.00000000000E+00  0.00000000000E+00  1.68191647765E+01  1.68191647765E+01  0.00000000000E+00  0.00000000000E+00  1.
       21   -1    0    0  502  501  0.00000000000E+00  0.00000000000E+00 -2.32242437685E+02  2.32242437685E+02  0.00000000000E+00  0.00000000000E+00  1.
       39    2    1    2    0    0 -3.55271367880E-15 -3.55271367880E-15 -2.15423272909E+02  2.49061602462E+02  1.24997981224E+02  0.00000000000E+00  1.
       23    2    3    3    0    0  2.08362474639E+01 -8.35298458373E+00 -1.71916714827E+02  1.94974877603E+02  8.91959892570E+01  0.00000000000E+00  1.
       23    2    3    3    0    0 -2.08362474639E+01  8.35298458373E+00 -4.35065580816E+01  5.40867248588E+01  2.29919909971E+01  0.00000000000E+00  1.
       15    1    4    4    0    0  1.65942740211E+00  3.90019175823E+01 -5.60066691322E+01  6.82920733315E+01  1.77680000000E+00  0.00000000000E+00  1.
      -15    1    4    4    0    0  1.91768200617E+01 -4.73549021661E+01 -1.15910045695E+02  1.26682804272E+02  1.77680000000E+00  0.00000000000E+00  1.
        5    1    5    5  803    0 -1.51294085167E+01  4.35392350316E+00 -4.25281317892E+01  4.55967120022E+01  4.75000000000E+00  0.00000000000E+00  1.
       -5    1    5    5    0  803 -5.70683894713E+00  3.99906108057E+00 -9.78426292397E-01  8.49001285654E+00  4.75000000000E+00  0.00000000000E+00  1.
</event>
<event>
 9   2   1.0000000E+00   6.2501303E+01   7.8125000E-03   1.3828890E-01
       21   -1    0    0  501  502  0.00000000000E+00  0.00000000000E+00  6.63673014507E+00  6.63673014507E+00  0.00000000000E+00  0.00000000000E+00  1.
       21   -1    0    0  502  501  0.00000000000E+00  0.00000000000E+00 -5.88605054891E+02  5.88605054891E+02  0.00000000000E+00  0.00000000000E+00  1.
       39    2    1    2    0    0  8.88178419700E-16  0.00000000000E+00 -5.81968324746E+02  5.95241785036E+02  1.25002606554E+02  0.00000000000E+00  1.
       23    2    3    3    0    0  4.62330406259E+00 -2.30238167866E+01 -8.29159571957E+01  8.75390714680E+01  1.53805720287E+01  0.00000000000E+00  1.
       23    2    3    3    0    0 -4.62330406259E+00  2.30238167866E+01 -4.99052367551E+02  5.07702713568E+02  9.03178206500E+01  0.00000000000E+00  1.
       13    1    4    4    0    0  4.11218668610E+00 -1.66813715582E+01 -3.28635529616E+01  3.70837230291E+01  1.05659999998E-01  0.00000000000E+00  1.
      -13    1    4    4    0    0  5.11117376492E-01 -6.34244522848E+00 -5.00524042340E+01  5.04553484389E+01  1.05660000004E-01  0.00000000000E+00  1.
        4    1    5    5  804    0 -1.10196026777E+01  2.11558063115E+01 -5.00244393634E+02  5.00814415499E+02  1.27500000003E+00  0.00000000000E+00  1.
       -4    1    5    5    0  804  6.39629861510E+00  1.86801047513E+00  1.19202608384E+00  6.88829806943E+00  1.27500000002E+00  0.00000000000E+00  1.
</event>
<event>
 9   2   1.0000000E+00   6.2500756E+01   7.8125000E-03   1.3828910E-01
       21   -1    0    0  501  502  0.00000000000E+00  0.00000000000E+00  4.77931158642E+01  4.77931158642E+01  0.00000000000E+00  0.00000000000E+00  1.
       21   -1    0    0  502  501  0.00000000000E+00  0.00000000000E+00 -8.17344597948E+01  8.17344597948E+01  0.00000000000E+00  0.00000000000E+00  1.
       39    2    1    2    0    0  0.00000000000E+00 -7.10542735760E-15 -3.39413439306E+01  1.29527575659E+02  1.25001512104E+02  0.00000000000E+00  1.
       23    2    3    3    0    0 -1.05195038535E+01  7.84363902558E+00 -3.65947669272E+01  8.64466145743E+01  7.72117709318E+01  0.00000000000E+00  1.
       23    2    3    3    0    0  1.05195038535E+01 -7.84363902558E+00  2.65342299659E+00  4.30809610846E+01  4.09480881103E+01  0.00000000000E+00  1.
       12    1    4    4    0    0 -1.49616074782E+01  1.94884352121E+01 -5.72630381042E+01  6.23113499956E+01  1.50789149292E-06  0.00000000000E+00  1.
      -12    1    4    4    0    0  4.44210362474E+00 -1.16447961865E+01  2.06682711770E+01  2.41352645787E+01  1.16800772800E-06  0.00000000000E+00  1.
        1    1    5    5  804    0 -4.40308495619E+00 -1.84314357817E+01 -9.41717513998E+00  2.11610059769E+01  0.00000000000E+00  0.00000000000E+00  1.
       -1    1    5    5    0  804  1.49225888097E+01  1.05877967561E+01  1.20705981366E+01  2.19199553077E+01  0.00000000000E+00  0.00000000000E+00  1.
</event>
<event>
 9   2   1.0000000E+00   6.2503603E+01   7.8125000E-03   1.3828804E-01
       21   -1    0    0  501  502  0.00000000000E+00  0.00000000000E+00  1.21294557608E+02  1.21294557608E+02  0.00000000000E+00  0.00000000000E+00  1.
       21   -1    0    0  502  501  0.00000000000E+00  0.00000000000E+00 -3.22083729313E+01  3.22083729313E+01  0.00000000000E+00  0.00000000000E+00  1.
       39    2    1    2    0    0  0.00000000000E+00  0.00000000000E+00  8.90861846767E+01  1.53502930539E+02  1.25007205328E+02  0.00000000000E+00  1.
       23    2    3    3    0    0  1.04657599313E+01 -2.38425677820E+00  7.41679079428E+00  3.10986458784E+01  2.82294204414E+01  0.00000000000E+00  1.
       23    2    3    3    0    0 -1.04657599313E+01  2.38425677820E+00  8.16693938824E+01  1.22404284661E+02  9.05411629862E+01  0.00000000000E+00  1.
        1    1    5    5  804    0  3.72319627757E+01  1.63666683861E+01  2.87749727809E+01  4.98205373790E+01  0.00000000000E+00  0.00000000000E+00  1.
       -1    1    4    4    0  803  5.17077975707E+00  9.97386683572E+00  1.24254180369E+01  1.67512983480E+01  0.00000000000E+00  0.00000000000E+00  1.
        1    1    4    4  803    0  5.29498017423E+00 -1.23581236139E+01 -5.00862724259E+00  1.43473476304E+01  0.00000000000E+00  0.00000000000E+00  1.
       -1    1    5    5    0  804 -4.76977227070E+01 -1.39824116079E+01  5.28944211015E+01  7.25837473818E+01  1.34869915235E-06  0.00000000000E+00  1.
</event>
<event>
 9   2   1.0000000E+00   6.2494711E+01   7.8125000E-03   1.3829136E-01
       21   -1    0    0  501  502  0.00000000000E+00  0.00000000000E+00  2.06182694208E+02  2.06182694208E+02  0.00000000000E+00  0.00000000000E+00  1.
       21   -1    0    0  502  501  0.00000000000E+00  0.00000000000E+00 -1.89423702295E+01  1.89423702295E+01  0.00000000000E+00  0.00000000000E+00  1.
       39    2    1    2    0    0  2.22044604925E-15 -3.55271367880E-15  1.87240323979E+02  2.25125064437E+02  1.24989422410E+02  0.00000000000E+00  1.
       23    2    3    3    0    0 -2.18222629297E+00  7.86621916954E+00  4.31251065787E+01  5.25627674648E+01  2.89211028580E+01  0.00000000000E+00  1.
       23    2    3    3    0    0  2.18222629297E+00 -7.86621916954E+00  1.44115217400E+02  1.72562296973E+02  9.45616779390E+01  0.00000000000E+00  1.
        3    1    4    4  804    0 -2.19539220696E+00  5.82416349084E+00 -2.63365706046E+00  6.75845964866E+00  0.00000000000E+00  0.00000000000E+00  1.
       -3    1    4    4    0  804  1.31659139919E-02  2.04205567869E+00  4.57587636391E+01  4.58043079162E+01  0.00000000000E+00  0.00000000000E+00  1.
        2    1    5    5  803    0 -4.27076660100E+01  7.55028294133E+00  9.40857516154E+01  1.03600579948E+02  2.33601545599E-06  0.00000000000E+00  1.
       -2    1    5    5    0  803  4.48898923030E+01 -1.54165021109E+01  5.00294657844E+01  6.89617170246E+01  2.33601545599E-06  0.00000000000E+00  1.
</event>
<event>
 9   2   1.0000000E+00   6.2500564E+01   7.8125000E-03   1.3828918E-01
       21   -1    0    0  501  502  0.00000000000E+00  0.00000000000E+00  2.54665724988E+01  2.54665724988E+01  0.00000000000E+00  0.00000000000E+00  1.
       21   -1    0    0  502  501  0.00000000000E+00  0.00000000000E+00 -1.53390115246E+02  1.53390115246E+02  0.00000000000E+00  0.00000000000E+00  1.
       39    2    1    2    0    0  3.55271367880E-15  3.55271367880E-15 -1.27923542748E+02  1.78856687745E+02  1.25001127843E+02  0.00000000000E+00  1.
       23    2    3    3    0    0  1.08091042712E+01  5.55524437832E+00 -9.54359856302E+01  1.29432646452E+02  8.65857097855E+01  0.00000000000E+00  1.
       23    2    3    3    0    0 -1.08091042712E+01 -5.55524437832E+00 -3.24875571175E+01  4.94240412935E+01  3.52079112569E+01  0.00000000000E+00  1.
       14    1    4    4    0    0  3.36647878336E+00  1.81638711079E+01 -1.08347735774E+02  1.09911288148E+02  1.34869915235E-06  0.00000000000E+00  1.
      -14    1    4    4    0    0  7.44262548785E+00 -1.26086267296E+01  1.29117501437E+01  1.95213584039E+01  0.00000000000E+00  0.00000000000E+00  1.
        2    1    5    5  803    0  1.32912413177E+00 -4.70131067710E+00  6.75592133885E+00  8.33734777039E+00  0.00000000000E+00  0.00000000000E+00  1.
       -2    1    5    5    0  803 -1.21382284030E+01 -8.53933701222E-01 -3.92434784563E+01  4.10866937231E+01  0.00000000000E+00  0.00000000000E+00  1.
</event>
<event>
 9   2   1.0000000E+00   6.2499989E+01   7.8125000E-03   1.3828939E-01
       21   -1    0    0  501  502  0.00000000000E+00  0.00000000000E+00  1.08007750946E+01  1.08007750946E+01  0.00000000000E+00  0.00000000000E+00  1.
       21   -1    0    0  502  501  0.00000000000E+00  0.00000000000E+00 -3.61663733740E+02  3.61663733740E+02  0.00000000000E+00  0.00000000000E+00  1.
       39    2    1    2    0    0 -6.66133814775E-16 -3.55271367880E-15 -3.50862958646E+02  3.72464508835E+02  1.24999978368E+02  0.00000000000E+00  1.
       23    2    3    3    0    0 -1.73412694134E+00 -8.81041012859E+00 -2.78106327552E+02  2.92382584616E+02  8.97987518797E+01  0.00000000000E+00  1.
       23    2    3    3    0    0  1.73412694134E+00  8.81041012859E+00 -7.27566310938E+01  8.00819242193E+01  3.22328511875E+01  0.00000000000E+00  1.
        3    1    4    4  803    0  1.28042385562E+01  7.93687223239E+00 -1.78190378618E+00  1.51696290970E+01  3.90131637902E-06  0.00000000000E+00  1.
       -3    1    4    4    0  803 -1.45383654976E+01 -1.67472823610E+01 -2.76324423766E+02  2.77212955518E+02  3.81469726562E-06  0.00000000000E+00  1.
       13    1    5    5    0    0  1.93920632772E+00  1.65103288828E+01 -1.69337673383E+01  2.37300468037E+01  1.05660000004E-01  0.00000000000E+00  1.
      -13    1    5    5    0    0 -2.05079386378E-01 -7.69991875422E+00 -5.58228637554E+01  5.63518774157E+01  1.05660000006E-01  0.00000000000E+00  1.
</event>
<event>
 9   2   1.0000000E+00   6.2501346E+01   7.8125000E-03   1.3828888E-01
       21   -1    0    0  501  502  0.00000000000E+00  0.00000000000E+00  4.16967607566E+00  4.16967607566E+00  0.00000000000E+00  0.00000000000E+00  1.
       21   -1    0    0  502  501  0.00000000000E+00  0.00000000000E+00 -9.36863735202E+02  9.36863735202E+02  0.00000000000E+00  0.00000000000E+00  1.
       39    2    1    2    0    0  1.77635683940E-15  7.10542735760E-15 -9.32694059126E+02  9.41033411278E+02  1.25002692816E+02  0.00000000000E+00  1.
       23    2    3    3    0    0 -9.00167716141E-02 -1.89363315404E+01 -7.49149098386E+02  7.54604351599E+02  8.85706671818E+01  0.00000000000E+00  1.
       23    2    3    3    0    0  9.00167716141E-02  1.89363315404E+01 -1.83544960741E+02  1.86429059679E+02  2.66167038550E+01  0.00000000000E+00  1.
        5    1    4    4  804    0 -1.40494227105E+01  2.68584365461E+01 -1.29268182072E+02  1.32859276260E+02  4.75000000000E+00  0.00000000000E+00  1.
       -5    1    4    4    0  804  1.39594059388E+01 -4.57947680864E+01 -6.19880916314E+02  6.21745075339E+02  4.74999999999E+00  0.00000000000E+00  1.
        1    1    5    5  803    0  2.86764922210E+00 -2.29605020010E+00 -3.36712707188E+00  4.98325238145E+00  3.91784372446E-06  0.00000000000E+00  1.
       -1    1    5    5    0  803 -2.77763245048E+00  2.12323817405E+01 -1.80177833669E+02  1.81445807497E+02  1.90734863281E-06  0.00000000000E+00  1.
</event>
<event>
 9   2   1.0000000E+00   6.2498928E+01   7.8125000E-03   1.3828979E-01
       21   -1    0    0  501  502  0.00000000000E+00  0.00000000000E+00  1.94178171123E+01  1.94178171123E+01  0.00000000000E+00  0.00000000000E+00  1.
       21   -1    0    0  502  501  0.00000000000E+00  0.00000000000E+00 -2.01161440191E+02  2.01161440191E+02  0.00000000000E+00  0.00000000000E+00  1.
       39    2    1    2    0    0 -3.55271367880E-15  1.77635683940E-15 -1.81743623079E+02  2.20579257303E+02  1.24997856872E+02  0.00000000000E+00  1.
       23    2    3    3    0    0  1.44337430234E+01 -1.56423141829E+01 -2.82256281299E+01  4.44121177704E+01  2.68837346897E+01  0.00000000000E+00  1.
       23    2    3    3    0    0 -1.44337430234E+01  1.56423141829E+01 -1.53517994949E+02  1.76167139533E+02  8.37500528206E+01  0.00000000000E+00  1.
       12    1    4    4    0    0  1.56854526692E+01  1.88506617595E+00 -8.30288685620E+00  1.78472639380E+01  0.00000000000E+00  0.00000000000E+00  1.
      -12    1    4    4    0    0 -1.25170964580E+00 -1.75273803588E+01 -1.99227412737E+01  2.65648538325E+01  0.00000000000E+00  0.00000000000E+00  1.
       14    1    5    5    0    0  1.13417396663E+01  3.01323539839E+01 -1.68537841309E+01  3.63406640290E+01  0.00000000000E+00  0.00000000000E+00  1.
      -14    1    5    5    0    0 -2.57754826897E+01 -1.44900398010E+01 -1.36664210818E+02  1.39826475604E+02  0.00000000000E+00  0.00000000000E+00  1.
</event>
<event>
 9   2   1.0000000E+00   6.2500075E+01   7.8125000E-03   1.3828936E-01
       21   -1    0    0  501  502  0.00000000000E+00  0.00000000000E+00  1.67415282686E+03  1.67415282686E+03  0.00000000000E+00  0.00000000000E+00  1.
       21   -1    0    0  502  501  0.00000000000E+00  0.00000000000E+00 -2.33327527143E+00  2.33327527143E+00  0.00000000000E+00  0.00000000000E+00  1.
       39    2    1    2    0    0  5.32907051820E-15  0.00000000000E+00  1.67181955159E+03  1.67648610213E+03  1.25000150264E+02  0.00000000000E+00  1.
       23    2    3    3    0    0  6.12987714581E+00 -1.77942697626E+01  1.11946714092E+03  1.12341404503E+03  9.21858206625E+01  0.00000000000E+00  1.
       23    2    3    3    0    0 -6.12987714581E+00  1.77942697626E+01  5.52352410667E+02  5.53072057104E+02  2.10072213674E+01  0.00000000000E+00  1.
        1    1    4    4  803    0 -3.22228504089E+01 -2.58009997122E+01  2.79314782028E+02  2.82348634121E+02  6.60724947956E-06  0.00000000000E+00  1.
       -1    1    4    4    0  803  3.83527275547E+01  8.00672994956E+00  8.40152358897E+02  8.41065411009E+02  1.07895932188E-05  0.00000000000E+00  1.
       15    1    5    5    0    0 -4.87509467360E+00  5.67072706979E+00  4.36325924591E+02  4.36393621839E+02  1.77679999999E+00  0.00000000000E+00  1.
      -15    1    5    5    0    0 -1.25478247220E+00  1.21235426929E+01  1.16026486077E+02  1.16678435266E+02  1.77680000000E+00  0.00000000000E+00  1.
</event>
<event>
 9   2   1.0000000E+00   6.2503187E+01   7.8125000E-03   1.3828820E-01
       21   -1    0    0  501  502  0.00000000000E+00  0.00000000000E+00  2.56669114572E+02  2.56669114572E+02  0.00000000000E+00  0.00000000000E+00  1.
       21   -1    0    0  502  501  0.00000000000E+00  0.00000000000E+00 -1.52205626248E+01  1.52205626248E+01  0.00000000000E+00  0.00000000000E+00  1.
       39    2    1    2    0    0 -1.77635683940E-15  1.77635683940E-15  2.41448551947E+02  2.71889677197E+02  1.25006373153E+02  0.00000000000E+00  1.
       23    2    3    3    0    0 -6.43768627746E+00 -3.74106884199E+00  1.37134445982E+02  1.65018968192E+02  9.14875083704E+01  0.00000000000E+00  1.
       23    2    3    3    0    0  6.43768627746E+00  3.74106884199E+00  1.04314105966E+02  1.06870709005E+02  2.20108232258E+01  0.00000000000E+00  1.
        3    1    4    4  803    0 -2.00573947100E+01  2.86602968522E+01  1.21707317687E+02  1.26634840791E+02  2.33601545599E-06  0.00000000000E+00  1.
       -3    1    4    4    0  803  1.36197084325E+01 -3.24013656942E+01  1.54271282949E+01  3.83841275017E+01  1.42054263208E-06  0.00000000000E+00  1.
        3    1    5    5  804    0  1.08048415308E+01  6.43913310555E+00  9.76598096538E+01  9.84664686951E+01  0.00000000000E+00  0.00000000000E+00  1.
       -3    1    5    5    0  804 -4.36715525336E+00 -2.69806426357E+00  6.65429631187E+00  8.40424040972E+00  1.58821494513E-06  0.00000000000E+00  1.
</event>
<event>
 9   2   1.0000000E+00   6.2501186E+01   7.8125000E-03   1.3828894E-01
       21   -1    0    0  501  502  0.00000000000E+00  0.00000000000E+00  3.65533261627E+02  3.65533261627E+02  0.00000000000E+00  0.00000000000E+00  1.
       21   -1    0    0  502  501  0.00000000000E+00  0.00000000000E+00 -1.06868476700E+01  1.06868476700E+01  0.00000000000E+00  0.00000000000E+00  1.
       39    2    1    2    0    0  1.77635683940E-15  4.44089209850E-15  3.54846413957E+02  3.76220109297E+02  1.25002372543E+02  0.00000000000E+00  1.
       23    2    3    3    0    0 -1.00795594142E+01  7.50172738826E+00  1.55100632640E+02  1.58820304679E+02  3.17774999224E+01  0.00000000000E+00  1.
       23    2    3    3    0    0  1.00795594142E+01 -7.50172738826E+00  1.99745781317E+02  2.17399804617E+02  8.48906618074E+01  0.00000000000E+00  1.
        5    1    4    4  803    0 -5.36003872868E+00 -1.24305647932E+00  6.31908161646E+00  9.63164041372E+00  4.75000000000E+00  0.00000000000E+00  1.
       -5    1    4    4    0  803 -4.71952068549E+00  8.74478386758E+00  1.48781551024E+02  1.49188664266E+02  4.75000000000E+00  0.00000000000E+00  1.
        5    1    5    5  804    0  3.91570454883E+01 -2.56380914546E+01  1.46787177429E+02  1.54141570974E+02  4.75000000000E+00  0.00000000000E+00  1.
       -5    1    5    5    0  804 -2.90774860742E+01  1.81363640663E+01  5.29586038881E+01  6.32582336437E+01  4.75000000000E+00  0.00000000000E+00  1.
</event>
<event>
 9   2   1.0000000E+00   6.2512156E+01   7.8125000E-03   1.3828485E-01
       21   -1    0    0  501  502  0.00000000000E+00  0.00000000000E+00  5.07226227898E+02  5.07226227898E+02  0.00000000000E+00  0.00000000000E+00  1.
       21   -1    0    0  502  501  0.00000000000E+00  0.00000000000E+00 -7.70419478065E+00  7.70419478065E+00  0.00000000000E+00  0.00000000000E+00  1.
       39    2    1    2    0    0 -3.55271367880E-15  7.10542735760E-15  4.99522033117E+02  5.14930422678E+02  1.25024312157E+02  0.00000000000E+00  1.
       23    2    3    3    0    0 -1.77988948632E+01 -1.00740845855E+01  3.50532742183E+02  3.63407554394E+02  9.36672803594E+01  0.00000000000E+00  1.
       23    2    3    3    0    0  1.77988948632E+01  1.00740845855E+01  1.48989290934E+02  1.51522868284E+02  1.85224987896E+01  0.00000000000E+00  1.
       11    1    4    4    0    0 -8.43578357805E+00 -2.86474917618E+01  3.37592556711E+02  3.38910866712E+02  5.10984358804E-04  0.00000000000E+00  1.
      -11    1    4    4    0    0 -9.36311128511E+00  1.85734071763E+01  1.29401854719E+01  2.44966876818E+01  5.10981188370E-04  0.00000000000E+00  1.
       13    1    5    5    0    0  1.86755474828E+00  8.94733258731E+00  2.72932063141E+01  2.87832033677E+01  1.05660000008E-01  0.00000000000E+00  1.
      -13    1    5    5    0    0  1.59313401149E+01  1.12675199822E+00  1.21696084620E+02  1.22739664917E+02  1.05660000030E-01  0.00000000000E+00  1.
</event>
<event>
 9   2   1.0000000E+00   6.2500394E+01   7.8125000E-03   1.3828924E-01
       21   -1    0    0  501  502  0.00000000000E+00  0.00000000000E+00  1.20280352043E+03  1.20280352043E+03  0.00000000000E+00  0.00000000000E+00  1.
       21   -1    0    0  502  501  0.00000000000E+00  0.00000000000E+00 -3.24766197014E+00  3.24766197014E+00  0.00000000000E+00  0.00000000000E+00  1.
       39    2    1    2    0    0 -3.55271367880E-15  8.88178419700E-16  1.19955585846E+03  1.20605118240E+03  1.25000788011E+02  0.00000000000E+00  1.
       23    2    3    3    0    0 -1.67076341466E+01  6.05988108263E+00  2.38417788873E+02  2.40464961217E+02  2.57776710419E+01  0.00000000000E+00  1.
       23    2    3    3    0    0  1.67076341466E+01 -6.05988108263E+00  9.61138069586E+02  9.65586221183E+02  9.08542488420E+01  0.00000000000E+00  1.
        3    1    4    4  803    0 -5.78113651880E+00 -5.93154133360E+00  2.31569876566E+01  2.45937147314E+01  3.25159590172E-06  0.00000000000E+00  1.
       -3    1    4    4    0  803 -1.09264976278E+01  1.19914224162E+01  2.15260801217E+02  2.15871246585E+02  0.00000000000E+00  0.00000000000E+00  1.
       14    1    5    5    0    0 -2.84716517933E+01  2.42016952128E+01  4.56496002530E+02  4.58022878613E+02  0.00000000000E+00  0.00000000000E+00  1.
      -14    1    5    5    0    0  4.51792859399E+01 -3.02615762954E+01  5.04642067056E+02  5.07563342670E+02  7.62939453125E-06  0.00000000000E+00  1.
</event>
<event>
 9   2   1.0000000E+00   6.2508355E+01   7.8125000E-03   1.3828627E-01
       21   -1    0    0  501  502  0.00000000000E+00  0.00000000000E+00  1.77883921029E+02  1.77883921029E+02  0.00000000000E+00  0.00000000000E+00  1.
       21   -1    0    0  502  501  0.00000000000E+00  0.00000000000E+00 -2.19654164303E+01  2.19654164303E+01  0.00000000000E+00  0.00000000000E+00  1.
       39    2    1    2    0    0 -1.77635683940E-15  3.55271367880E-15  1.55918504599E+02  1.99849337460E+02  1.25016709310E+02  0.00000000000E+00  1.
       23    2    3    3    0    0 -2.83709217867E+00 -2.58112458178E+00 -4.92572753590E+00  1.51794105189E+01  1.38361994712E+01  0.00000000000E+00  1.
       23    2    3    3    0    0  2.83709217867E+00  2.58112458178E+00  1.60844232135E+02  1.84669926941E+02  9.06498958030E+01  0.00000000000E+00  1.
        5    1    4    4  804    0 -5.57945721985E+00 -2.82747079086E-01 -5.55473255126E+00  9.19933924230E+00  4.75000000000E+00  0.00000000000E+00  1.
       -5    1    4    4    0  804  2.74236504119E+00 -2.29837750270E+00  6.29005015361E-01  5.98007127661E+00  4.75000000000E+00  0.00000000000E+00  1.
        4    1    5    5  803    0 -3.96778625165E+01 -1.78084242935E+01  7.40393986883E+01  8.58774180610E+01  1.27500000000E+00  0.00000000000E+00  1.
       -4    1    5    5    0  803  4.25149546951E+01  2.03895488753E+01  8.68048334466E+01  9.87925088797E+01  1.27500000000E+00  0.00000000000E+00  1.
</event>
<event>
 9   2   1.0000000E+00   6.2498525E+01   7.8125000E-03   1.3828994E-01
       21   -1    0    0  501  502  0.00000000000E+00  0.00000000000E+00  2.91065389975E+02  2.91065389975E+02  0.00000000000E+00  0.00000000000E+00  1.
       21   -1    0    0  502  501  0.00000000000E+00  0.00000000000E+00 -1.34198902066E+01  1.34198902066E+01  0.00000000000E+00  0.00000000000E+00  1.
       39    2    1    2    0    0  3.55271367880E-15  0.00000000000E+00  2.77645499768E+02  3.04485280182E+02  1.24997049188E+02  0.00000000000E+00  1.
       23    2    3    3    0    0 -1.70932635737E+01  1.86296105722E+01  5.78392636084E+01  6.58717007039E+01  1.88270679923E+01  0.00000000000E+00  1.
       23    2    3    3    0    0  1.70932635737E+01 -1.86296105722E+01  2.19806236160E+02  2.38613579478E+02  8.93443719923E+01  0.00000000000E+00  1.
        2    1    4    4  804    0 -1.71725591813E+01  1.59345467313E+01  3.07925338103E+01  3.86909125579E+01  0.00000000000E+00  0.00000000000E+00  1.
       -2    1    4    4    0  804  7.92956076019E-02  2.69506384092E+00  2.70467297981E+01  2.71807882460E+01  0.00000000000E+00  0.00000000000E+00  1.
        1    1    5    5  803    0  1.40771784940E+01 -1.76887552124E+01  4.21133422792E+00  2.29955289414E+01  1.20837300615E-06  0.00000000000E+00  1.
       -1    1    5    5    0  803  3.01608507976E+00 -9.40855359888E-01  2.15594901932E+02  2.15618050536E+02  0.00000000000E+00  0.00000000000E+00  1.
</event>
<event>
 9   2   1.0000000E+00   6.2498640E+01   7.8125000E-03   1.3828989E-01
       21   -1    0    0  501  502  0.00000000000E+00  0.00000000000E+00  9.35566030556E+01  9.35566030556E+01  0.00000000000E+00  0.00000000000E+00  1.
       21   -1    0    0  502  501  0.00000000000E+00  0.00000000000E+00 -4.17509812506E+01  4.17509812506E+01  0.00000000000E+00  0.00000000000E+00  1.
       39    2    1    2    0    0 -3.55271367880E-15 -1.77635683940E-15  5.18056218050E+01  1.35307584306E+02  1.24997279651E+02  0.00000000000E+00  1.
       23    2    3    3    0    0 -8.04691047782E+00 -1.18643397025E+01  4.69850176968E+01  6.37360997620E+01  4.06101366667E+01  0.00000000000E+00  1.
       23    2    3    3    0    0  8.04691047782E+00  1.18643397025E+01  4.82060410827E+00  7.15714845442E+01  6.99551560007E+01  0.00000000000E+00  1.
        1    1    4    4  804    0  1.39152294216E+01 -2.83687552765E+00  3.36007189388E+01  3.64786209419E+01  0.00000000000E+00  0.00000000000E+00  1.
       -1    1    4    4    0  804 -2.19621398994E+01 -9.02746417481E+00  1.33842987579E+01  2.72574788201E+01  0.00000000000E+00  0.00000000000E+00  1.
       16    1    5    5    0    0  2.48953005224E+01  1.96151305179E+01  2.77185896851E+01  4.21052200551E+01  0.00000000000E+00  0.00000000000E+00  1.
      -16    1    5    5    0    0 -1.68483900446E+01 -7.75079081542E+00 -2.28979855768E+01  2.94662645891E+01  0.00000000000E+00  0.00000000000E+00  1.
</event>
<event>
 9   2   1.0000000E+00   6.2491238E+01   7.8125000E-03   1.3829266E-01
       21   -1    0    0  501  502  0.00000000000E+00  0.00000000000E+00  2.08307171010E+01  2.08307171010E+01  0.00000000000E+00  0.00000000000E+00  1.
       21   -1    0    0  502  501  0.00000000000E+00  0.00000000000E+00 -1.87470973910E+02  1.87470973910E+02  0.00000000000E+00  0.00000000000E+00  1.
       39    2    1    2    0    0  7.10542735760E-15  1.77635683940E-15 -1.66640256809E+02  2.08301691011E+02  1.24982475926E+02  0.00000000000E+00  1.
       23    2    3    3    0    0  1.49325154943E+01 -6.22949209246E+00 -3.34826507831E+01  4.56978243839E+01  2.65596810832E+01  0.00000000000E+00  1.
       23    2    3    3    0    0 -1.49325154943E+01  6.22949209246E+00 -1.33157606026E+02  1.62603866627E+02  9.19091007945E+01  0.00000000000E+00  1.
       11    1    4    4    0    0  2.96593217130E+00  6.41651394238E+00  9.31842932720E-01  7.12998852243E+00  5.11000198189E-04  0.00000000000E+00  1.
      -11    1    4    4    0    0  1.19665833229E+01 -1.26460060348E+01 -3.44144937158E+01  3.85678358615E+01  5.11000377541E-04  0.00000000000E+00  1.
        3    1    5    5  803    0 -3.88979195138E+01 -1.83992654976E+00 -1.31630990658E+02  1.37270358057E+02  3.30362473978E-06  0.00000000000E+00  1.
       -3    1    5    5    0  803  2.39654040195E+01  8.06941864221E+00 -1.52661536816E+00  2.53335087698E+01  2.83959993366E-06  0.00000000000E+00  1.
</event>
<event>
 9   2   1.0000000E+00   6.2498218E+01   7.8125000E-03   1.3829005E-01
       21   -1    0    0  501  502  0.00000000000E+00  0.00000000000E+00  1.47295700046E+02  1.47295700046E+02  0.00000000000E+00  0.00000000000E+00  1.
       21   -1    0    0  502  501  0.00000000000E+00  0.00000000000E+00 -2.65182703551E+01  2.65182703551E+01  0.00000000000E+00  0.00000000000E+00  1.
       39    2    1    2    0    0  3.55271367880E-15 -1.77635683940E-15  1.20777429691E+02  1.73813970401E+02  1.24996435085E+02  0.00000000000E+00  1.
       23    2    3    3    0    0 -6.87471552981E+00 -6.77027940662E+00  1.07604858855E+02  1.43652367014E+02  9.46789232223E+01  0.00000000000E+00  1.
       23    2    3    3    0    0  6.87471552981E+00  6.77027940662E+00  1.31725708359E+01  3.01616033877E+01  2.53595603201E+01  0.00000000000E+00  1.
        3    1    4    4  803    0 -1.90510365172E+01  2.43109962304E+01  1.05806809384E+02  1.10222717451E+02  1.34869915235E-06  0.00000000000E+00  1.
       -3    1    4    4    0  803  1.21763209874E+01 -3.10812756370E+01  1.79804947080E+00  3.34296495631E+01  1.55015054575E-06  0.00000000000E+00  1.
        3    1    5    5  804    0  5.03656181859E+00  1.58055638742E+01  3.80886753059E+00  1.70202901327E+01  0.00000000000E+00  0.00000000000E+00  1.
       -3    1    5    5    0  804  1.83815371122E+00 -9.03528446760E+00  9.36370330531E+00  1.31413132550E+01  0.00000000000E+00  0.00000000000E+00  1.
</event>
<event>
 9   2   1.0000000E+00   6.2500916E+01   7.8125000E-03   1.3828904E-01
       21   -1    0    0  501  502  0.00000000000E+00  0.00000000000E+00  2.46021157909E+01  2.46021157909E+01  0.00000000000E+00  0.00000000000E+00  1.
       21   -1    0    0  502  501  0.00000000000E+00  0.00000000000E+00 -1.58781647771E+02  1.58781647771E+02  0.00000000000E+00  0.00000000000E+00  1.
       39    2    1    2    0    0  0.00000000000E+00 -1.77635683940E-15 -1.34179531980E+02  1.83383763562E+02  1.25001831730E+02  0.00000000000E+00  1.
       23    2    3    3    0    0  2.03349404807E+01  5.56932634682E+00 -9.52664285161E+01  1.30356455367E+02  8.64441198315E+01  0.00000000000E+00  1.
       23    2    3    3    0    0 -2.03349404807E+01 -5.56932634682E+00 -3.89131034642E+01  5.30273081946E+01  2.92085363008E+01  0.00000000000E+00  1.
       14    1    4    4    0    0  1.47846661915E+01 -4.80518158210E+00 -1.10230152144E+02  1.11320988884E+02  0.00000000000E+00  0.00000000000E+00  1.
      -14    1    4    4    0    0  5.55027428923E+00  1.03745079289E+01  1.49637236276E+01  1.90354665838E+01  2.28060799476E-06  0.00000000000E+00  1.
        1    1    5    5  804    0 -2.09469366333E+01  6.37160553412E+00 -3.32158712962E+01  3.97827302397E+01  0.00000000000E+00  0.00000000000E+00  1.
       -1    1    5    5    0  804  6.11996152557E-01 -1.19409318809E+01 -5.69723216797E+00  1.32445780549E+01  0.00000000000E+00  0.00000000000E+00  1.
</event>
<event>
 9   2   1.0000000E+00   6.2501013E+01   7.8125000E-03   1.3828901E-01
       21   -1    0    0  501  502  0.00000000000E+00  0.00000000000E+00  1.31677493084E+02  1.31677493084E+02  0.00000000000E+00  0.00000000000E+00  1.
       21   -1    0    0  502  501  0.00000000000E+00  0.00000000000E+00 -2.96662442970E+01  2.96662442970E+01  0.00000000000E+00  0.00000000000E+00  1.
       39    2    1    2    0    0 -3.55271367880E-15  1.24344978758E-14  1.02011248787E+02  1.61343737381E+02  1.25002026836E+02  0.00000000000E+00  1.
       23    2    3    3    0    0  1.96222138329E+00 -1.37157234619E+01  7.53779178173E+01  1.15626315041E+02  8.65773807211E+01  0.00000000000E+00  1.
       23    2    3    3    0    0 -1.96222138329E+00  1.37157234619E+01  2.66333309700E+01  4.57174223408E+01  3.44786456243E+01  0.00000000000E+00  1.
        4    1    4    4  803    0 -1.31687534288E+01  3.45171323435E+01  2.85511335406E+01  4.67080436707E+01  1.27500000000E+00  0.00000000000E+00  1.
       -4    1    4    4    0  803  1.51309748121E+01 -4.82328558054E+01  4.68267842767E+01  6.89182713698E+01  1.27500000000E+00  0.00000000000E+00  1.
        4    1    5    5  804    0  9.55943573128E+00 -2.74514043617E+00  2.32262162678E+01  2.52982480546E+01  1.27500000000E+00  0.00000000000E+00  1.
       -4    1    5    5    0  804 -1.15216571146E+01  1.64608638981E+01  3.40711470227E+00  2.04191742862E+01  1.27500000000E+00  0.00000000000E+00  1.
</event>
<event>
 9   2   1.0000000E+00   6.2502269E+01   7.8125000E-03   1.3828854E-01
       21   -1    0    0  501  502  0.00000000000E+00  0.00000000000E+00  4.05171302976E+01  4.05171302976E+01  0.00000000000E+00  0.00000000000E+00  1.
       21   -1    0    0  502  501  0.00000000000E+00  0.00000000000E+00 -9.64168393921E+01  9.64168393921E+01  0.00000000000E+00  0.00000000000E+00  1.
       39    2    1    2    0    0  2.66453525910E-15 -2.66453525910E-15 -5.58997090945E+01  1.36933969690E+02  1.25004538230E+02  0.00000000000E+00  1.
       23    2    3    3    0    0  5.34382962665E+00 -3.84819567598E+00 -2.92330205759E+01  9.33585390018E+01  8.84187886567E+01  0.00000000000E+00  1.
       23    2    3    3    0    0 -5.34382962665E+00  3.84819567598E+00 -2.66666885185E+01  4.35754306878E+01  3.38281060369E+01  0.00000000000E+00  1.
       14    1    4    4    0    0 -8.68542602480E+00 -4.41142832380E+01 -7.79246906569E+00  4.56314496164E+01  1.46486827462E-06  0.00000000000E+00  1.
      -14    1    4    4    0    0  1.40292556514E+01  4.02660875620E+01 -2.14405515102E+01  4.77270895854E+01  1.21570098724E-06  0.00000000000E+00  1.
       12    1    5    5    0    0 -4.01067979897E+00  1.82925194666E+00  7.83450919525E+00  8.98950784318E+00  0.00000000000E+00  0.00000000000E+00  1.
      -12    1    5    5    0    0 -1.33314982768E+00  2.01894372932E+00 -3.45011977138E+01  3.45859230446E+01  0.00000000000E+00  0.00000000000E+00  1.
</event>
<event>
 9   2   1.0000000E+00   6.2492754E+01   7.8125000E-03   1.3829209E-01
       21   -1    0    0  501  502  0.00000000000E+00  0.00000000000E+00  3.63626049271E+00  3.63626049271E+00  0.00000000000E+00  0.00000000000E+00  1.
       21   -1    0    0  502  501  0.00000000000E+00  0.00000000000E+00 -1.07400013732E+03  1.07400013732E+03  0.00000000000E+00  0.00000000000E+00  1.
       39    2    1    2    0    0 -3.55271367880E-15  0.00000000000E+00 -1.07036387683E+03  1.07763639781E+03  1.24985507456E+02  0.00000000000E+00  1.
       23    2    3    3    0    0  1.69655451284E+01  1.98048232657E+01 -3.49348006113E+02  3.55767736502E+02  6.20209014339E+01  0.00000000000E+00  1.
       23    2    3    3    0    0 -1.69655451284E+01 -1.98048232657E+01 -7.21015870715E+02  7.21868661312E+02  2.34609806754E+01  0.00000000000E+00  1.
        3    1    4    4  804    0  2.32666596235E+01 -1.53388475650E+01 -2.13296413308E+02  2.15109222647E+02  2.69739830470E-06  0.00000000000E+00  1.
       -3    1    4    4    0  804 -6.30111449517E+00  3.51436708308E+01 -1.36051592805E+02  1.40658513955E+02  4.26496119976E-06  0.00000000000E+00  1.
        4    1    5    5  803    0  5.05723611511E+00 -1.98918277963E+00 -6.46264282881E+01  6.48670435856E+01  1.27499999998E+00  0.00000000000E+00  1.
       -4    1    5    5    0  803 -2.20227812435E+01 -1.78156404861E+01 -6.56389442427E+02  6.57001617726E+02  1.27500000004E+00  0.00000000000E+00  1.
</event>
<event>
 9   2   1.0000000E+00   6.2498915E+01   7.8125000E-03   1.3828979E-01
       21   -1    0    0  501  502  0.00000000000E+00  0.00000000000E+00  1.36808698754E+03  1.36808698754E+03  0.00000000000E+00  0.00000000000E+00  1.
       21   -1    0    0  502  501  0.00000000000E+00  0.00000000000E+00 -2.85516525015E+00  2.85516525015E+00  0.00000000000E+00  0.00000000000E+00  1.
       39    2    1    2    0    0  2.66453525910E-15 -1.99840144433E-15  1.36523182229E+03  1.37094215279E+03  1.24997830797E+02  0.00000000000E+00  1.
       23    2    3    3    0    0 -6.98710509534E+00  1.40133445159E+00  9.79247872454E+01  1.00335750433E+02  2.06691916160E+01  0.00000000000E+00  1.
       23    2    3    3    0    0  6.98710509534E+00 -1.40133445159E+00  1.26730703504E+03  1.27060640235E+03  9.12289716138E+01  0.00000000000E+00  1.
        1    1    4    4  803    0 -8.92463458032E+00  2.51713946678E+00  9.76428789859E+01  9.80821947641E+01  1.34869915235E-06  0.00000000000E+00  1.
       -1    1    4    4    0  803  1.93752948498E+00 -1.11580501519E+00  2.81908259565E-01  2.25355586898E+00  1.32493132395E-06  0.00000000000E+00  1.
        1    1    5    5  804    0  1.46591269746E+01  1.49337260729E+01  1.21666244461E+03  1.21684239337E+03  1.52587890625E-05  0.00000000000E+00  1.
       -1    1    5    5    0  804 -7.67202187930E+00 -1.63350605245E+01  5.06445904293E+01  5.37640090819E+01  1.26519195189E-05  0.00000000000E+00  1.
</event>
<event>
 9   2   1.0000000E+00   6.2497301E+01   7.8125000E-03   1.3829039E-01
       21   -1    0    0  501  502  0.00000000000E+00  0.00000000000E+00  7.97385716082E+00  7.97385716082E+00  0.00000000000E+00  0.00000000000E+00  1.
       21   -1    0    0  502  501  0.00000000000E+00  0.00000000000E+00 -4.89839799808E+02  4.89839799808E+02  0.00000000000E+00  0.00000000000E+00  1.
       39    2    1    2    0    0 -4.44089209850E-16  0.00000000000E+00 -4.81865942647E+02  4.97813656969E+02  1.24994601409E+02  0.00000000000E+00  1.
       23    2    3    3    0    0  2.56702771908E+00 -1.71607540210E+01 -3.46485551657E+02  3.58688669024E+02  9.11276174907E+01  0.00000000000E+00  1.
       23    2    3    3    0    0 -2.56702771908E+00  1.71607540210E+01 -1.35380390990E+02  1.39124987945E+02  2.69598014831E+01  0.00000000000E+00  1.
       12    1    4    4    0    0  4.38238056239E+01 -6.30538333252E+00 -2.38628646070E+02  2.42701286613E+02  0.00000000000E+00  0.00000000000E+00  1.
      -12    1    4    4    0    0 -4.12567779048E+01 -1.08553706885E+01 -1.07856905587E+02  1.15987382411E+02  3.81469726562E-06  0.00000000000E+00  1.
        2    1    5    5  804    0 -5.81871219265E+00  5.97004899004E+00 -1.17417382196E+02  1.17712958242E+02  1.34869915235E-06  0.00000000000E+00  1.
       -2    1    5    5    0  804  3.25168447357E+00  1.11907050310E+01 -1.79630087949E+01  2.14120297023E+01  1.68587394044E-06  0.00000000000E+00  1.
</event>
<event>
 9   2   1.0000000E+00   6.2500618E+01   7.8125000E-03   1.3828916E-01
       21   -1    0    0  501  502  0.00000000000E+00  0.00000000000E+00  2.64642645965E+02  2.64642645965E+02  0.00000000000E+00  0.00000000000E+00  1.
       21   -1    0    0  502  501  0.00000000000E+00  0.00000000000E+00 -1.47607624684E+01  1.47607624684E+01  0.00000000000E+00  0.00000000000E+00  1.
       39    2    1    2    0    0  0.00000000000E+00 -8.88178419700E-15  2.49881883496E+02  2.79403408433E+02  1.25001235771E+02  0.00000000000E+00  1.
       23    2    3    3    0    0  1.52122914719E+01 -1.40301053095E+01  7.94819460809E+01  8.46900469269E+01  2.06583307373E+01  0.00000000000E+00  1.
       23    2    3    3    0    0 -1.52122914719E+01  1.40301053095E+01  1.70399937415E+02  1.94713361506E+02  9.19178808015E+01  0.00000000000E+00  1.
        5    1    4    4  804    0  1.61923441965E+01 -1.41820996186E+01  7.46724826507E+01  7.78579869082E+01  4.75000000000E+00  0.00000000000E+00  1.
       -5    1    4    4    0  804 -9.80052724644E-01  1.51994309091E-01  4.80946343017E+00  6.83206001871E+00  4.75000000000E+00  0.00000000000E+00  1.
       13    1    5    5    0    0  2.07741791483E+00  3.78189014408E+01  1.58543278384E+02  1.63004807464E+02  1.05659999952E-01  0.00000000000E+00  1.
      -13    1    5    5    0    0 -1.72897093867E+01 -2.37887961313E+01  1.18566590310E+01  3.17085540425E+01  1.05659999962E-01  0.00000000000E+00  1.
</event>
<event>
 9   2   1.0000000E+00   6.2498369E+01   7.8125000E-03   1.3828999E-01
       21   -1    0    0  501  502  0.00000000000E+00  0.00000000000E+00  5.60070340390E+01  5.60070340390E+01  0.00000000000E+00  0.00000000000E+00  1.
       21   -1    0    0  502  501  0.00000000000E+00  0.00000000000E+00 -6.97420645252E+01  6.97420645252E+01  0.00000000000E+00  0.00000000000E+00  1.
       39    2    1    2    0    0  3.55271367880E-15 -3.55271367880E-15 -1.37350304862E+01  1.25749098564E+02  1.24996738866E+02  0.00000000000E+00  1.
       23    2    3    3    0    0 -7.57447532378E+00  2.21887033023E+01  1.35537628297E+00  3.01357703196E+01  1.88842891637E+01  0.00000000000E+00  1.
       23    2    3    3    0    0  7.57447532378E+00 -2.21887033023E+01 -1.50904067692E+01  9.56133282447E+01  9.14575143490E+01  0.00000000000E+00  1.
        3    1    4    4  803    0  3.06732948248E+00  1.22507784756E+01 -5.81734398260E+00  1.39043725930E+01  0.00000000000E+00  0.00000000000E+00  1.
       -3    1    4    4    0  803 -1.06418048063E+01  9.93792482670E+00  7.17272026557E+00  1.62313978266E+01  0.00000000000E+00  0.00000000000E+00  1.
        2    1    5    5  804    0  3.14377917430E+01 -4.43138678494E+01 -2.73629566394E+01  6.08340779635E+01  1.90734863281E-06  0.00000000000E+00  1.
       -2    1    5    5    0  804 -2.38633164193E+01  2.21251645470E+01  1.22725498702E+01  3.47792504812E+01  1.79210858087E-06  0.00000000000E+00  1.
</event>
<event>
 9   2   1.0000000E+00   6.2499516E+01   7.8125000E-03   1.3828957E-01
       21   -1    0    0  501  502  0.00000000000E+00  0.00000000000E+00  2.15112351221E+02  2.15112351221E+02  0.00000000000E+00  0.00000000000E+00  1.
       21   -1    0    0  502  501  0.00000000000E+00  0.00000000000E+00 -1.81588338619E+01  1.81588338619E+01  0.00000000000E+00  0.00000000000E+00  1.
       39    2    1    2    0    0 -1.77635683940E-15  3.55271367880E-15  1.96953517359E+02  2.33271185083E+02  1.24999031156E+02  0.00000000000E+00  1.
       23    2    3    3    0    0  5.09942243090E+00 -7.67641663387E-01  1.33083255707E+02  1.60420175885E+02  8.94253124032E+01  0.00000000000E+00  1.
       23    2    3    3    0    0 -5.09942243090E+00  7.67641663387E-01  6.38702616517E+01  7.28510091980E+01  3.46592820880E+01  0.00000000000E+00  1.
       14    1    4    4    0    0 -3.39431279481E+01  1.69274762905E+01  9.78123045060E+01  1.04909114581E+02  1.90734863281E-06  0.00000000000E+00  1.
      -14    1    4    4    0    0  3.90425503790E+01 -1.76951179539E+01  3.52709512011E+01  5.55110615034E+01  1.50789149292E-06  0.00000000000E+00  1.
        2    1    5    5  804    0 -6.44296712829E+00 -1.11887706014E+01  5.80814128519E+01  5.94991675888E+01  0.00000000000E+00  0.00000000000E+00  1.
       -2    1    5    5    0  804  1.34354469739E+00  1.19564122648E+01  5.78884879978E+00  1.33518417092E+01  0.00000000000E+00  0.00000000000E+00  1.
</event>
<event>
 9   2   1.0000000E+00   6.2502120E+01   7.8125000E-03   1.3828859E-01
       21   -1    0    0  501  502  0.00000000000E+00  0.00000000000E+00  1.17327083602E+01  1.17327083602E+01  0.00000000000E+00  0.00000000000E+00  1.
       21   -1    0    0  502  501  0.00000000000E+00  0.00000000000E+00 -3.32959358141E+02  3.32959358141E+02  0.00000000000E+00  0.00000000000E+00  1.
       39    2    1    2    0    0 -1.77635683940E-15  1.77635683940E-15 -3.21226649781E+02  3.44692066502E+02  1.25004240646E+02  0.00000000000E+00  1.
       23    2    3    3    0    0 -1.03057897758E+00 -1.11464189512E+01 -2.13370209002E+02  2.23106325644E+02  6.42205707234E+01  0.00000000000E+00  1.
       23    2    3    3    0    0  1.03057897758E+00  1.11464189512E+01 -1.07856440779E+02  1.21585740858E+02  5.49979619081E+01  0.00000000000E+00  1.
        4    1    4    4  803    0  8.11204252610E+00 -7.24130723766E+00 -1.55986242553E+00  1.10589583706E+01  1.27500000000E+00  0.00000000000E+00  1.
       -4    1    4    4    0  803 -9.14262150368E+00 -3.90511171349E+00 -2.11810346577E+02  2.12047367273E+02  1.27500000000E+00  0.00000000000E+00  1.
        1    1    5    5  804    0 -2.33018656338E+01  1.90217185801E+01 -6.60501060471E+01  7.25769882854E+01  0.00000000000E+00  0.00000000000E+00  1.
       -1    1    5    5    0  804  2.43324446114E+01 -7.87529962894E+00 -4.18063347317E+01  4.90087525725E+01  0.00000000000E+00  0.00000000000E+00  1.
</event>
<event>
 9   2   1.0000000E+00   6.2501093E+01   7.8125000E-03   1.3828898E-01
       21   -1    0    0  501  502  0.00000000000E+00  0.00000000000E+00  9.48505363888E+00  9.48505363888E+00  0.00000000000E+00  0.00000000000E+00  1.
       21   -1    0    0  502  501  0.00000000000E+00  0.00000000000E+00 -4.11846544664E+02  4.11846544664E+02  0.00000000000E+00  0.00000000000E+00  1.
       39    2    1    2    0    0  0.00000000000E+00 -1.77635683940E-15 -4.02361491026E+02  4.21331598303E+02  1.25002185055E+02  0.00000000000E+00  1.
       23    2    3    3    0    0 -1.26630339278E+01 -1.00571953753E+01 -3.54971220217E+02  3.66679710892E+02  9.04872565072E+01  0.00000000000E+00  1.
       23    2    3    3    0    0  1.26630339278E+01  1.00571953753E+01 -4.73902708085E+01  5.46518874116E+01  2.18972926014E+01  0.00000000000E+00  1.
       13    1    4    4    0    0 -3.59042043861E+01  2.34664214131E+01 -1.05346060489E+02  1.13743520480E+02  1.05659999952E-01  0.00000000000E+00  1.
      -13    1    4    4    0    0  2.32411704583E+01 -3.35236167884E+01 -2.49625159728E+02  2.52936190412E+02  1.05660000021E-01  0.00000000000E+00  1.
        1    1    5    5  803    0  1.00406923133E+01  7.30844611163E+00 -7.34818949864E+00  1.44299956897E+01  0.00000000000E+00  0.00000000000E+00  1.
       -1    1    5    5    0  803  2.62234161447E+00  2.74874926363E+00 -4.00420813099E+01  4.02218917219E+01  0.00000000000E+00  0.00000000000E+00  1.
</event>
<event>
 9   2   1.0000000E+00   6.2501639E+01   7.8125000E-03   1.3828877E-01
       21   -1    0    0  501  502  0.00000000000E+00  0.00000000000E+00  2.96913515660E+01  2.96913515660E+01  0.00000000000E+00  0.00000000000E+00  1.
       21   -1    0    0  502  501  0.00000000000E+00  0.00000000000E+00 -1.31568779411E+02  1.31568779411E+02  0.00000000000E+00  0.00000000000E+00  1.
       39    2    1    2    0    0  1.77635683940E-15 -1.77635683940E-15 -1.01877427845E+02  1.61260130977E+02  1.25003278111E+02  0.00000000000E+00  1.
       23    2    3    3    0    0  1.48815472171E+01 -9.23919635562E+00 -8.55468165052E+01  1.00375036123E+02  4.94981501227E+01  0.00000000000E+00  1.
       23    2    3    3    0    0 -1.48815472171E+01  9.23919635562E+00 -1.63306113397E+01  6.08850948542E+01  5.59775197004E+01  0.00000000000E+00  1.
        3    1    4    4  803    0  7.00220743656E+00  1.37654748314E+01 -6.96068354545E+01  7.12995844891E+01  0.00000000000E+00  0.00000000000E+00  1.
       -3    1    4    4    0  803  7.87933978054E+00 -2.30046711870E+01 -1.59399810507E+01  2.90754516336E+01  0.00000000000E+00  0.00000000000E+00  1.
        3    1    5    5  804    0  1.54646325014E+01  6.29594749433E+00  1.09547682066E+01  1.99699964876E+01  0.00000000000E+00  0.00000000000E+00  1.
       -3    1    5    5    0  804 -3.03461797185E+01  2.94324886129E+00 -2.72853795463E+01  4.09150983666E+01  0.00000000000E+00  0.00000000000E+00  1.
</event>
<event>
 9   2   1.0000000E+00   6.2502098E+01   7.8125000E-03   1.3828860E-01
       21   -1    0    0  501  502  0.00000000000E+00  0.00000000000E+00  1.02861702112E+02  1.02861702112E+02  0.00000000000E+00  0.00000000000E+00  1.
       21   -1    0    0  502  501  0.00000000000E+00  0.00000000000E+00 -3.79782970214E+01  3.79782970214E+01  0.00000000000E+00  0.00000000000E+00  1.
       39    2    1    2    0    0  7.10542735760E-15 -5.32907051820E-15  6.48834050911E+01  1.40839999134E+02  1.25004196329E+02  0.00000000000E+00  1.
       23    2    3    3    0    0 -2.17983216056E+01 -1.26045136688E+01  5.92264401219E+01  9.93133190836E+01  7.56394311735E+01  0.00000000000E+00  1.
       23    2    3    3    0    0  2.17983216056E+01  1.26045136688E+01  5.65696496922E+00  4.15266800502E+01  3.25334184136E+01  0.00000000000E+00  1.
        4    1    4    4  803    0 -3.06230074022E+01 -4.02475987730E+01  3.98258012519E+01  6.43844535560E+01  1.27500000000E+00  0.00000000000E+00  1.
       -4    1    4    4    0  803  8.82468579654E+00  2.76430851042E+01  1.94006388699E+01  3.49288655276E+01  1.27500000000E+00  0.00000000000E+00  1.
        5    1    5    5  804    0  2.38106156721E+01  1.24276869912E+01 -6.74180623692E+00  2.80963925437E+01  4.75000000000E+00  0.00000000000E+00  1.
       -5    1    5    5    0  804 -2.01229406646E+00  1.76826677659E-01  1.23987712061E+01  1.34302875064E+01  4.75000000000E+00  0.00000000000E+00  1.
</event>
<event>
 9   2   1.0000000E+00   6.2500461E+01   7.8125000E-03   1.3828921E-01
       21   -1    0    0  501  502  0.00000000000E+00  0.00000000000E+00  2.80951676726E+01  2.80951676726E+01  0.00000000000E+00  0.00000000000E+00  1.
       21   -1    0    0  502  501  0.00000000000E+00  0.00000000000E+00 -1.39038415758E+02  1.39038415758E+02  0.00000000000E+00  0.00000000000E+00  1.
       39    2    1    2    0    0 -8.88178419700E-16  5.32907051820E-15 -1.10943248085E+02  1.67133583430E+02  1.25000921655E+02  0.00000000000E+00  1.
       23    2    3    3    0    0 -7.66889921204E+00  1.17225280364E+01 -1.89994152374E+01  3.77604295030E+01  2.94727429704E+01  0.00000000000E+00  1.
       23    2    3    3    0    0  7.66889921204E+00 -1.17225280364E+01 -9.19438328475E+01  1.29373153927E+02  8.99306114717E+01  0.00000000000E+00  1.
       16    1    4    4    0    0  6.41642026667E+00  8.09115604795E+00 -2.06828211506E+01  2.31174467876E+01  0.00000000000E+00  0.00000000000E+00  1.
      -16    1    4    4    0    0 -1.40853194787E+01  3.63137198849E+00  1.68340591315E+00  1.46429828154E+01  0.00000000000E+00  0.00000000000E+00  1.
        1    1    5    5  803    0  2.70649524850E+01  5.79578485644E+00  5.72785030928E+00  2.82650144929E+01  1.27559510225E-06  0.00000000000E+00  1.
       -1    1    5    5    0  803 -1.93960532729E+01 -1.75183128929E+01 -9.76716831568E+01  1.01108139534E+02  1.34869915235E-06  0.00000000000E+00  1.
</event>
<event>
 9   2   1.0000000E+00   6.2500502E+01   7.8125000E-03   1.3828920E-01
       21   -1    0    0  501  502  0.00000000000E+00  0.00000000000E+00  3.66356452550E+00  3.66356452550E+00  0.00000000000E+00  0.00000000000E+00  1.
       21   -1    0    0  502  501  0.00000000000E+00  0.00000000000E+00 -1.06626013293E+03  1.06626013293E+03  0.00000000000E+00  0.00000000000E+00  1.
       39    2    1    2    0    0  0.00000000000E+00 -5.32907051820E-15 -1.06259656841E+03  1.06992369746E+03  1.25001004763E+02  0.00000000000E+00  1.
       23    2    3    3    0    0 -1.00769737312E+01 -1.34036217253E+01 -4.37518013032E+02  4.39567444811E+02  3.89400094448E+01  0.00000000000E+00  1.
       23    2    3    3    0    0  1.00769737312E+01  1.34036217253E+01 -6.25078555374E+02  6.30356252646E+02  7.96530124107E+01  0.00000000000E+00  1.
        5    1    4    4  803    0 -5.29764019681E+00  1.03568868105E+01 -6.32880633501E+01  6.45234186839E+01  4.75000000000E+00  0.00000000000E+00  1.
       -5    1    4    4    0  803 -4.77933353439E+00 -2.37605085358E+01 -3.74229949682E+02  3.75044026127E+02  4.75000000000E+00  0.00000000000E+00  1.
       11    1    5    5    0    0 -1.61947634093E+01 -1.20093713651E+00 -5.37830199165E+02  5.38075306761E+02  5.10998597706E-04  0.00000000000E+00  1.
      -11    1    5    5    0    0  2.62717371405E+01  1.46045588618E+01 -8.72483562093E+01  9.22809458849E+01  5.11009276622E-04  0.00000000000E+00  1.
</event>
<event>
 9   2   1.0000000E+00   6.2500635E+01   7.8125000E-03   1.3828915E-01
       21   -1    0    0  501  502  0.00000000000E+00  0.00000000000E+00  2.47841279975E+01  2.47841279975E+01  0.00000000000E+00  0.00000000000E+00  1.
       21   -1    0    0  502  501  0.00000000000E+00  0.00000000000E+00 -1.57614152646E+02  1.57614152646E+02  0.00000000000E+00  0.00000000000E+00  1.
       39    2    1    2    0    0  3.55271367880E-15 -1.77635683940E-15 -1.32830024648E+02  1.82398280643E+02  1.25001269328E+02  0.00000000000E+00  1.
       23    2    3    3    0    0  1.33439516974E+01  1.38032945220E+01 -6.35703727149E+01  9.77318747682E+01  7.17058928682E+01  0.00000000000E+00  1.
       23    2    3    3    0    0 -1.33439516974E+01 -1.38032945220E+01 -6.92596519331E+01  8.46664058749E+01  4.47538703502E+01  0.00000000000E+00  1.
        3    1    4    4  804    0 -2.92363490260E+01  1.20181300014E+01 -2.75580850329E+01  4.19362325893E+01  0.00000000000E+00  0.00000000000E+00  1.
       -3    1    4    4    0  804  4.25803007234E+01  1.78516452055E+00 -3.60122876820E+01  5.57956422788E+01  0.00000000000E+00  0.00000000000E+00  1.
        1    1    5    5  803    0  1.39312234438E+00 -7.00783279608E+00 -6.80162280730E+01  6.83904802706E+01  0.00000000000E+00  0.00000000000E+00  1.
       -1    1    5    5    0  803 -1.47370740418E+01 -6.79546172589E+00 -1.24342386008E+00  1.62759257043E+01  0.00000000000E+00  0.00000000000E+00  1.
</event>
<event>
 9   2   1.0000000E+00   6.2499753E+01   7.8125000E-03   1.3828948E-01
       21   -1    0    0  501  502  0.00000000000E+00  0.00000000000E+00  4.05636628078E+01  4.05636628078E+01  0.00000000000E+00  0.00000000000E+00  1.
       21   -1    0    0  502  501  0.00000000000E+00  0.00000000000E+00 -9.62984816865E+01  9.62984816865E+01  0.00000000000E+00  0.00000000000E+00  1.
       39    2    1    2    0    0 -1.77635683940E-15  1.42108547152E-14 -5.57348188787E+01  1.36862144494E+02  1.24999506240E+02  0.00000000000E+00  1.
       23    2    3    3    0    0  1.76490114433E+01  4.38784702366E+00 -1.43185072446E+01  3.70795780267E+01  2.89678209483E+01  0.00000000000E+00  1.
       23    2    3    3    0    0 -1.76490114433E+01 -4.38784702366E+00 -4.14163116341E+01  9.97825664676E+01  8.89410416797E+01  0.00000000000E+00  1.
        1    1    5    5  804    0 -5.93427643428E+00  3.87752787662E+01 -3.84991596681E+01  5.49629255620E+01  1.06624029994E-06  0.00000000000E+00  1.
       -1    1    4    4    0  803  1.96904080087E+01  1.69165549355E+00  2.50361360347E+00  1.99208923223E+01  0.00000000000E+00  0.00000000000E+00  1.
        1    1    4    4  803    0 -2.04139656542E+00  2.69619153012E+00 -1.68221208481E+01  1.71586858044E+01  0.00000000000E+00  0.00000000000E+00  1.
       -1    1    5    5    0  804 -1.17147350090E+01 -4.31631257898E+01 -2.91715196598E+00  4.48196410056E+01  0.00000000000E+00  0.00000000000E+00  1.
</event>
<event>
 9   2   1.0000000E+00   6.2500410E+01   7.8125000E-03   1.3828923E-01
       21   -1    0    0  501  502  0.00000000000E+00  0.00000000000E+00  2.00539020918E+02  2.00539020918E+02  0.00000000000E+00  0.00000000000E+00  1.
       21   -1    0    0  502  501  0.00000000000E+00  0.00000000000E+00 -1.94790082880E+01  1.94790082880E+01  0.00000000000E+00  0.00000000000E+00  1.
       39    2    1    2    0    0 -7.10542735760E-15  5.32907051820E-15  1.81060012630E+02  2.20018029206E+02  1.25000820006E+02  0.00000000000E+00  1.
       23    2    3    3    0    0 -1.87074951026E+01 -1.05557326236E+01  1.46863351931E+01  3.08953984153E+01  1.66566304396E+01  0.00000000000E+00  1.
       23    2    3    3    0    0  1.87074951026E+01  1.05557326236E+01  1.66373677437E+02  1.89122630790E+02  8.73256839027E+01  0.00000000000E+00  1.
       13    1    4    4    0    0 -1.21579956219E+01 -1.39747020109E+00 -1.87972407917E-01  1.22399460034E+01  1.05660000000E-01  0.00000000000E+00  1.
      -13    1    4    4    0    0 -6.54949948076E+00 -9.15826242251E+00  1.48743076010E+01  1.86554524119E+01  1.05660000000E-01  0.00000000000E+00  1.
        5    1    5    5  804    0 -9.48058384781E+00  2.56094575653E+01  1.50675168489E+02  1.53203442148E+02  4.75000000000E+00  0.00000000000E+00  1.
       -5    1    5    5    0  804  2.81880789504E+01 -1.50537249417E+01  1.56985089477E+01  3.59191886422E+01  4.75000000000E+00  0.00000000000E+00  1.
</event>
<event>
 9   2   1.0000000E+00   6.2500111E+01   7.8125000E-03   1.3828934E-01
       21   -1    0    0  501  502  0.00000000000E+00  0.00000000000E+00  7.12237305906E+02  7.12237305906E+02  0.00000000000E+00  0.00000000000E+00  1.
       21   -1    0    0  502  501  0.00000000000E+00  0.00000000000E+00 -5.48449766764E+00  5.48449766764E+00  0.00000000000E+00  0.00000000000E+00  1.
       39    2    1    2    0    0  3.55271367880E-15  0.00000000000E+00  7.06752808239E+02  7.17721803574E+02  1.25000221489E+02  0.00000000000E+00  1.
       23    2    3    3    0    0 -5.60936413583E-01  4.06596406183E+00  5.59422766102E+02  5.66330127769E+02  8.80859561580E+01  0.00000000000E+00  1.
       23    2    3    3    0    0  5.60936413583E-01 -4.06596406183E+00  1.47330042137E+02  1.51391675805E+02  3.45897596640E+01  0.00000000000E+00  1.
        5    1    5    5  804    0  8.51321574569E+00 -1.24844589431E+01  1.23145166001E+02  1.24159699447E+02  4.75000000000E+00  0.00000000000E+00  1.
       -5    1    4    4    0  803  1.10237123970E+01 -3.60971534237E+01  1.49875226148E+02  1.54627528704E+02  4.75000000000E+00  0.00000000000E+00  1.
        5    1    4    4  803    0 -1.15846488105E+01  4.01631174856E+01  4.09547539954E+02  4.11702599065E+02  4.74999999999E+00  0.00000000000E+00  1.
       -5    1    5    5    0  804 -7.95227933211E+00  8.41849488129E+00  2.41848761355E+01  2.72319763574E+01  4.75000000000E+00  0.00000000000E+00  1.
</event>
<event>
 9   2   1.0000000E+00   6.2493300E+01   7.8125000E-03   1.3829189E-01
       21   -1    0    0  501  502  0.00000000000E+00  0.00000000000E+00  2.70274641819E+02  2.70274641819E+02  0.00000000000E+00  0.00000000000E+00  1.
       21   -1    0    0  502  501  0.00000000000E+00  0.00000000000E+00 -1.44497925961E+01  1.44497925961E+01  0.00000000000E+00  0.00000000000E+00  1.
       39    2    1    2    0    0  8.88178419700E-15  7.10542735760E-15  2.55824849223E+02  2.84724434415E+02  1.24986599574E+02  0.00000000000E+00  1.
       23    2    3    3    0    0  4.30865240676E+00  9.30015558928E+00  1.97359552237E+02  2.17736361875E+02  9.13962419562E+01  0.00000000000E+00  1.
       23    2    3    3    0    0 -4.30865240676E+00 -9.30015558928E+00  5.84652969856E+01  6.69880725400E+01  3.10508217519E+01  0.00000000000E+00  1.
        2    1    4    4  803    0 -3.90588993358E+01 -7.23136299934E+00  5.38988315341E+01  6.69550168567E+01  3.43852164790E-06  0.00000000000E+00  1.
       -2    1    4    4    0  803  4.33675517426E+01  1.65315185886E+01  1.43460720703E+02  1.50781345218E+02  2.69739830470E-06  0.00000000000E+00  1.
        5    1    5    5  804    0  9.07908479882E+00 -1.43368622606E+01  3.20841041464E+01  3.66050220481E+01  4.75000000000E+00  0.00000000000E+00  1.
       -5    1    5    5    0  804 -1.33877372056E+01  5.03670667132E+00  2.63811928391E+01  3.03830504919E+01  4.75000000000E+00  0.00000000000E+00  1.
</event>
<event>
 9   2   1.0000000E+00   6.2498546E+01   7.8125000E-03   1.3828993E-01
       21   -1    0    0  501  502  0.00000000000E+00  0.00000000000E+00  1.34905366290E+02  1.34905366290E+02  0.00000000000E+00  0.00000000000E+00  1.
       21   -1    0    0  502  501  0.00000000000E+00  0.00000000000E+00 -2.89541354357E+01  2.89541354357E+01  0.00000000000E+00  0.00000000000E+00  1.
       39    2    1    2    0    0  1.77635683940E-15  0.00000000000E+00  1.05951230855E+02  1.63859501726E+02  1.24997091911E+02  0.00000000000E+00  1.
       23    2    3    3    0    0  5.66676754739E+00  1.63876971058E+01  5.60821768278E+01  1.07603849751E+02  9.01815338786E+01  0.00000000000E+00  1.
       23    2    3    3    0    0 -5.66676754739E+00 -1.63876971058E+01  4.98690540268E+01  5.62556519747E+01  1.94192419702E+01  0.00000000000E+00  1.
       13    1    4    4    0    0  2.12927053215E-01  4.86055274341E+01  5.70054530282E+01  7.49144543734E+01  1.05660000000E-01  0.00000000000E+00  1.
      -13    1    4    4    0    0  5.45384049417E+00 -3.22178303283E+01 -9.23276200399E-01  3.26893953780E+01  1.05660000003E-01  0.00000000000E+00  1.
        4    1    5    5  803    0  6.27470291630E+00 -2.07962134088E+00  8.33510257213E+00  1.07143026603E+01  1.27500000000E+00  0.00000000000E+00  1.
       -4    1    5    5    0  803 -1.19414704637E+01 -1.43080757649E+01  4.15339514547E+01  4.55413493143E+01  1.27500000000E+00  0.00000000000E+00  1.
</event>
<event>
 9   2   1.0000000E+00   6.2501027E+01   7.8125000E-03   1.3828900E-01
       21   -1    0    0  501  502  0.00000000000E+00  0.00000000000E+00  1.56409012952E+01  1.56409012952E+01  0.00000000000E+00  0.00000000000E+00  1.
       21   -1    0    0  502  501  0.00000000000E+00  0.00000000000E+00 -2.49754046996E+02  2.49754046996E+02  0.00000000000E+00  0.00000000000E+00  1.
       39    2    1    2    0    0  3.55271367880E-15  8.88178419700E-15 -2.34113145701E+02  2.65394948292E+02  1.25002054337E+02  0.00000000000E+00  1.
       23    2    3    3    0    0 -8.90166849062E+00  4.85163496337E+00 -8.60966810719E+01  9.08082842117E+01  2.70319796932E+01  0.00000000000E+00  1.
       23    2    3    3    0    0  8.90166849062E+00 -4.85163496337E+00 -1.48016464629E+02  1.74586664080E+02  9.20263625787E+01  0.00000000000E+00  1.
        1    1    4    4  804    0  7.89529813692E+00 -3.47561191742E+00 -4.22501653809E+01  4.31218284119E+01  0.00000000000E+00  0.00000000000E+00  1.
       -1    1    4    4    0  804 -1.67969666275E+01  8.32724688079E+00 -4.38465156910E+01  4.76864558998E+01  0.00000000000E+00  0.00000000000E+00  1.
        4    1    5    5  803    0 -2.94432649790E+01 -3.32412436121E+01 -6.29699335531E+01  7.70631188454E+01  1.27500000000E+00  0.00000000000E+00  1.
       -4    1    5    5    0  803  3.83449334696E+01  2.83896086487E+01 -8.50465310762E+01  9.75235452345E+01  1.27500000000E+00  0.00000000000E+00  1.
</event>
<event>
 9   2   1.0000000E+00   6.2498893E+01   7.8125000E-03   1.3828980E-01
       21   -1    0    0  501  502  0.00000000000E+00  0.00000000000E+00  3.58738675987E+02  3.58738675987E+02  0.00000000000E+00  0.00000000000E+00  1.
       21   -1    0    0  502  501  0.00000000000E+00  0.00000000000E+00 -1.08884597832E+01  1.08884597832E+01  0.00000000000E+00  0.00000000000E+00  1.
       39    2    1    2    0    0  3.55271367880E-15 -3.55271367880E-15  3.47850216204E+02  3.69627135771E+02  1.24997786319E+02  0.00000000000E+00  1.
       23    2    3    3    0    0  1.73657639305E+01 -1.67312674561E+01  2.51945460969E+02  2.70503954675E+02  9.54692051120E+01  0.00000000000E+00  1.
       23    2    3    3    0    0 -1.73657639305E+01  1.67312674561E+01  9.59047552356E+01  9.91231810953E+01  6.79543126417E+00  0.00000000000E+00  1.
        1    1    4    4  804    0  4.64500497343E+01 -2.80635162769E+01  8.63160606220E+01  1.01958964233E+02  2.33601545599E-06  0.00000000000E+00  1.
       -1    1    4    4    0  804 -2.90842858038E+01  1.13322488209E+01  1.65629400347E+02  1.68544990543E+02  2.69739830470E-06  0.00000000000E+00  1.
        2    1    5    5  803    0 -1.23740712766E+01  1.16680167215E+01  5.38607194316E+01  5.64821862463E+01  0.00000000000E+00  0.00000000000E+00  1.
       -2    1    5    5    0  803 -4.99169265394E+00  5.06325073454E+00  4.20440358040E+01  4.26409949489E+01  0.00000000000E+00  0.00000000000E+00  1.
</event>
<event>
 9   2   1.0000000E+00   6.2511055E+01   7.8125000E-03   1.3828526E-01
       21   -1    0    0  501  502  0.00000000000E+00  0.00000000000E+00  7.07035758203E+02  7.07035758203E+02  0.00000000000E+00  0.00000000000E+00  1.
       21   -1    0    0  502  501  0.00000000000E+00  0.00000000000E+00 -5.52678128480E+00  5.52678128480E+00  0.00000000000E+00  0.00000000000E+00  1.
       39    2    1    2    0    0 -3.55271367880E-15 -1.77635683940E-15  7.01508976918E+02  7.12562539487E+02  1.25022109982E+02  0.00000000000E+00  1.
       23    2    3    3    0    0  4.74565997298E+00  6.37341926405E+00  2.26445831356E+02  2.29231513078E+02  3.47308261903E+01  0.00000000000E+00  1.
       23    2    3    3    0    0 -4.74565997298E+00 -6.37341926405E+00  4.75063145561E+02  4.83331026409E+02  8.86608541416E+01  0.00000000000E+00  1.
        5    1    4    4  804    0  1.55845659115E+01  1.36419020086E+01  1.17745939120E+02  1.19648020729E+02  4.75000000000E+00  0.00000000000E+00  1.
       -5    1    4    4    0  804 -1.08389059385E+01 -7.26848274457E+00  1.08699892236E+02  1.09583492349E+02  4.75000000000E+00  0.00000000000E+00  1.
       14    1    5    5    0    0  2.17084246757E+01  2.00976760618E+01  3.80254250711E+02  3.81403287276E+02  5.39479660939E-06  0.00000000000E+00  1.
      -14    1    5    5    0    0 -2.64540846487E+01 -2.64710953259E+01  9.48088948504E+01  1.01927739233E+02  4.47312904341E-06  0.00000000000E+00  1.
</event>
<event>
 9   2   1.0000000E+00   6.2500913E+01   7.8125000E-03   1.3828905E-01
       21   -1    0    0  501  502  0.00000000000E+00  0.00000000000E+00  4.08010361782E+02  4.08010361782E+02  0.00000000000E+00  0.00000000000E+00  1.
       21   -1    0    0  502  501  0.00000000000E+00  0.00000000000E+00 -9.57417871865E+00  9.57417871865E+00  0.00000000000E+00  0.00000000000E+00  1.
       39    2    1    2    0    0  1.77635683940E-15 -8.88178419700E-16  3.98436183063E+02  4.17584540500E+02  1.25001825951E+02  0.00000000000E+00  1.
       23    2    3    3    0    0  7.79350922170E+00 -7.46096344231E+00  3.38366600770E+02  3.51115109566E+02  9.31314065566E+01  0.00000000000E+00  1.
       23    2    3    3    0    0 -7.79350922170E+00  7.46096344231E+00  6.00695822928E+01  6.64694309345E+01  2.63329787612E+01  0.00000000000E+00  1.
        5    1    4    4  803    0 -3.51031349556E+01 -7.03815248071E+00  6.49756515919E+01  7.43381696966E+01  4.75000000000E+00  0.00000000000E+00  1.
       -5    1    4    4    0  803  4.28966441773E+01 -4.22810961593E-01  2.73390949178E+02  2.76776939869E+02  4.75000000000E+00  0.00000000000E+00  1.
       15    1    5    5    0    0 -1.11222318840E+01  1.46959628847E+01  2.94981633662E+01  3.48277766647E+01  1.77680000000E+00  0.00000000000E+00  1.
      -15    1    5    5    0    0  3.32872266230E+00 -7.23499944243E+00  3.05714189267E+01  3.16416542697E+01  1.77680000000E+00  0.00000000000E+00  1.
</event>
<event>
 9   2   1.0000000E+00   6.2499846E+01   7.8125000E-03   1.3828944E-01
       21   -1    0    0  501  502  0.00000000000E+00  0.00000000000E+00  1.36697854150E+02  1.36697854150E+02  0.00000000000E+00  0.00000000000E+00  1.
       21   -1    0    0  502  501  0.00000000000E+00  0.00000000000E+00 -2.85756552522E+01  2.85756552522E+01  0.00000000000E+00  0.00000000000E+00  1.
       39    2    1    2    0    0  1.77635683940E-15  0.00000000000E+00  1.08122198898E+02  1.65273509402E+02  1.24999692062E+02  0.00000000000E+00  1.
       23    2    3    3    0    0  3.83633207898E+00  1.77667484007E+01  7.77849913934E+01  9.18763883023E+01  4.53915305849E+01  0.00000000000E+00  1.
       23    2    3    3    0    0 -3.83633207898E+00 -1.77667484007E+01  3.03372075045E+01  7.33971210999E+01  6.43149783023E+01  0.00000000000E+00  1.
       16    1    4    4    0    0  9.76899793793E+00  1.67888280613E+00 -2.13341456490E+00  1.01392024289E+01  0.00000000000E+00  0.00000000000E+00  1.
      -16    1    4    4    0    0 -5.93266585894E+00  1.60878655946E+01  7.99184059583E+01  8.17371858734E+01  1.34869915235E-06  0.00000000000E+00  1.
        4    1    5    5  804    0 -9.89942683591E+00 -3.24169370896E+01 -5.33822061607E+00  3.43362590609E+01  1.27500000000E+00  0.00000000000E+00  1.
       -4    1    5    5    0  804  6.06309475693E+00  1.46501886888E+01  3.56754281205E+01  3.90608620390E+01  1.27500000000E+00  0.00000000000E+00  1.
</event>
<event>
 9   2   1.0000000E+00   6.2499035E+01   7.8125000E-03   1.3828975E-01
       21   -1    0    0  501  502  0.00000000000E+00  0.00000000000E+00  6.64865743472E+01  6.64865743472E+01  0.00000000000E+00  0.00000000000E+00  1.
       21   -1    0    0  502  501  0.00000000000E+00  0.00000000000E+00 -5.87506484405E+01  5.87506484405E+01  0.00000000000E+00  0.00000000000E+00  1.
       39    2    1    2    0    0 -2.66453525910E-15 -1.77635683940E-15  7.73592590674E+00  1.25237222788E+02  1.24998069673E+02  0.00000000000E+00  1.
       23    2    3    3    0    0 -5.17565001291E+00 -1.92590334642E+00 -1.09696887710E+01  3.11063751641E+01  2.85792940319E+01  0.00000000000E+00  1.
       23    2    3    3    0    0  5.17565001291E+00  1.92590334642E+00  1.87056146778E+01  9.41308476236E+01  9.20881099660E+01  0.00000000000E+00  1.
        2    1    4    4  803    0  4.86084934501E+00  5.63570685920E+00  6.29850474887E+00  9.74988267515E+00  0.00000000000E+00  0.00000000000E+00  1.
       -2    1    4    4    0  803 -1.00364993579E+01 -7.56161020562E+00 -1.72681935199E+01  2.13564925890E+01  0.00000000000E+00  0.00000000000E+00  1.
       13    1    5    5    0    0 -2.05173593957E+00 -1.82414156540E+01  5.16602182149E+01  5.48247040619E+01  1.05660000006E-01  0.00000000000E+00  1.
      -13    1    5    5    0    0  7.22738595248E+00  2.01673190004E+01 -3.29546035371E+01  3.93061435617E+01  1.05660000001E-01  0.00000000000E+00  1.
</event>
<event>
 9   2   1.0000000E+00   6.2502359E+01   7.8125000E-03   1.3828851E-01
       21   -1    0    0  501  502  0.00000000000E+00  0.00000000000E+00  6.05400735234E+02  6.05400735234E+02  0.00000000000E+00  0.00000000000E+00  1.
       21   -1    0    0  502  501  0.00000000000E+00  0.00000000000E+00 -6.45282481860E+00  6.45282481860E+00  0.00000000000E+00  0.00000000000E+00  1.
       39    2    1    2    0    0 -1.77635683940E-15  4.44089209850E-16  5.98947910415E+02  6.11853560053E+02  1.25004718143E+02  0.00000000000E+00  1.
       23    2    3    3    0    0  1.25208335429E+01  3.42528222790E+00  1.59820564959E+02  1.63193371182E+02  3.03473159090E+01  0.00000000000E+00  1.
       23    2    3    3    0    0 -1.25208335429E+01 -3.42528222790E+00  4.39127345457E+02  4.48660188871E+02  9.10748907171E+01  0.00000000000E+00  1.
        4    1    4    4  804    0 -8.31911637688E+00 -2.09355108686E+00  2.12758840128E+01  2.29756288047E+01  1.27500000000E+00  0.00000000000E+00  1.
       -4    1    4    4    0  804  2.08399499198E+01  5.51883331476E+00  1.38544680946E+02  1.40217742377E+02  1.27500000000E+00  0.00000000000E+00  1.
        1    1    5    5  803    0 -2.80426154062E+00 -1.19359989155E+00 -4.21739845745E+00  5.20336556838E+00  5.94195830850E-06  0.00000000000E+00  1.
       -1    1    5    5    0  803 -9.71657200233E+00 -2.23168233635E+00  4.43344743914E+02  4.43456823303E+02  5.39479660939E-06  0.00000000000E+00  1.
</event>
<event>
 9   2   1.0000000E+00   6.2497352E+01   7.8125000E-03   1.3829037E-01
       21   -1    0    0  501  502  0.00000000000E+00  0.00000000000E+00  2.83518573597E+02  2.83518573597E+02  0.00000000000E+00  0.00000000000E+00  1.
       21   -1    0    0  502  501  0.00000000000E+00  0.00000000000E+00 -1.37765896057E+01  1.37765896057E+01  0.00000000000E+00  0.00000000000E+00  1.
       39    2    1    2    0    0  3.55271367880E-15  0.00000000000E+00  2.69741983991E+02  2.97295163203E+02  1.24994704432E+02  0.00000000000E+00  1.
       23    2    3    3    0    0 -2.33643762881E+01 -1.11605526922E+01  2.17026361243E+02  2.36982264980E+02  9.15953078761E+01  0.00000000000E+00  1.
       23    2    3    3    0    0  2.33643762881E+01  1.11605526922E+01  5.27156227480E+01  6.03128982224E+01  1.37206703389E+01  0.00000000000E+00  1.
       15    1    4    4    0    0  1.98565062533E+01 -3.68720950167E+01  7.00876206244E+01  8.16655607618E+01  1.77680000000E+00  0.00000000000E+00  1.
      -15    1    4    4    0    0 -4.32208825414E+01  2.57115423244E+01  1.46938740619E+02  1.55316704219E+02  1.77680000000E+00  0.00000000000E+00  1.
       13    1    5    5    0    0  1.63440859221E+01  1.41137449599E+01  4.09894944237E+01  4.63300848107E+01  1.05659999996E-01  0.00000000000E+00  1.
      -13    1    5    5    0    0  7.02029036596E+00 -2.95319226767E+00  1.17261283243E+01  1.39828134117E+01  1.05659999997E-01  0.00000000000E+00  1.
</event>
<event>
 9   2   1.0000000E+00   6.2499201E+01   7.8125000E-03   1.3828968E-01
       21   -1    0    0  501  502  0.00000000000E+00  0.00000000000E+00  9.82414010721E+01  9.82414010721E+01  0.00000000000E+00  0.00000000000E+00  1.
       21   -1    0    0  502  501  0.00000000000E+00  0.00000000000E+00 -3.97607332226E+01  3.97607332226E+01  0.00000000000E+00  0.00000000000E+00  1.
       39    2    1    2    0    0  1.33226762955E-15 -8.88178419700E-16  5.84806678495E+01  1.38002134295E+02  1.24998402221E+02  0.00000000000E+00  1.
       23    2    3    3    0    0  2.27382173325E+00 -5.60678766567E-01  4.88044295036E+01  1.03904778747E+02  9.16997605308E+01  0.00000000000E+00  1.
       23    2    3    3    0    0 -2.27382173325E+00  5.60678766567E-01  9.67623834599E+00  3.40973555474E+01  3.26115844577E+01  0.00000000000E+00  1.
        1    1    4    4  803    0  4.17277079119E+01 -5.70579110474E-01  4.91144905318E+01  6.44496730883E+01  2.13248059988E-06  0.00000000000E+00  1.
       -1    1    4    4    0  803 -3.94538861786E+01  9.90034390648E-03 -3.10061028228E-01  3.94551058590E+01  2.23173184364E-06  0.00000000000E+00  1.
        3    1    5    5  804    0  3.48159581816E+00  3.55823760209E+00  2.07083010115E+01  2.12982697667E+01  0.00000000000E+00  0.00000000000E+00  1.
       -3    1    5    5    0  804 -5.75541755142E+00 -2.99755883553E+00 -1.10320626655E+01  1.27990857806E+01  0.00000000000E+00  0.00000000000E+00  1.
</event>
<event>
 9   2   1.0000000E+00   6.2499616E+01   7.8125000E-03   1.3828953E-01
       21   -1    0    0  501  502  0.00000000000E+00  0.00000000000E+00  6.20505191264E+02  6.20505191264E+02  0.00000000000E+00  0.00000000000E+00  1.
       21   -1    0    0  502  501  0.00000000000E+00  0.00000000000E+00 -6.29519627102E+00  6.29519627102E+00  0.00000000000E+00  0.00000000000E+00  1.
       39    2    1    2    0    0 -3.55271367880E-15  0.00000000000E+00  6.14209994993E+02  6.26800387535E+02  1.24999231457E+02  0.00000000000E+00  1.
       23    2    3    3    0    0  1.79279520658E+01  1.51014309540E+01  1.66863019855E+02  1.70242482049E+02  2.42851933697E+01  0.00000000000E+00  1.
       23    2    3    3    0    0 -1.79279520658E+01 -1.51014309540E+01  4.47346975138E+02  4.56557905486E+02  8.81835597738E+01  0.00000000000E+00  1.
       16    1    4    4    0    0  5.13512423210E-01  8.15906687346E+00  1.38311864282E+01  1.60666046589E+01  2.39013882348E-06  0.00000000000E+00  1.
      -16    1    4    4    0    0  1.74144396425E+01  6.94236408057E+00  1.53031833427E+02  1.54175877390E+02  2.69739830470E-06  0.00000000000E+00  1.
        1    1    5    5  804    0 -4.34035219358E+01  1.48863680603E+01  1.57358739410E+02  1.63912301466E+02  1.90734863281E-06  0.00000000000E+00  1.
       -1    1    5    5    0  804  2.54755698700E+01 -2.99877990144E+01  2.89988235728E+02  2.92645604120E+02  0.00000000000E+00  0.00000000000E+00  1.
</event>
<event>
 9   2   1.0000000E+00   6.2498067E+01   7.8125000E-03   1.3829011E-01
       21   -1    0    0  501  502  0.00000000000E+00  0.00000000000E+00  9.70990539530E+00  9.70990539530E+00  0.00000000000E+00  0.00000000000E+00  1.
       21   -1    0    0  502  501  0.00000000000E+00  0.00000000000E+00 -4.02270484252E+02  4.02270484252E+02  0.00000000000E+00  0.00000000000E+00  1.
       39    2    1    2    0    0 -3.55271367880E-15 -1.77635683940E-15 -3.92560578857E+02  4.11980389648E+02  1.24996133467E+02  0.00000000000E+00  1.
       23    2    3    3    0    0 -6.30494966369E+00  1.11668216406E+01 -2.95703299126E+02  3.07176873189E+02  8.21750571166E+01  0.00000000000E+00  1.
       23    2    3    3    0    0  6.30494966369E+00 -1.11668216406E+01 -9.68572797312E+01  1.04803516459E+02  3.79208930467E+01  0.00000000000E+00  1.
        3    1    4    4  803    0  2.71416386930E+01 -1.37880301661E+01 -2.06057246870E+02  2.08293944498E+02  0.00000000000E+00  0.00000000000E+00  1.
       -3    1    4    4    0  803 -3.34465883566E+01  2.49548518067E+01 -8.96460522561E+01  9.88829286909E+01  2.69739830470E-06  0.00000000000E+00  1.
        4    1    5    5  804    0  1.35510537834E+01  6.97236346044E+00 -1.83221020073E+01  2.38656648311E+01  1.27500000000E+00  0.00000000000E+00  1.
       -4    1    5    5    0  804 -7.24610411968E+00 -1.81391851011E+01 -7.85351777238E+01  8.09378516280E+01  1.27500000000E+00  0.00000000000E+00  1.
</event>
<event>
 9   2   1.0000000E+00   6.2501537E+01   7.8125000E-03   1.3828881E-01
       21   -1    0    0  501  502  0.00000000000E+00  0.00000000000E+00  1.54020411106E+02  1.54020411106E+02  0.00000000000E+00  0.00000000000E+00  1.
       21   -1    0    0  502  501  0.00000000000E+00  0.00000000000E+00 -2.53631457522E+01  2.53631457522E+01  0.00000000000E+00  0.00000000000E+00  1.
       39    2    1    2    0    0  3.55271367880E-15  1.77635683940E-15  1.28657265353E+02  1.79383556858E+02  1.25003074133E+02  0.00000000000E+00  1.
       23    2    3    3    0    0  1.54180780182E+01 -1.31498331636E+01  3.60866272710E+01  4.71869046592E+01  2.26654817181E+01  0.00000000000E+00  1.
       23    2    3    3    0    0 -1.54180780182E+01  1.31498331636E+01  9.25706380825E+01  1.32196652199E+02  9.21737303983E+01  0.00000000000E+00  1.
        1    1    4    4  803    0  5.63857868324E+00  3.70695880440E+00  2.23434734068E+01  2.33402211149E+01  0.00000000000E+00  0.00000000000E+00  1.
       -1    1    4    4    0  803  9.77949933495E+00 -1.68567919680E+01  1.37431538642E+01  2.38466836443E+01  0.00000000000E+00  0.00000000000E+00  1.
       16    1    5    5    0    0 -1.45999743340E+01  2.61829882512E+01  1.07941704286E+02  1.12027316628E+02  1.34869915235E-06  0.00000000000E+00  1.
      -16    1    5    5    0    0 -8.18103684220E-01 -1.30331550876E+01 -1.53710662033E+01  2.01693357708E+01  1.70264921869E-06  0.00000000000E+00  1.
</event>
<event>
 9   2   1.0000000E+00   6.2503102E+01   7.8125000E-03   1.3828823E-01
       21   -1    0    0  501  502  0.00000000000E+00  0.00000000000E+00  2.98822209214E+02  2.98822209214E+02  0.00000000000E+00  0.00000000000E+00  1.
       21   -1    0    0  502  501  0.00000000000E+00  0.00000000000E+00 -1.30734517889E+01  1.30734517889E+01  0.00000000000E+00  0.00000000000E+00  1.
       39    2    1    2    0    0  0.00000000000E+00  8.88178419700E-16  2.85748757425E+02  3.11895661003E+02  1.25006203776E+02  0.00000000000E+00  1.
       23    2    3    3    0    0  1.11453632323E+01  1.92807857234E+00  2.49984000703E+02  2.66422997295E+02  9.14400146073E+01  0.00000000000E+00  1.
       23    2    3    3    0    0 -1.11453632323E+01 -1.92807857234E+00  3.57647567221E+01  4.54726637083E+01  2.57042547603E+01  0.00000000000E+00  1.
        1    1    4    4  803    0 -1.82139270064E+01  3.77530473871E+01  8.09642039093E+01  9.11714979512E+01  2.33601545599E-06  0.00000000000E+00  1.
       -1    1    4    4    0  803  2.93592902386E+01 -3.58249688148E+01  1.69019796794E+02  1.75251499343E+02  1.90734863281E-06  0.00000000000E+00  1.
       14    1    5    5    0    0 -1.34531656327E+01  7.63777065160E+00  1.14628900711E+01  1.92541178673E+01  0.00000000000E+00  0.00000000000E+00  1.
      -14    1    5    5    0    0  2.30780240039E+00 -9.56584922395E+00  2.43018666510E+01  2.62185458410E+01  0.00000000000E+00  0.00000000000E+00  1.
</event>
<event>
 9   2   1.0000000E+00   6.2500226E+01   7.8125000E-03   1.3828930E-01
       21   -1    0    0  501  502  0.00000000000E+00  0.00000000000E+00  1.22449281177E+01  1.22449281177E+01  0.00000000000E+00  0.00000000000E+00  1.
       21   -1    0    0  502  501  0.00000000000E+00  0.00000000000E+00 -3.19011937279E+02  3.19011937279E+02  0.00000000000E+00  0.00000000000E+00  1.
       39    2    1    2    0    0  0.00000000000E+00  1.77635683940E-15 -3.06767009161E+02  3.31256865397E+02  1.25000451850E+02  0.00000000000E+00  1.
       23    2    3    3    0    0 -5.01233116661E+00  1.16276651578E+00 -8.20344128674E+01  8.87567963565E+01  3.34910214130E+01  0.00000000000E+00  1.
       23    2    3    3    0    0  5.01233116661E+00 -1.16276651578E+00 -2.24732596294E+02  2.42500069040E+02  9.09674016217E+01  0.00000000000E+00  1.
       13    1    4    4    0    0  3.46276743117E+00  1.18174370942E+01 -6.83601827060E+01  6.94605522681E+01  1.05659999991E-01  0.00000000000E+00  1.
      -13    1    4    4    0    0 -8.47509859778E+00 -1.06546705785E+01 -1.36742301614E+01  1.92962440884E+01  1.05660000003E-01  0.00000000000E+00  1.
        4    1    5    5  803    0 -3.86203188077E+01 -1.16573342925E+01 -6.44190234052E+01  7.60188047071E+01  1.27500000000E+00  0.00000000000E+00  1.
       -4    1    5    5    0  803  4.36326499743E+01  1.04945677767E+01 -1.60313572889E+02  1.66481264333E+02  1.27500000000E+00  0.00000000000E+00  1.
</event>
<event>
 9   2   1.0000000E+00   6.2500649E+01   7.8125000E-03   1.3828914E-01
       21   -1    0    0  501  502  0.00000000000E+00  0.00000000000E+00  7.12183579415E+02  7.12183579415E+02  0.00000000000E+00  0.00000000000E+00  1.
       21   -1    0    0  502  501  0.00000000000E+00  0.00000000000E+00 -5.48500596994E+00  5.48500596994E+00  0.00000000000E+00  0.00000000000E+00  1.
       39    2    1    2    0    0 -7.10542735760E-15 -3.55271367880E-15  7.06698573445E+02  7.17668585385E+02  1.25001298950E+02  0.00000000000E+00  1.
       23    2    3    3    0    0  1.60847021501E+01 -9.64462883179E+00  5.63295623029E+02  5.70956449562E+02  9.13103053532E+01  0.00000000000E+00  1.
       23    2    3    3    0    0 -1.60847021501E+01  9.64462883179E+00  1.43402950415E+02  1.46712135823E+02  2.46639027990E+01  0.00000000000E+00  1.
        1    1    4    4  804    0  3.16453265784E+01  1.28064523068E+01  5.09314267132E+02  5.10457103703E+02  5.39479660939E-06  0.00000000000E+00  1.
       -1    1    4    4    0  804 -1.55606244283E+01 -2.24510811385E+01  5.39813558974E+01  6.04993459585E+01  4.90933901834E-06  0.00000000000E+00  1.
        4    1    5    5  803    0  5.65955313086E+00  6.38736944190E+00  3.13778062763E+01  3.25426087114E+01  1.27500000000E+00  0.00000000000E+00  1.
       -4    1    5    5    0  803 -2.17442552810E+01  3.25725938989E+00  1.12025144139E+02  1.14169527111E+02  1.27500000000E+00  0.00000000000E+00  1.
</event>
</LesHouchesEvents>
