<LesHouchesEvents version="1.0">
<!--
Output from the JHUGenerator v7.4.0 described in arXiv:1001.3396 [hep-ph], arXiv:1208.4018 [hep-ph], arXiv:1309.4819 [hep-ph], arXiv:1606.03107 [hep-ph]
   
   Command line: ./JHUGen Seed=765543533 PDFSet=3 Process=2 PChannel=0 VegasNc0=100000 VegasNc2=100 DataFile=compare_to_reference/gg_spin2_Zgamma DecayMode1=9 DecayMode2=7 a1=0.937975757145835,0.0862675302011808 a2=0.525646610895282,0.270023242162833 a3=0.828619106655766,0.907278117187348 a4=0.853796956695806,0.883046297308361 a5=0.196874483378909,0.400008066791416 graviton_qq_left=0.5049181979003,0.327360285207962 graviton_qq_right=0.474004828998714,0.337826183822731 bzgs1=0.773894454518313,0.356509253551872 bzgs2=0.611963485285581,0.517604060575373 bzgs3=0.517046784436693,0.278595934220158 bzgs4=0.498002413656408,0.719085874763941 bzgs8=0.312064180125662,0.479555186522064
   
   Input Parameter:
    Collider: P-P, sqrt(s)=13000.00
    Resonance: spin=2, mass= 125.00 width=   0.00407
    DecayMode1: 9  DecayMode2: 7
    Z boson: mass=91.188, width=2.4952
    Random seed:   765543533
    To reproduce results using this seed, JHUGen should be compiled with the same compiler:
      GNU Fortran (GCC) 6.3.0
    
    OffXVV: TTF
    WidthScheme:   2
    PChannel: 0
    PDFSet:   3
    Unweighted: T
    Interference: T
    Intermediate off-shell photons: F
    
    Spin-2-VV couplings: 
      generate_bis=T
      use_dynamic_MG=T
      a1 =  0.93797576E+00  0.86267530E-01i
      a2 =  0.52564661E+00  0.27002324E+00i
      a3 =  0.82861911E+00  0.90727812E+00i
      a4 =  0.85379696E+00  0.88304630E+00i
      a5 =  0.19687448E+00  0.40000807E+00i
      bzgs1 =  0.77389445E+00  0.35650925E+00i
      bzgs2 =  0.61196349E+00  0.51760406E+00i
      bzgs3 =  0.51704678E+00  0.27859593E+00i
      bzgs4 =  0.49800241E+00  0.71908587E+00i
      bzgs8 =  0.31206418E+00  0.47955519E+00i
    
    LHE output: compare_to_reference/gg_spin2_Zgamma.lhe
    Histogram output: compare_to_reference/gg_spin2_Zgamma.dat
    Log file: compare_to_reference/gg_spin2_Zgamma.log
    
-->
<init>
2212 2212   6500.0000000000000000    6500.0000000000000000 0 0  263000  263000  3  1
 7.5386728E+10  6.8755976E+07  1.0000000E+00   2
</init>
<event>
 7   2   1.0000000E+00   6.2497141E+01   7.8125000E-03   1.3829045E-01
       21   -1    0    0  501  502  0.00000000000E+00  0.00000000000E+00  2.92397742783E+02  2.92397742783E+02  0.00000000000E+00 0.00000000000E+00  1.
       21   -1    0    0  502  501  0.00000000000E+00  0.00000000000E+00 -1.33581491415E+01  1.33581491415E+01  0.00000000000E+00 0.00000000000E+00  1.
       39    2    1    2    0    0  3.55271367880E-15  1.77635683940E-15  2.79039593642E+02  3.05755891925E+02  1.24994282377E+02 0.00000000000E+00  1.
       23    2    3    3    0    0 -9.44230561741E+00 -1.08305833514E+01  2.82355874820E+02  2.91009489246E+02  6.89581330585E+01 0.00000000000E+00  1.
       22    1    3    3    0    0  9.44230561741E+00  1.08305833514E+01 -3.31628117825E+00  1.47464026785E+01  0.00000000000E+00 0.00000000000E+00  1.
        3    1    4    4  803    0 -3.60035104205E+01 -2.13646274574E+01  1.67549328339E+02  1.72700542836E+02  0.00000000000E+00 0.00000000000E+00  1.
       -3    1    4    4    0  803  2.65612048031E+01  1.05340441060E+01  1.14806546481E+02  1.18308946411E+02  1.34869915235E-06 0.00000000000E+00  1.
</event>
<event>
 7   2   1.0000000E+00   6.2527625E+01   7.8125000E-03   1.3827908E-01
       21   -1    0    0  501  502  0.00000000000E+00  0.00000000000E+00  1.05047628572E+01  1.05047628572E+01  0.00000000000E+00 0.00000000000E+00  1.
       21   -1    0    0  502  501  0.00000000000E+00  0.00000000000E+00 -3.72183929056E+02  3.72183929056E+02  0.00000000000E+00 0.00000000000E+00  1.
       39    2    1    2    0    0  0.00000000000E+00  1.77635683940E-15 -3.61679166199E+02  3.82688691914E+02  1.25055250413E+02 0.00000000000E+00  1.
       23    2    3    3    0    0 -4.23143237591E+00 -1.07305673772E+01 -5.08940272694E+01  7.16895718572E+01  4.91542735190E+01 0.00000000000E+00  1.
       22    1    3    3    0    0  4.23143237591E+00  1.07305673772E+01 -3.10785138930E+02  3.10999120056E+02  0.00000000000E+00 0.00000000000E+00  1.
        4    1    4    4  803    0  4.14993074788E+00  1.72228941557E+01 -3.28804168118E+01  3.73710776274E+01  1.27500000000E+00 0.00000000000E+00  1.
       -4    1    4    4    0  803 -8.38136312379E+00 -2.79534615329E+01 -1.80136104576E+01  3.43184942298E+01  1.27500000000E+00 0.00000000000E+00  1.
</event>
<event>
 7   2   1.0000000E+00   6.2501357E+01   7.8125000E-03   1.3828888E-01
       21   -1    0    0  501  502  0.00000000000E+00  0.00000000000E+00  5.47793662627E+02  5.47793662627E+02  0.00000000000E+00 0.00000000000E+00  1.
       21   -1    0    0  502  501  0.00000000000E+00  0.00000000000E+00 -7.13118816259E+00  7.13118816259E+00  0.00000000000E+00 0.00000000000E+00  1.
       39    2    1    2    0    0 -3.55271367880E-15 -3.55271367880E-15  5.40662474464E+02  5.54924850790E+02  1.25002714890E+02 0.00000000000E+00  1.
       23    2    3    3    0    0 -1.60279573652E+01  3.13447742101E+01  4.72557219338E+02  4.78258586609E+02  6.46649814749E+01 0.00000000000E+00  1.
       22    1    3    3    0    0  1.60279573652E+01 -3.13447742101E+01  6.81052551266E+01  7.66662641808E+01  0.00000000000E+00 0.00000000000E+00  1.
        1    1    4    4  803    0  1.99380933621E+00 -1.82897412311E+01  7.56969834753E+01  7.79007266797E+01  2.86102294922E-06 0.00000000000E+00  1.
       -1    1    4    4    0  803 -1.80217667014E+01  4.96345154412E+01  3.96860235863E+02  4.00357860029E+02  5.39479660939E-06 0.00000000000E+00  1.
</event>
<event>
 7   2   1.0000000E+00   6.2500624E+01   7.8125000E-03   1.3828915E-01
       21   -1    0    0  501  502  0.00000000000E+00  0.00000000000E+00  3.23000855429E+02  3.23000855429E+02  0.00000000000E+00 0.00000000000E+00  1.
       21   -1    0    0  502  501  0.00000000000E+00  0.00000000000E+00 -1.20938629023E+01  1.20938629023E+01  0.00000000000E+00 0.00000000000E+00  1.
       39    2    1    2    0    0  1.77635683940E-15 -8.88178419700E-16  3.10906992527E+02  3.35094718331E+02  1.25001249000E+02 0.00000000000E+00  1.
       23    2    3    3    0    0  9.22673162100E+00 -4.01791373260E+00  1.57599291972E+02  1.81457069116E+02  8.93748001102E+01 0.00000000000E+00  1.
       22    1    3    3    0    0 -9.22673162100E+00  4.01791373260E+00  1.53307700555E+02  1.53637649216E+02  0.00000000000E+00 0.00000000000E+00  1.
       16    1    4    4    0    0 -1.53053229442E+01  1.12919748690E+01  1.50478621307E+02  1.51675894946E+02  2.69739830470E-06 0.00000000000E+00  1.
      -16    1    4    4    0    0  2.45320545652E+01 -1.53098886016E+01  7.12067066572E+00  2.97811743702E+01  0.00000000000E+00 0.00000000000E+00  1.
</event>
<event>
 7   2   1.0000000E+00   6.2499857E+01   7.8125000E-03   1.3828944E-01
       21   -1    0    0  501  502  0.00000000000E+00  0.00000000000E+00  4.21515576867E+02  4.21515576867E+02  0.00000000000E+00 0.00000000000E+00  1.
       21   -1    0    0  502  501  0.00000000000E+00  0.00000000000E+00 -9.26711226965E+00  9.26711226965E+00  0.00000000000E+00 0.00000000000E+00  1.
       39    2    1    2    0    0 -1.77635683940E-15  0.00000000000E+00  4.12248464597E+02  4.30782689137E+02  1.24999714787E+02 0.00000000000E+00  1.
       23    2    3    3    0    0 -1.18453588468E+01 -2.07221270945E+01  2.51959194646E+02  2.68726004180E+02  9.03355438267E+01 0.00000000000E+00  1.
       22    1    3    3    0    0  1.18453588468E+01  2.07221270945E+01  1.60289269952E+02  1.62056684957E+02  0.00000000000E+00 0.00000000000E+00  1.
        1    1    4    4  803    0 -6.17610995046E+00 -7.94517051242E+00 -5.10357936551E+00  1.12834653778E+01  2.68220901489E-06 0.00000000000E+00  1.
       -1    1    4    4    0  803 -5.66924889634E+00 -1.27769565821E+01  2.57062774011E+02  2.57442538802E+02  3.81469726562E-06 0.00000000000E+00  1.
</event>
<event>
 7   2   1.0000000E+00   6.2499332E+01   7.8125000E-03   1.3828964E-01
       21   -1    0    0  501  502  0.00000000000E+00  0.00000000000E+00  7.86593375623E+01  7.86593375623E+01  0.00000000000E+00 0.00000000000E+00  1.
       21   -1    0    0  502  501  0.00000000000E+00  0.00000000000E+00 -4.96592849464E+01  4.96592849464E+01  0.00000000000E+00 0.00000000000E+00  1.
       39    2    1    2    0    0  0.00000000000E+00 -1.77635683940E-15  2.90000526159E+01  1.28318622509E+02  1.24998663316E+02 0.00000000000E+00  1.
       23    2    3    3    0    0  1.17241342747E+01  8.38659530833E+00 -4.77515400043E+00  9.15959471251E+01  9.03284292383E+01 0.00000000000E+00  1.
       22    1    3    3    0    0 -1.17241342747E+01 -8.38659530833E+00  3.37752066163E+01  3.67226753837E+01  0.00000000000E+00 0.00000000000E+00  1.
        4    1    4    4  803    0  5.71353006118E-01  3.49708735905E+00 -4.72457616379E+01  4.73956082564E+01  1.27500000000E+00 0.00000000000E+00  1.
       -4    1    4    4    0  803  1.11527812686E+01  4.88950794928E+00  4.24706076374E+01  4.42003388687E+01  1.27500000000E+00 0.00000000000E+00  1.
</event>
<event>
 7   2   1.0000000E+00   6.2499391E+01   7.8125000E-03   1.3828961E-01
       21   -1    0    0  501  502  0.00000000000E+00  0.00000000000E+00  6.88547379172E+01  6.88547379172E+01  0.00000000000E+00 0.00000000000E+00  1.
       21   -1    0    0  502  501  0.00000000000E+00  0.00000000000E+00 -5.67306476889E+01  5.67306476889E+01  0.00000000000E+00 0.00000000000E+00  1.
       39    2    1    2    0    0 -3.55271367880E-15  1.77635683940E-15  1.21240902283E+01  1.25585385606E+02  1.24998782050E+02 0.00000000000E+00  1.
       23    2    3    3    0    0 -1.85574690031E+01  9.00103691638E+00  2.87686431327E+01  9.90818110782E+01  9.25428124570E+01 0.00000000000E+00  1.
       22    1    3    3    0    0  1.85574690031E+01 -9.00103691638E+00 -1.66445529044E+01  2.65035745279E+01  0.00000000000E+00 0.00000000000E+00  1.
        3    1    4    4  803    0  2.16083561143E+01  1.91486188466E+01 -1.99773670670E+01  3.51096262102E+01  1.09257118582E-06 0.00000000000E+00  1.
       -3    1    4    4    0  803 -4.01658251174E+01 -1.01475819302E+01  4.87460101997E+01  6.39721849679E+01  0.00000000000E+00 0.00000000000E+00  1.
</event>
<event>
 7   2   1.0000000E+00   6.2499370E+01   7.8125000E-03   1.3828962E-01
       21   -1    0    0  501  502  0.00000000000E+00  0.00000000000E+00  2.61466086849E+00  2.61466086849E+00  0.00000000000E+00 0.00000000000E+00  1.
       21   -1    0    0  502  501  0.00000000000E+00  0.00000000000E+00 -1.49394950542E+03  1.49394950542E+03  0.00000000000E+00 0.00000000000E+00  1.
       39    2    1    2    0    0  0.00000000000E+00  1.77635683940E-15 -1.49133484455E+03  1.49656416629E+03  1.24998740975E+02 0.00000000000E+00  1.
       23    2    3    3    0    0 -1.64169403767E+01 -7.77569615320E+00 -1.39817377264E+03  1.40164861066E+03  9.69481916445E+01 0.00000000000E+00  1.
       22    1    3    3    0    0  1.64169403767E+01  7.77569615320E+00 -9.31610719035E+01  9.49155556282E+01  0.00000000000E+00 0.00000000000E+00  1.
        3    1    4    4  803    0 -3.44086880497E+01 -1.80283743664E+01 -1.32584216400E+03  1.32641110679E+03  2.64289979182E-05 0.00000000000E+00  1.
       -3    1    4    4    0  803  1.79917476730E+01  1.02526782132E+01 -7.23316086416E+01  7.52375039695E+01  1.00475823906E-05 0.00000000000E+00  1.
</event>
<event>
 7   2   1.0000000E+00   6.2501354E+01   7.8125000E-03   1.3828888E-01
       21   -1    0    0  501  502  0.00000000000E+00  0.00000000000E+00  5.74499452151E+02  5.74499452151E+02  0.00000000000E+00 0.00000000000E+00  1.
       21   -1    0    0  502  501  0.00000000000E+00  0.00000000000E+00 -6.79969194747E+00  6.79969194747E+00  0.00000000000E+00 0.00000000000E+00  1.
       39    2    1    2    0    0 -8.88178419700E-16  4.44089209850E-15  5.67699760204E+02  5.81299144099E+02  1.25002708749E+02 0.00000000000E+00  1.
       23    2    3    3    0    0 -1.39449214426E+00  7.16903986941E+00  3.00643601650E+02  3.14143138060E+02  9.08074679539E+01 0.00000000000E+00  1.
       22    1    3    3    0    0  1.39449214426E+00 -7.16903986941E+00  2.67056158554E+02  2.67156006039E+02  0.00000000000E+00 0.00000000000E+00  1.
        3    1    4    4  803    0  1.55676149876E+01 -1.75438293560E+01  2.70909014282E+02  2.71922471679E+02  5.39479660939E-06 0.00000000000E+00  1.
       -3    1    4    4    0  803 -1.69621071318E+01  2.47128692254E+01  2.97345873678E+01  4.22206664808E+01  1.84678237257E-06 0.00000000000E+00  1.
</event>
<event>
 7   2   1.0000000E+00   6.2498515E+01   7.8125000E-03   1.3828994E-01
       21   -1    0    0  501  502  0.00000000000E+00  0.00000000000E+00  8.65066948474E+01  8.65066948474E+01  0.00000000000E+00 0.00000000000E+00  1.
       21   -1    0    0  502  501  0.00000000000E+00  0.00000000000E+00 -4.51533182079E+01  4.51533182079E+01  0.00000000000E+00 0.00000000000E+00  1.
       39    2    1    2    0    0 -2.66453525910E-15  1.77635683940E-15  4.13533766395E+01  1.31660013055E+02  1.24997029078E+02 0.00000000000E+00  1.
       23    2    3    3    0    0  4.23647268995E+00  1.46925474955E+01  7.33060818679E+00  9.43589751884E+01  9.28227328269E+01 0.00000000000E+00  1.
       22    1    3    3    0    0 -4.23647268995E+00 -1.46925474955E+01  3.40227684527E+01  3.73010378669E+01  0.00000000000E+00 0.00000000000E+00  1.
        2    1    4    4  803    0  1.27497359634E+01  4.43013770690E+01  3.09611801168E+01  5.55316347921E+01  0.00000000000E+00 0.00000000000E+00  1.
       -2    1    4    4    0  803 -8.51326327347E+00 -2.96088295735E+01 -2.36305719300E+01  3.88273405963E+01  0.00000000000E+00 0.00000000000E+00  1.
</event>
<event>
 7   2   1.0000000E+00   6.2501303E+01   7.8125000E-03   1.3828890E-01
       21   -1    0    0  501  502  0.00000000000E+00  0.00000000000E+00  3.05183792882E+01  3.05183792882E+01  0.00000000000E+00 0.00000000000E+00  1.
       21   -1    0    0  502  501  0.00000000000E+00  0.00000000000E+00 -1.28001975570E+02  1.28001975570E+02  0.00000000000E+00 0.00000000000E+00  1.
       39    2    1    2    0    0  0.00000000000E+00  5.32907051820E-15 -9.74835962815E+01  1.58520354858E+02  1.25002605414E+02 0.00000000000E+00  1.
       23    2    3    3    0    0  1.89113309221E+00  1.16655469849E+01 -1.08655671422E+02  1.42257617272E+02  9.10577474400E+01 0.00000000000E+00  1.
       22    1    3    3    0    0 -1.89113309221E+00 -1.16655469849E+01  1.11720751409E+01  1.62627375857E+01  0.00000000000E+00 0.00000000000E+00  1.
        3    1    4    4  803    0 -1.03243517384E+01  4.61700416582E+01 -8.87984145040E+01  1.00615224614E+02  2.33601545599E-06 0.00000000000E+00  1.
       -3    1    4    4    0  803  1.22154848306E+01 -3.45044946734E+01 -1.98572569184E+01  4.16423928582E+01  1.09257118582E-06 0.00000000000E+00  1.
</event>
<event>
 7   2   1.0000000E+00   6.2501909E+01   7.8125000E-03   1.3828867E-01
       21   -1    0    0  501  502  0.00000000000E+00  0.00000000000E+00  3.57051293638E+02  3.57051293638E+02  0.00000000000E+00 0.00000000000E+00  1.
       21   -1    0    0  502  501  0.00000000000E+00  0.00000000000E+00 -1.09409732798E+01  1.09409732798E+01  0.00000000000E+00 0.00000000000E+00  1.
       39    2    1    2    0    0 -3.55271367880E-15 -3.99680288865E-15  3.46110320358E+02  3.67992266918E+02  1.25003818553E+02 0.00000000000E+00  1.
       23    2    3    3    0    0 -9.41781720491E+00  1.40755663760E+00  1.62293792286E+02  1.83929254640E+02  8.60233642738E+01 0.00000000000E+00  1.
       22    1    3    3    0    0  9.41781720491E+00 -1.40755663760E+00  1.83816528072E+02  1.84063012279E+02  0.00000000000E+00 0.00000000000E+00  1.
        5    1    4    4  803    0  1.88119035668E+01 -3.36356997376E+01  9.70491588298E+01  1.04529181295E+02  4.75000000000E+00 0.00000000000E+00  1.
       -5    1    4    4    0  803 -2.82297207717E+01  3.50432563752E+01  6.52446334567E+01  7.94000733446E+01  4.75000000000E+00 0.00000000000E+00  1.
</event>
<event>
 7   2   1.0000000E+00   6.2499224E+01   7.8125000E-03   1.3828968E-01
       21   -1    0    0  501  502  0.00000000000E+00  0.00000000000E+00  6.34349411078E+01  6.34349411078E+01  0.00000000000E+00 0.00000000000E+00  1.
       21   -1    0    0  502  501  0.00000000000E+00  0.00000000000E+00 -6.15773102537E+01  6.15773102537E+01  0.00000000000E+00 0.00000000000E+00  1.
       39    2    1    2    0    0 -8.88178419700E-16  5.10702591328E-15  1.85763085409E+00  1.25012251362E+02  1.24998448783E+02 0.00000000000E+00  1.
       23    2    3    3    0    0  7.44180022290E+00  1.83750658071E+00 -2.63140995802E+01  9.58163061524E+01  9.18127217056E+01 0.00000000000E+00  1.
       22    1    3    3    0    0 -7.44180022290E+00 -1.83750658071E+00  2.81717304343E+01  2.91959452091E+01  0.00000000000E+00 0.00000000000E+00  1.
        3    1    4    4  803    0  1.38932646562E+01 -4.26420888041E+01 -2.38696999991E+01  5.08048532960E+01  1.87730976916E-06 0.00000000000E+00  1.
       -3    1    4    4    0  803 -6.45146443329E+00  4.44795953848E+01 -2.44439958108E+00  4.50114528564E+01  1.68429269206E-06 0.00000000000E+00  1.
</event>
<event>
 7   2   1.0000000E+00   6.2500785E+01   7.8125000E-03   1.3828909E-01
       21   -1    0    0  501  502  0.00000000000E+00  0.00000000000E+00  5.30390542722E+01  5.30390542722E+01  0.00000000000E+00 0.00000000000E+00  1.
       21   -1    0    0  502  501  0.00000000000E+00  0.00000000000E+00 -7.36504110619E+01  7.36504110619E+01  0.00000000000E+00 0.00000000000E+00  1.
       39    2    1    2    0    0  2.66453525910E-15 -3.55271367880E-15 -2.06113567897E+01  1.26689465334E+02  1.25001570382E+02 0.00000000000E+00  1.
       23    2    3    3    0    0 -7.75689311908E+00 -3.32804509236E+00 -4.29865388961E+01  1.02775158961E+02  9.29712078993E+01 0.00000000000E+00  1.
       22    1    3    3    0    0  7.75689311908E+00  3.32804509236E+00  2.23751821064E+01  2.39143063728E+01  0.00000000000E+00 0.00000000000E+00  1.
        5    1    4    4  803    0  3.25548955133E+01 -2.83502137735E+01 -3.17168687308E+01  5.37780448229E+01  4.75000000000E+00 0.00000000000E+00  1.
       -5    1    4    4    0  803 -4.03117886324E+01  2.50221686812E+01 -1.12696701653E+01  4.89971141383E+01  4.75000000000E+00 0.00000000000E+00  1.
</event>
<event>
 7   2   1.0000000E+00   6.2504956E+01   7.8125000E-03   1.3828754E-01
       21   -1    0    0  501  502  0.00000000000E+00  0.00000000000E+00  3.42238320365E+01  3.42238320365E+01  0.00000000000E+00 0.00000000000E+00  1.
       21   -1    0    0  502  501  0.00000000000E+00  0.00000000000E+00 -1.14156403401E+02  1.14156403401E+02  0.00000000000E+00 0.00000000000E+00  1.
       39    2    1    2    0    0  0.00000000000E+00 -2.44249065418E-15 -7.99325713643E+01  1.48380235437E+02  1.25009912821E+02 0.00000000000E+00  1.
       23    2    3    3    0    0 -2.31698818376E+01  1.43339626217E+00 -8.22745815734E+01  1.25048217500E+02  9.12636394059E+01 0.00000000000E+00  1.
       22    1    3    3    0    0  2.31698818376E+01 -1.43339626217E+00  2.34201020913E+00  2.33320179374E+01  0.00000000000E+00 0.00000000000E+00  1.
        2    1    4    4  803    0 -2.24435029305E+01 -1.90005065577E+01 -9.60125441534E+01  1.00414833208E+02  2.33601545599E-06 0.00000000000E+00  1.
       -2    1    4    4    0  803 -7.26378907104E-01  2.04339028199E+01  1.37379625799E+01  2.46333844922E+01  1.34869915235E-06 0.00000000000E+00  1.
</event>
<event>
 7   2   1.0000000E+00   6.2497959E+01   7.8125000E-03   1.3829015E-01
       21   -1    0    0  501  502  0.00000000000E+00  0.00000000000E+00  2.01382430148E+00  2.01382430148E+00  0.00000000000E+00 0.00000000000E+00  1.
       21   -1    0    0  502  501  0.00000000000E+00  0.00000000000E+00 -1.93959069636E+03  1.93959069636E+03  0.00000000000E+00 0.00000000000E+00  1.
       39    2    1    2    0    0 -4.44089209850E-16  0.00000000000E+00 -1.93757687206E+03  1.94160452066E+03  1.24995918001E+02 0.00000000000E+00  1.
       23    2    3    3    0    0  3.02769624512E+00  1.14398926908E+01 -1.90012775962E+03  1.90233017647E+03  9.07444727510E+01 0.00000000000E+00  1.
       22    1    3    3    0    0 -3.02769624512E+00 -1.14398926908E+01 -3.74491124319E+01  3.92743441863E+01  0.00000000000E+00 0.00000000000E+00  1.
        2    1    4    4  803    0  1.74279338331E+01 -3.41976840617E+01 -5.40835008178E+02  5.42195279076E+02  7.62939453125E-06 0.00000000000E+00  1.
       -2    1    4    4    0  803 -1.44002375879E+01  4.56375767525E+01 -1.35929275145E+03  1.36013489750E+03  1.52587890625E-05 0.00000000000E+00  1.
</event>
<event>
 7   2   1.0000000E+00   6.2499766E+01   7.8125000E-03   1.3828947E-01
       21   -1    0    0  501  502  0.00000000000E+00  0.00000000000E+00  5.39662182616E+02  5.39662182616E+02  0.00000000000E+00 0.00000000000E+00  1.
       21   -1    0    0  502  501  0.00000000000E+00  0.00000000000E+00 -7.23827022706E+00  7.23827022706E+00  0.00000000000E+00 0.00000000000E+00  1.
       39    2    1    2    0    0  2.22044604925E-15 -3.55271367880E-15  5.32423912389E+02  5.46900452843E+02  1.24999531345E+02 0.00000000000E+00  1.
       23    2    3    3    0    0  2.83548701004E+00  2.85644910694E+01  4.26921992936E+02  4.37563244424E+02  9.15163082827E+01 0.00000000000E+00  1.
       22    1    3    3    0    0 -2.83548701004E+00 -2.85644910694E+01  1.05501919453E+02  1.09337208419E+02  0.00000000000E+00 0.00000000000E+00  1.
        4    1    4    4  803    0  3.19651940854E+01  2.91375609306E+01  3.79020331568E+02  3.81482382892E+02  1.27499999999E+00 0.00000000000E+00  1.
       -4    1    4    4    0  803 -2.91297070754E+01 -5.73069861174E-01  4.79016613678E+01  5.60808615319E+01  1.27499999999E+00 0.00000000000E+00  1.
</event>
<event>
 7   2   1.0000000E+00   6.2498839E+01   7.8125000E-03   1.3828982E-01
       21   -1    0    0  501  502  0.00000000000E+00  0.00000000000E+00  6.58035879990E+00  6.58035879990E+00  0.00000000000E+00 0.00000000000E+00  1.
       21   -1    0    0  502  501  0.00000000000E+00  0.00000000000E+00 -5.93600596029E+02  5.93600596029E+02  0.00000000000E+00 0.00000000000E+00  1.
       39    2    1    2    0    0  3.55271367880E-15  3.10862446895E-15 -5.87020237229E+02  6.00180954829E+02  1.24997678470E+02 0.00000000000E+00  1.
       23    2    3    3    0    0 -1.99427156800E+01  2.82444617014E+00 -5.49128006999E+02  5.57268130211E+02  9.27389425942E+01 0.00000000000E+00  1.
       22    1    3    3    0    0  1.99427156800E+01 -2.82444617014E+00 -3.78922302299E+01  4.29128246176E+01  0.00000000000E+00 0.00000000000E+00  1.
       16    1    4    4    0    0  1.07977660210E+01  1.00110064071E+01 -1.14196846940E+01  1.86338724521E+01  8.23321182720E-06 0.00000000000E+00  1.
      -16    1    4    4    0    0 -3.07404817009E+01 -7.18656023696E+00 -5.37708322305E+02  5.38634257859E+02  0.00000000000E+00 0.00000000000E+00  1.
</event>
<event>
 7   2   1.0000000E+00   6.2496508E+01   7.8125000E-03   1.3829069E-01
       21   -1    0    0  501  502  0.00000000000E+00  0.00000000000E+00  7.01186994274E+01  7.01186994274E+01  0.00000000000E+00 0.00000000000E+00  1.
       21   -1    0    0  502  501  0.00000000000E+00  0.00000000000E+00 -5.57028793911E+01  5.57028793911E+01  0.00000000000E+00 0.00000000000E+00  1.
       39    2    1    2    0    0  0.00000000000E+00  2.66453525910E-15  1.44158200363E+01  1.25821578819E+02  1.24993015121E+02 0.00000000000E+00  1.
       23    2    3    3    0    0  1.21706156600E+01  7.58179943137E+00  3.56519269456E+01  1.00197765581E+02  9.25360727736E+01 0.00000000000E+00  1.
       22    1    3    3    0    0 -1.21706156600E+01 -7.58179943137E+00 -2.12361069093E+01  2.56238132374E+01  0.00000000000E+00 0.00000000000E+00  1.
       15    1    4    4    0    0 -3.07347070029E-01 -3.74025005048E+01 -5.61522181013E+00  3.78646172626E+01  1.77680000000E+00 0.00000000000E+00  1.
      -15    1    4    4    0    0  1.24779627300E+01  4.49842999361E+01  4.12671487557E+01  6.23331483185E+01  1.77680000000E+00 0.00000000000E+00  1.
</event>
<event>
 7   2   1.0000000E+00   6.2498834E+01   7.8125000E-03   1.3828982E-01
       21   -1    0    0  501  502  0.00000000000E+00  0.00000000000E+00  6.20325729287E+02  6.20325729287E+02  0.00000000000E+00 0.00000000000E+00  1.
       21   -1    0    0  502  501  0.00000000000E+00  0.00000000000E+00 -6.29685999474E+00  6.29685999474E+00  0.00000000000E+00 0.00000000000E+00  1.
       39    2    1    2    0    0  0.00000000000E+00  1.77635683940E-15  6.14028869292E+02  6.26622589281E+02  1.24997668273E+02 0.00000000000E+00  1.
       23    2    3    3    0    0  2.80181922039E+01 -8.17350745392E+00  4.00839711289E+02  4.11444889674E+02  8.81056058027E+01 0.00000000000E+00  1.
       22    1    3    3    0    0 -2.80181922039E+01  8.17350745392E+00  2.13189158003E+02  2.15177699608E+02  0.00000000000E+00 0.00000000000E+00  1.
        3    1    4    4  803    0  4.47709999570E+01  2.09837084296E+01  3.21398424424E+02  3.25179497730E+02  3.81469726562E-06 0.00000000000E+00  1.
       -3    1    4    4    0  803 -1.67528077532E+01 -2.91572158835E+01  7.94412868646E+01  8.62653920433E+01  0.00000000000E+00 0.00000000000E+00  1.
</event>
<event>
 7   2   1.0000000E+00   6.2501395E+01   7.8125000E-03   1.3828887E-01
       21   -1    0    0  501  502  0.00000000000E+00  0.00000000000E+00  1.32883245104E+01  1.32883245104E+01  0.00000000000E+00 0.00000000000E+00  1.
       21   -1    0    0  502  501  0.00000000000E+00  0.00000000000E+00 -2.93974181156E+02  2.93974181156E+02  0.00000000000E+00 0.00000000000E+00  1.
       39    2    1    2    0    0  3.55271367880E-15  7.10542735760E-15 -2.80685856645E+02  3.07262505666E+02  1.25002789039E+02 0.00000000000E+00  1.
       23    2    3    3    0    0 -1.39066755025E+01  2.30029633719E+01 -1.86846346109E+02  2.09649055337E+02  9.12065644681E+01 0.00000000000E+00  1.
       22    1    3    3    0    0  1.39066755025E+01 -2.30029633719E+01 -9.38395105362E+01  9.76134503288E+01  0.00000000000E+00 0.00000000000E+00  1.
        4    1    4    4  803    0  1.93000569528E+00 -1.93822792347E+01 -1.50050818574E+02  1.51315139527E+02  1.27500000000E+00 0.00000000000E+00  1.
       -4    1    4    4    0  803 -1.58366811978E+01  4.23852426067E+01 -3.67955275351E+01  5.83339158104E+01  1.27500000000E+00 0.00000000000E+00  1.
</event>
<event>
 7   2   1.0000000E+00   6.2499888E+01   7.8125000E-03   1.3828943E-01
       21   -1    0    0  501  502  0.00000000000E+00  0.00000000000E+00  1.68534789138E+01  1.68534789138E+01  0.00000000000E+00 0.00000000000E+00  1.
       21   -1    0    0  502  501  0.00000000000E+00  0.00000000000E+00 -2.31776245075E+02  2.31776245075E+02  0.00000000000E+00 0.00000000000E+00  1.
       39    2    1    2    0    0  0.00000000000E+00  6.66133814775E-15 -2.14922766161E+02  2.48629723988E+02  1.24999776945E+02 0.00000000000E+00  1.
       23    2    3    3    0    0 -1.99515880258E+01 -1.48114704000E+00 -1.12177493184E+02  1.43954747130E+02  8.79711292574E+01 0.00000000000E+00  1.
       22    1    3    3    0    0  1.99515880258E+01  1.48114704000E+00 -1.02745272977E+02  1.04674976858E+02  0.00000000000E+00 0.00000000000E+00  1.
       15    1    4    4    0    0  3.35998437052E+00  2.80214374226E+01 -2.96035151182E+00  2.84325719820E+01  1.77680000000E+00 0.00000000000E+00  1.
      -15    1    4    4    0    0 -2.33115723963E+01 -2.95025844626E+01 -1.09217141673E+02  1.15522175148E+02  1.77680000000E+00 0.00000000000E+00  1.
</event>
<event>
 7   2   1.0000000E+00   6.2501244E+01   7.8125000E-03   1.3828892E-01
       21   -1    0    0  501  502  0.00000000000E+00  0.00000000000E+00  1.47704676038E+02  1.47704676038E+02  0.00000000000E+00 0.00000000000E+00  1.
       21   -1    0    0  502  501  0.00000000000E+00  0.00000000000E+00 -2.64474057450E+01  2.64474057450E+01  0.00000000000E+00 0.00000000000E+00  1.
       39    2    1    2    0    0 -4.44089209850E-16 -4.88498130835E-15  1.21257270293E+02  1.74152081783E+02  1.25002487937E+02 0.00000000000E+00  1.
       23    2    3    3    0    0 -4.78346925639E-01 -3.85603125787E+00  6.39461061337E+01  1.16709350910E+02  9.75544479117E+01 0.00000000000E+00  1.
       22    1    3    3    0    0  4.78346925639E-01  3.85603125787E+00  5.73111641590E+01  5.74427308726E+01  0.00000000000E+00 0.00000000000E+00  1.
        3    1    4    4  803    0  3.66773315613E+00  4.09164837181E+01  3.30000091249E+00  4.12128731392E+01  1.26159253648E-06 0.00000000000E+00  1.
       -3    1    4    4    0  803 -4.14608008176E+00 -4.47725149760E+01  6.06461052212E+01  7.54964778710E+01  0.00000000000E+00 0.00000000000E+00  1.
</event>
<event>
 7   2   1.0000000E+00   6.2501736E+01   7.8125000E-03   1.3828874E-01
       21   -1    0    0  501  502  0.00000000000E+00  0.00000000000E+00  3.20879927765E+02  3.20879927765E+02  0.00000000000E+00 0.00000000000E+00  1.
       21   -1    0    0  502  501  0.00000000000E+00  0.00000000000E+00 -1.21742331170E+01  1.21742331170E+01  0.00000000000E+00 0.00000000000E+00  1.
       39    2    1    2    0    0 -8.88178419700E-15  0.00000000000E+00  3.08705694648E+02  3.33054160882E+02  1.25003472642E+02 0.00000000000E+00  1.
       23    2    3    3    0    0  1.07968729014E+01 -1.80436338624E+00  3.08884135817E+02  3.22106100189E+02  9.06813223786E+01 0.00000000000E+00  1.
       22    1    3    3    0    0 -1.07968729014E+01  1.80436338624E+00 -1.78441168524E-01  1.09480606926E+01  0.00000000000E+00 0.00000000000E+00  1.
        3    1    4    4  803    0  4.84527782460E+01  1.12512542235E+01  1.39714118955E+02  1.48304745394E+02  1.90734863281E-06 0.00000000000E+00  1.
       -3    1    4    4    0  803 -3.76559053445E+01 -1.30556176097E+01  1.69170016862E+02  1.73801354895E+02  1.90734863281E-06 0.00000000000E+00  1.
</event>
<event>
 7   2   1.0000000E+00   6.2500221E+01   7.8125000E-03   1.3828930E-01
       21   -1    0    0  501  502  0.00000000000E+00  0.00000000000E+00  7.47486114951E+02  7.47486114951E+02  0.00000000000E+00 0.00000000000E+00  1.
       21   -1    0    0  502  501  0.00000000000E+00  0.00000000000E+00 -5.22588649795E+00  5.22588649795E+00  0.00000000000E+00 0.00000000000E+00  1.
       39    2    1    2    0    0  0.00000000000E+00 -4.44089209850E-16  7.42260228453E+02  7.52712001449E+02  1.25000441528E+02 0.00000000000E+00  1.
       23    2    3    3    0    0 -1.11553191609E+01 -7.31802850765E-01  4.95208145190E+02  5.05407111635E+02  1.00400521653E+02 0.00000000000E+00  1.
       22    1    3    3    0    0  1.11553191609E+01  7.31802850765E-01  2.47052083264E+02  2.47304889814E+02  0.00000000000E+00 0.00000000000E+00  1.
       13    1    4    4    0    0 -1.51672242591E+01 -5.66850763540E+00  7.82747203318E+00  1.79849145954E+01  1.05660000506E-01 0.00000000000E+00  1.
      -13    1    4    4    0    0  4.01190509821E+00  4.93670478464E+00  4.87380673156E+02  4.87422197040E+02  1.05660000641E-01 0.00000000000E+00  1.
</event>
<event>
 7   2   1.0000000E+00   6.2504906E+01   7.8125000E-03   1.3828755E-01
       21   -1    0    0  501  502  0.00000000000E+00  0.00000000000E+00  2.62829360084E+01  2.62829360084E+01  0.00000000000E+00 0.00000000000E+00  1.
       21   -1    0    0  502  501  0.00000000000E+00  0.00000000000E+00 -1.48646380309E+02  1.48646380309E+02  0.00000000000E+00 0.00000000000E+00  1.
       39    2    1    2    0    0  6.66133814775E-16  0.00000000000E+00 -1.22363444300E+02  1.74929316317E+02  1.25009812439E+02 0.00000000000E+00  1.
       23    2    3    3    0    0 -1.22011725467E+00  2.15899801222E+01 -5.67980383725E+01  1.05889918997E+02  8.67124088843E+01 0.00000000000E+00  1.
       22    1    3    3    0    0  1.22011725467E+00 -2.15899801222E+01 -6.55654059277E+01  6.90393973196E+01  0.00000000000E+00 0.00000000000E+00  1.
       14    1    4    4    0    0  1.62405337181E+01 -2.55802553168E+01 -4.49603890095E+01  5.42175338559E+01  1.34869915235E-06 0.00000000000E+00  1.
      -14    1    4    4    0    0 -1.74606509728E+01  4.71702354390E+01 -1.18376493629E+01  5.16723851415E+01  1.72750672653E-06 0.00000000000E+00  1.
</event>
<event>
 7   2   1.0000000E+00   6.2503740E+01   7.8125000E-03   1.3828799E-01
       21   -1    0    0  501  502  0.00000000000E+00  0.00000000000E+00  2.85584162802E+01  2.85584162802E+01  0.00000000000E+00 0.00000000000E+00  1.
       21   -1    0    0  502  501  0.00000000000E+00  0.00000000000E+00 -1.36797416670E+02  1.36797416670E+02  0.00000000000E+00 0.00000000000E+00  1.
       39    2    1    2    0    0 -8.88178419700E-16  6.66133814775E-16 -1.08239000389E+02  1.65355832950E+02  1.25007480917E+02 0.00000000000E+00  1.
       23    2    3    3    0    0 -5.68718252860E+00  1.80139885735E+00 -1.20940253364E+02  1.51323338158E+02  9.07558191234E+01 0.00000000000E+00  1.
       22    1    3    3    0    0  5.68718252860E+00 -1.80139885735E+00  1.27012529743E+01  1.40324947915E+01  0.00000000000E+00 0.00000000000E+00  1.
        3    1    4    4  803    0  1.69004900730E+01  1.23510151565E+01  6.14502332671E+00  2.18159448980E+01  1.52429483563E-06 0.00000000000E+00  1.
       -3    1    4    4    0  803 -2.25876726016E+01 -1.05496162992E+01 -1.27085276690E+02  1.29507393260E+02  1.34869915235E-06 0.00000000000E+00  1.
</event>
<event>
 7   2   1.0000000E+00   6.2500643E+01   7.8125000E-03   1.3828915E-01
       21   -1    0    0  501  502  0.00000000000E+00  0.00000000000E+00  1.64838311590E+03  1.64838311590E+03  0.00000000000E+00 0.00000000000E+00  1.
       21   -1    0    0  502  501  0.00000000000E+00  0.00000000000E+00 -2.36979520617E+00  2.36979520617E+00  0.00000000000E+00 0.00000000000E+00  1.
       39    2    1    2    0    0 -3.55271367880E-15 -7.10542735760E-15  1.64601332070E+03  1.65075291111E+03  1.25001286489E+02 0.00000000000E+00  1.
       23    2    3    3    0    0  2.39869009551E+00  2.46398634058E+01  1.07862116087E+03  1.08282092608E+03  9.20036559263E+01 0.00000000000E+00  1.
       22    1    3    3    0    0 -2.39869009551E+00 -2.46398634058E+01  5.67392159832E+02  5.67931985032E+02  0.00000000000E+00 0.00000000000E+00  1.
        2    1    4    4  803    0 -3.36416403668E+01 -1.86646629627E+01  4.91073415712E+02  4.92578145302E+02  1.07895932188E-05 0.00000000000E+00  1.
       -2    1    4    4    0  803  3.60403304623E+01  4.33045263685E+01  5.87547745154E+02  5.90242780877E+02  1.07895932188E-05 0.00000000000E+00  1.
</event>
<event>
 7   2   1.0000000E+00   6.2500196E+01   7.8125000E-03   1.3828931E-01
       21   -1    0    0  501  502  0.00000000000E+00  0.00000000000E+00  3.18691902124E+01  3.18691902124E+01  0.00000000000E+00 0.00000000000E+00  1.
       21   -1    0    0  502  501  0.00000000000E+00  0.00000000000E+00 -1.22572130066E+02  1.22572130066E+02  0.00000000000E+00 0.00000000000E+00  1.
       39    2    1    2    0    0  0.00000000000E+00  0.00000000000E+00 -9.07029398540E+01  1.54441320279E+02  1.25000392445E+02 0.00000000000E+00  1.
       23    2    3    3    0    0 -1.20184420801E+01 -2.33488967511E+01 -8.55762584416E+01  1.27685072563E+02  9.10525552471E+01 0.00000000000E+00  1.
       22    1    3    3    0    0  1.20184420801E+01  2.33488967511E+01 -5.12668141236E+00  2.67562477158E+01  0.00000000000E+00 0.00000000000E+00  1.
       14    1    4    4    0    0 -7.67013294912E+00 -1.05262599479E+01 -1.04004844727E+02  1.04817178152E+02  2.69739830470E-06 0.00000000000E+00  1.
      -14    1    4    4    0    0 -4.34830913097E+00 -1.28226368032E+01  1.84285862858E+01  2.28678946113E+01  2.00895065622E-06 0.00000000000E+00  1.
</event>
<event>
 7   2   1.0000000E+00   6.2500927E+01   7.8125000E-03   1.3828904E-01
       21   -1    0    0  501  502  0.00000000000E+00  0.00000000000E+00  2.85956591609E+02  2.85956591609E+02  0.00000000000E+00 0.00000000000E+00  1.
       21   -1    0    0  502  501  0.00000000000E+00  0.00000000000E+00 -1.36606953911E+01  1.36606953911E+01  0.00000000000E+00 0.00000000000E+00  1.
       39    2    1    2    0    0 -3.55271367880E-15  3.55271367880E-15  2.72295896218E+02  2.99617287000E+02  1.25001854275E+02 0.00000000000E+00  1.
       23    2    3    3    0    0 -1.74488460565E+01 -9.67735140324E+00  2.60924476242E+02  2.76651604969E+02  8.97575337831E+01 0.00000000000E+00  1.
       22    1    3    3    0    0  1.74488460565E+01  9.67735140324E+00  1.13714199757E+01  2.29656820310E+01  0.00000000000E+00 0.00000000000E+00  1.
        1    1    4    4  803    0 -1.64926800022E+01 -4.58432032455E+01  9.42680260741E+01  1.06113470009E+02  1.90734863281E-06 0.00000000000E+00  1.
       -1    1    4    4    0  803 -9.56166054382E-01  3.61658518423E+01  1.66656450168E+02  1.70538134960E+02  3.81469726562E-06 0.00000000000E+00  1.
</event>
<event>
 7   2   1.0000000E+00   6.2498415E+01   7.8125000E-03   1.3828998E-01
       21   -1    0    0  501  502  0.00000000000E+00  0.00000000000E+00  4.30922326201E+01  4.30922326201E+01  0.00000000000E+00 0.00000000000E+00  1.
       21   -1    0    0  502  501  0.00000000000E+00  0.00000000000E+00 -9.06439905386E+01  9.06439905386E+01  0.00000000000E+00 0.00000000000E+00  1.
       39    2    1    2    0    0  0.00000000000E+00 -5.32907051820E-15 -4.75517579185E+01  1.33736223159E+02  1.24996830774E+02 0.00000000000E+00  1.
       23    2    3    3    0    0  1.52091057480E+01 -3.84504151762E+00 -1.04473314632E+01  9.34517384964E+01  9.15313031229E+01 0.00000000000E+00  1.
       22    1    3    3    0    0 -1.52091057480E+01  3.84504151762E+00 -3.71044264553E+01  4.02844846622E+01  0.00000000000E+00 0.00000000000E+00  1.
        4    1    4    4  803    0 -2.36365350706E+01  2.80872180680E+01 -2.06317283085E+01  4.21292231941E+01  1.27500000000E+00 0.00000000000E+00  1.
       -4    1    4    4    0  803  3.88456408187E+01 -3.19322595856E+01  1.01843968453E+01  5.13225153023E+01  1.27500000000E+00 0.00000000000E+00  1.
</event>
<event>
 7   2   1.0000000E+00   6.2499966E+01   7.8125000E-03   1.3828940E-01
       21   -1    0    0  501  502  0.00000000000E+00  0.00000000000E+00  1.87927325211E+02  1.87927325211E+02  0.00000000000E+00 0.00000000000E+00  1.
       21   -1    0    0  502  501  0.00000000000E+00  0.00000000000E+00 -2.07859383984E+01  2.07859383984E+01  0.00000000000E+00 0.00000000000E+00  1.
       39    2    1    2    0    0  0.00000000000E+00  3.55271367880E-15  1.67141386813E+02  2.08713263609E+02  1.24999932883E+02 0.00000000000E+00  1.
       23    2    3    3    0    0 -1.17092751226E+01 -1.89274920048E+01  1.02676518536E+02  1.40514463625E+02  9.33085738371E+01 0.00000000000E+00  1.
       22    1    3    3    0    0  1.17092751226E+01  1.89274920048E+01  6.44648682761E+01  6.81987999846E+01  0.00000000000E+00 0.00000000000E+00  1.
       16    1    4    4    0    0  2.60341570744E+01 -3.14231392793E+01  1.36763125441E+01  4.30375712784E+01  1.39020726558E-06 0.00000000000E+00  1.
      -16    1    4    4    0    0 -3.77434321970E+01  1.24956472745E+01  8.90002059924E+01  9.74768923464E+01  1.65181236989E-06 0.00000000000E+00  1.
</event>
<event>
 7   2   1.0000000E+00   6.2498575E+01   7.8125000E-03   1.3828992E-01
       21   -1    0    0  501  502  0.00000000000E+00  0.00000000000E+00  7.61814911457E+02  7.61814911457E+02  0.00000000000E+00 0.00000000000E+00  1.
       21   -1    0    0  502  501  0.00000000000E+00  0.00000000000E+00 -5.12732404400E+00  5.12732404400E+00  0.00000000000E+00 0.00000000000E+00  1.
       39    2    1    2    0    0 -1.77635683940E-15  3.55271367880E-15  7.56687587413E+02  7.66942235501E+02  1.24997150569E+02 0.00000000000E+00  1.
       23    2    3    3    0    0 -1.56092893854E+01  2.25397412151E+01  4.67174412802E+02  4.76133762236E+02  8.77481493554E+01 0.00000000000E+00  1.
       22    1    3    3    0    0  1.56092893854E+01 -2.25397412151E+01  2.89513174611E+02  2.90808473265E+02  0.00000000000E+00 0.00000000000E+00  1.
        4    1    4    4  803    0 -1.59696437583E+01 -1.01590850398E+01  4.08577855076E+02  4.09018001821E+02  1.27500000005E+00 0.00000000000E+00  1.
       -4    1    4    4    0  803  3.60354372838E-01  3.26988262549E+01  5.85965577260E+01  6.71157604148E+01  1.27500000001E+00 0.00000000000E+00  1.
</event>
<event>
 7   2   1.0000000E+00   6.2501431E+01   7.8125000E-03   1.3828885E-01
       21   -1    0    0  501  502  0.00000000000E+00  0.00000000000E+00  8.27889250198E+01  8.27889250198E+01  0.00000000000E+00 0.00000000000E+00  1.
       21   -1    0    0  502  501  0.00000000000E+00  0.00000000000E+00 -4.71854041640E+01  4.71854041640E+01  0.00000000000E+00 0.00000000000E+00  1.
       39    2    1    2    0    0  0.00000000000E+00  3.55271367880E-15  3.56035208557E+01  1.29974329184E+02  1.25002862165E+02 0.00000000000E+00  1.
       23    2    3    3    0    0  2.52007493862E+01 -8.88421921822E+00  4.02683692525E+01  1.02849286671E+02  9.07878135313E+01 0.00000000000E+00  1.
       22    1    3    3    0    0 -2.52007493862E+01  8.88421921822E+00 -4.66484839677E+00  2.71250425125E+01  0.00000000000E+00 0.00000000000E+00  1.
        1    1    4    4  803    0  2.62191563551E+01 -4.82276152518E+01  1.88380653482E+01  5.80363656591E+01  1.71926082395E-06 0.00000000000E+00  1.
       -1    1    4    4    0  803 -1.01840696891E+00  3.93433960336E+01  2.14303039043E+01  4.48129210122E+01  1.11828226085E-06 0.00000000000E+00  1.
</event>
<event>
 7   2   1.0000000E+00   6.2497925E+01   7.8125000E-03   1.3829016E-01
       21   -1    0    0  501  502  0.00000000000E+00  0.00000000000E+00  9.52455261804E+02  9.52455261804E+02  0.00000000000E+00 0.00000000000E+00  1.
       21   -1    0    0  502  501  0.00000000000E+00  0.00000000000E+00 -4.10097015211E+00  4.10097015211E+00  0.00000000000E+00 0.00000000000E+00  1.
       39    2    1    2    0    0 -3.55271367880E-15  0.00000000000E+00  9.48354291652E+02  9.56556231957E+02  1.24995849529E+02 0.00000000000E+00  1.
       23    2    3    3    0    0  1.96397542129E+01 -2.03753397580E+01  6.59094042795E+02  6.65914930720E+02  9.07571666119E+01 0.00000000000E+00  1.
       22    1    3    3    0    0 -1.96397542129E+01  2.03753397580E+01  2.89260248857E+02  2.90641301237E+02  0.00000000000E+00 0.00000000000E+00  1.
       16    1    4    4    0    0 -1.18987032628E+01 -6.29652627717E-01  9.45452257678E+00  1.52106409767E+01  1.12833969793E-05 0.00000000000E+00  1.
      -16    1    4    4    0    0  3.15384574758E+01 -1.97456871302E+01  6.49639520219E+02  6.50704289843E+02  1.07895932188E-05 0.00000000000E+00  1.
</event>
<event>
 7   2   1.0000000E+00   6.2501052E+01   7.8125000E-03   1.3828899E-01
       21   -1    0    0  501  502  0.00000000000E+00  0.00000000000E+00  7.44536905673E+01  7.44536905673E+01  0.00000000000E+00 0.00000000000E+00  1.
       21   -1    0    0  502  501  0.00000000000E+00  0.00000000000E+00 -5.24672646928E+01  5.24672646928E+01  0.00000000000E+00 0.00000000000E+00  1.
       39    2    1    2    0    0  0.00000000000E+00  0.00000000000E+00  2.19864258745E+01  1.26920955260E+02  1.25002103828E+02 0.00000000000E+00  1.
       23    2    3    3    0    0 -1.71830697797E+01  1.81683586128E+01  3.08199480326E+00  9.55725158115E+01  9.21914309729E+01 0.00000000000E+00  1.
       22    1    3    3    0    0  1.71830697797E+01 -1.81683586128E+01  1.89044310712E+01  3.13484394486E+01  0.00000000000E+00 0.00000000000E+00  1.
       12    1    4    4    0    0  1.29487012799E+01  6.33053311643E+00  4.23177646479E+01  4.47050077639E+01  1.71926082395E-06 0.00000000000E+00  1.
      -12    1    4    4    0    0 -3.01317710596E+01  1.18378254964E+01 -3.92357698446E+01  5.08675080476E+01  1.34869915235E-06 0.00000000000E+00  1.
</event>
<event>
 7   2   1.0000000E+00   6.2501386E+01   7.8125000E-03   1.3828887E-01
       21   -1    0    0  501  502  0.00000000000E+00  0.00000000000E+00  3.20161992292E+02  3.20161992292E+02  0.00000000000E+00 0.00000000000E+00  1.
       21   -1    0    0  502  501  0.00000000000E+00  0.00000000000E+00 -1.22013961426E+01  1.22013961426E+01  0.00000000000E+00 0.00000000000E+00  1.
       39    2    1    2    0    0  1.77635683940E-15 -2.66453525910E-15  3.07960596149E+02  3.32363388434E+02  1.25002772734E+02 0.00000000000E+00  1.
       23    2    3    3    0    0 -1.48711895121E+01  6.54924911172E+00  1.67458054654E+02  1.90924323434E+02  9.02543753456E+01 0.00000000000E+00  1.
       22    1    3    3    0    0  1.48711895121E+01 -6.54924911172E+00  1.40502541495E+02  1.41439065000E+02  0.00000000000E+00 0.00000000000E+00  1.
       14    1    4    4    0    0 -1.75984426559E+01  4.10584288795E+01  1.39343961516E+02  1.46329215733E+02  0.00000000000E+00 0.00000000000E+00  1.
      -14    1    4    4    0    0  2.72725314381E+00 -3.45091797678E+01  2.81140931374E+01  4.45951078013E+01  2.15897205785E-06 0.00000000000E+00  1.
</event>
<event>
 7   2   1.0000000E+00   6.2503124E+01   7.8125000E-03   1.3828822E-01
       21   -1    0    0  501  502  0.00000000000E+00  0.00000000000E+00  7.57109109323E+02  7.57109109323E+02  0.00000000000E+00 0.00000000000E+00  1.
       21   -1    0    0  502  501  0.00000000000E+00  0.00000000000E+00 -5.15994391370E+00  5.15994391370E+00  0.00000000000E+00 0.00000000000E+00  1.
       39    2    1    2    0    0  0.00000000000E+00  0.00000000000E+00  7.51949165409E+02  7.62269053237E+02  1.25006248494E+02 0.00000000000E+00  1.
       23    2    3    3    0    0  1.62958601671E+01  1.69921224512E+01  6.86484938011E+02  6.92700005860E+02  8.95401626039E+01 0.00000000000E+00  1.
       22    1    3    3    0    0 -1.62958601671E+01 -1.69921224512E+01  6.54642273986E+01  6.95690473766E+01  0.00000000000E+00 0.00000000000E+00  1.
       12    1    4    4    0    0 -1.81372185929E+01 -2.18155956674E+01  1.00642139625E+02  1.04564425982E+02  6.18051595536E-06 0.00000000000E+00  1.
      -12    1    4    4    0    0  3.44330787600E+01  3.88077181186E+01  5.85842798385E+02  5.88135579878E+02  7.62939453125E-06 0.00000000000E+00  1.
</event>
<event>
 7   2   1.0000000E+00   6.2500070E+01   7.8125000E-03   1.3828936E-01
       21   -1    0    0  501  502  0.00000000000E+00  0.00000000000E+00  1.42527240968E+03  1.42527240968E+03  0.00000000000E+00 0.00000000000E+00  1.
       21   -1    0    0  502  501  0.00000000000E+00  0.00000000000E+00 -2.74071027303E+00  2.74071027303E+00  0.00000000000E+00 0.00000000000E+00  1.
       39    2    1    2    0    0  0.00000000000E+00  7.10542735760E-15  1.42253169940E+03  1.42801311995E+03  1.25000139761E+02 0.00000000000E+00  1.
       23    2    3    3    0    0 -1.06984301024E+01 -1.85036279206E+01  8.67410516504E+02  8.72480611129E+02  9.14580340986E+01 0.00000000000E+00  1.
       22    1    3    3    0    0  1.06984301024E+01  1.85036279206E+01  5.55121182898E+02  5.55532508819E+02  1.07895932188E-05 0.00000000000E+00  1.
       14    1    4    4    0    0  7.95420156003E+00 -2.72071598951E+01  8.23473176330E+02  8.23960903909E+02  1.07895932188E-05 0.00000000000E+00  1.
      -14    1    4    4    0    0 -1.86526316625E+01  8.70353197450E+00  4.39373401745E+01  4.85197073195E+01  1.13041587745E-05 0.00000000000E+00  1.
</event>
<event>
 7   2   1.0000000E+00   6.2499804E+01   7.8125000E-03   1.3828946E-01
       21   -1    0    0  501  502  0.00000000000E+00  0.00000000000E+00  1.40015915013E+02  1.40015915013E+02  0.00000000000E+00 0.00000000000E+00  1.
       21   -1    0    0  502  501  0.00000000000E+00  0.00000000000E+00 -2.78984388383E+01  2.78984388383E+01  0.00000000000E+00 0.00000000000E+00  1.
       39    2    1    2    0    0  3.55271367880E-15  0.00000000000E+00  1.12117476175E+02  1.67914353851E+02  1.24999607061E+02 0.00000000000E+00  1.
       23    2    3    3    0    0  1.49037259972E+01  1.07065104142E+01  5.44836070589E+01  1.07429535235E+02  9.07518109390E+01 0.00000000000E+00  1.
       22    1    3    3    0    0 -1.49037259972E+01 -1.07065104142E+01  5.76338691156E+01  6.04848186166E+01  0.00000000000E+00 0.00000000000E+00  1.
        4    1    4    4  803    0 -2.04100600077E+00  2.85320313081E+01  7.18165935676E+01  7.73142370635E+01  1.27500000000E+00 0.00000000000E+00  1.
       -4    1    4    4    0  803  1.69447319980E+01 -1.78255208939E+01 -1.73329865087E+01  3.01152981710E+01  1.27500000000E+00 0.00000000000E+00  1.
</event>
<event>
 7   2   1.0000000E+00   6.2497646E+01   7.8125000E-03   1.3829027E-01
       21   -1    0    0  501  502  0.00000000000E+00  0.00000000000E+00  1.18536275586E+01  1.18536275586E+01  0.00000000000E+00 0.00000000000E+00  1.
       21   -1    0    0  502  501  0.00000000000E+00  0.00000000000E+00 -3.29515646423E+02  3.29515646423E+02  0.00000000000E+00 0.00000000000E+00  1.
       39    2    1    2    0    0  1.77635683940E-15  0.00000000000E+00 -3.17662018865E+02  3.41369273982E+02  1.24995291871E+02 0.00000000000E+00  1.
       23    2    3    3    0    0 -9.09129770651E+00 -9.51702871841E+00 -3.14451990797E+02  3.27821956542E+02  9.17276138644E+01 0.00000000000E+00  1.
       22    1    3    3    0    0  9.09129770651E+00  9.51702871841E+00 -3.21002806733E+00  1.35473174396E+01  0.00000000000E+00 0.00000000000E+00  1.
        3    1    4    4  803    0  1.29213192326E+01  2.25800944271E+01 -2.60868147231E+01  3.68421370826E+01  4.63538696652E-06 0.00000000000E+00  1.
       -3    1    4    4    0  803 -2.20126169391E+01 -3.20971231455E+01 -2.88365176074E+02  2.90979819560E+02  0.00000000000E+00 0.00000000000E+00  1.
</event>
<event>
 7   2   1.0000000E+00   6.2501696E+01   7.8125000E-03   1.3828875E-01
       21   -1    0    0  501  502  0.00000000000E+00  0.00000000000E+00  3.20737276057E+01  3.20737276057E+01  0.00000000000E+00 0.00000000000E+00  1.
       21   -1    0    0  502  501  0.00000000000E+00  0.00000000000E+00 -1.21796319760E+02  1.21796319760E+02  0.00000000000E+00 0.00000000000E+00  1.
       39    2    1    2    0    0  1.55431223448E-15 -3.55271367880E-15 -8.97225921539E+01  1.53870047365E+02  1.25003391688E+02 0.00000000000E+00  1.
       23    2    3    3    0    0  1.39332331217E+00  3.10419547608E+01 -7.59905620457E+01  1.19897809345E+02  8.73806320673E+01 0.00000000000E+00  1.
       22    1    3    3    0    0 -1.39332331217E+00 -3.10419547608E+01 -1.37320301082E+01  3.39722380204E+01  0.00000000000E+00 0.00000000000E+00  1.
        3    1    4    4  803    0  2.89314732985E+01  3.59858855768E+01 -7.92602734038E+01  9.17289761545E+01  1.34869915235E-06 0.00000000000E+00  1.
       -3    1    4    4    0  803 -2.75381499863E+01 -4.94393081604E+00  3.26971135808E+00  2.81688333905E+01  0.00000000000E+00 0.00000000000E+00  1.
</event>
<event>
 7   2   1.0000000E+00   6.2500176E+01   7.8125000E-03   1.3828932E-01
       21   -1    0    0  501  502  0.00000000000E+00  0.00000000000E+00  1.48047220604E+02  1.48047220604E+02  0.00000000000E+00 0.00000000000E+00  1.
       21   -1    0    0  502  501  0.00000000000E+00  0.00000000000E+00 -2.63853116987E+01  2.63853116987E+01  0.00000000000E+00 0.00000000000E+00  1.
       39    2    1    2    0    0  2.44249065418E-15  0.00000000000E+00  1.21661908905E+02  1.74432532302E+02  1.25000352988E+02 0.00000000000E+00  1.
       23    2    3    3    0    0 -6.71243935982E-01  2.17104380225E+01  1.24857224730E+02  1.52477948936E+02  8.47844599964E+01 0.00000000000E+00  1.
       22    1    3    3    0    0  6.71243935982E-01 -2.17104380225E+01 -3.19531582558E+00  2.19545833660E+01  0.00000000000E+00 0.00000000000E+00  1.
        5    1    4    4  803    0  2.24933173510E+01  8.14375163835E+00  1.22733598252E+02  1.25133403438E+02  4.75000000000E+00 0.00000000000E+00  1.
       -5    1    4    4    0  803 -2.31645612870E+01  1.35666863842E+01  2.12362647843E+00  2.73445454978E+01  4.75000000000E+00 0.00000000000E+00  1.
</event>
<event>
 7   2   1.0000000E+00   6.2501133E+01   7.8125000E-03   1.3828896E-01
       21   -1    0    0  501  502  0.00000000000E+00  0.00000000000E+00  5.70094405758E+01  5.70094405758E+01  0.00000000000E+00 0.00000000000E+00  1.
       21   -1    0    0  502  501  0.00000000000E+00  0.00000000000E+00 -6.85218379795E+01  6.85218379795E+01  0.00000000000E+00 0.00000000000E+00  1.
       39    2    1    2    0    0 -8.88178419700E-15  0.00000000000E+00 -1.15123974037E+01  1.25531278555E+02  1.25002266387E+02 0.00000000000E+00  1.
       23    2    3    3    0    0  5.85936530270E+00  3.94558350235E+00  1.95448637620E+01  9.36807956385E+01  9.13465378712E+01 0.00000000000E+00  1.
       22    1    3    3    0    0 -5.85936530270E+00 -3.94558350235E+00 -3.10572611657E+01  3.18504829169E+01  0.00000000000E+00 0.00000000000E+00  1.
        3    1    4    4  803    0 -2.07305648379E+01  2.25512077699E+01 -2.43225429616E+01  3.91139282928E+01  1.84678237257E-06 0.00000000000E+00  1.
       -3    1    4    4    0  803  2.65899301406E+01 -1.86056242675E+01  4.38674067236E+01  5.45668673456E+01  1.90734863281E-06 0.00000000000E+00  1.
</event>
<event>
 7   2   1.0000000E+00   6.2501449E+01   7.8125000E-03   1.3828884E-01
       21   -1    0    0  501  502  0.00000000000E+00  0.00000000000E+00  2.19959359684E+02  2.19959359684E+02  0.00000000000E+00 0.00000000000E+00  1.
       21   -1    0    0  502  501  0.00000000000E+00  0.00000000000E+00 -1.77597860657E+01  1.77597860657E+01  0.00000000000E+00 0.00000000000E+00  1.
       39    2    1    2    0    0  4.44089209850E-16  0.00000000000E+00  2.02199573618E+02  2.37719145750E+02  1.25002898705E+02 0.00000000000E+00  1.
       23    2    3    3    0    0  3.27638765581E+00 -4.01986143366E+00  2.10448719758E+02  2.27975305949E+02  8.75053282556E+01 0.00000000000E+00  1.
       22    1    3    3    0    0 -3.27638765581E+00  4.01986143366E+00 -8.24914613957E+00  9.74383980004E+00  0.00000000000E+00 0.00000000000E+00  1.
        1    1    4    4  803    0  7.41109374279E+00 -8.12403394916E+00 -5.25867541000E+00  1.21892537744E+01  3.72517108726E-06 0.00000000000E+00  1.
       -1    1    4    4    0  803 -4.13470608698E+00  4.10417251551E+00  2.15707395168E+02  2.15786052375E+02  2.69739830470E-06 0.00000000000E+00  1.
</event>
<event>
 7   2   1.0000000E+00   6.2499839E+01   7.8125000E-03   1.3828945E-01
       21   -1    0    0  501  502  0.00000000000E+00  0.00000000000E+00  8.12959553318E+01  8.12959553318E+01  0.00000000000E+00 0.00000000000E+00  1.
       21   -1    0    0  502  501  0.00000000000E+00  0.00000000000E+00 -4.80494988942E+01  4.80494988942E+01  0.00000000000E+00 0.00000000000E+00  1.
       39    2    1    2    0    0  0.00000000000E+00 -3.55271367880E-15  3.32464564375E+01  1.29345454226E+02  1.24999678653E+02 0.00000000000E+00  1.
       23    2    3    3    0    0 -9.28518107991E+00 -2.12484672725E+01  5.90075949652E+00  9.34915968281E+01  9.03778057142E+01 0.00000000000E+00  1.
       22    1    3    3    0    0  9.28518107991E+00  2.12484672725E+01  2.73456969410E+01  3.58538573979E+01  0.00000000000E+00 0.00000000000E+00  1.
        4    1    4    4  803    0  3.74157007561E+01  5.95854332515E+00 -5.30896400205E+00  3.82785791978E+01  1.27500000000E+00 0.00000000000E+00  1.
       -4    1    4    4    0  803 -4.67008818360E+01 -2.72070105977E+01  1.12097234986E+01  5.52130176303E+01  1.27500000000E+00 0.00000000000E+00  1.
</event>
<event>
 7   2   1.0000000E+00   6.2500784E+01   7.8125000E-03   1.3828909E-01
       21   -1    0    0  501  502  0.00000000000E+00  0.00000000000E+00  5.02901645797E+02  5.02901645797E+02  0.00000000000E+00 0.00000000000E+00  1.
       21   -1    0    0  502  501  0.00000000000E+00  0.00000000000E+00 -7.76761831603E+00  7.76761831603E+00  0.00000000000E+00 0.00000000000E+00  1.
       39    2    1    2    0    0  0.00000000000E+00  1.77635683940E-15  4.95134027481E+02  5.10669264113E+02  1.25001568551E+02 0.00000000000E+00  1.
       23    2    3    3    0    0 -1.82930900916E+01  1.04151236380E+01  2.97346082919E+02  3.11764304498E+02  9.13190921233E+01 0.00000000000E+00  1.
       22    1    3    3    0    0  1.82930900916E+01 -1.04151236380E+01  1.97787944562E+02  1.98904959615E+02  0.00000000000E+00 0.00000000000E+00  1.
        5    1    4    4  803    0 -1.34428977185E+01  4.53731469449E+01  2.36741402406E+02  2.41471505722E+02  4.75000000000E+00 0.00000000000E+00  1.
       -5    1    4    4    0  803 -4.85019237310E+00 -3.49580233069E+01  6.06046805133E+01  7.02927987756E+01  4.75000000000E+00 0.00000000000E+00  1.
</event>
<event>
 7   2   1.0000000E+00   6.2501723E+01   7.8125000E-03   1.3828874E-01
       21   -1    0    0  501  502  0.00000000000E+00  0.00000000000E+00  5.31560371243E+01  5.31560371243E+01  0.00000000000E+00 0.00000000000E+00  1.
       21   -1    0    0  502  501  0.00000000000E+00  0.00000000000E+00 -7.34905315809E+01  7.34905315809E+01  0.00000000000E+00 0.00000000000E+00  1.
       39    2    1    2    0    0  1.77635683940E-15 -3.55271367880E-15 -2.03344944565E+01  1.26646568705E+02  1.25003446752E+02 0.00000000000E+00  1.
       23    2    3    3    0    0 -1.12862460001E+01  2.24666778631E+01 -3.99998167378E+00  9.66641193251E+01  9.32513868450E+01 0.00000000000E+00  1.
       22    1    3    3    0    0  1.12862460001E+01 -2.24666778631E+01 -1.63345127828E+01  2.99824493801E+01  0.00000000000E+00 0.00000000000E+00  1.
        5    1    4    4  803    0 -1.66985641346E+01  1.82742423452E+01 -4.67485562730E+01  5.31110157224E+01  4.75000000000E+00 0.00000000000E+00  1.
       -5    1    4    4    0  803  5.41231813444E+00  4.19243551795E+00  4.27485745993E+01  4.35531036027E+01  4.75000000000E+00 0.00000000000E+00  1.
</event>
<event>
 7   2   1.0000000E+00   6.2499301E+01   7.8125000E-03   1.3828965E-01
       21   -1    0    0  501  502  0.00000000000E+00  0.00000000000E+00  2.53148660281E+02  2.53148660281E+02  0.00000000000E+00 0.00000000000E+00  1.
       21   -1    0    0  502  501  0.00000000000E+00  0.00000000000E+00 -1.54303113024E+01  1.54303113024E+01  0.00000000000E+00 0.00000000000E+00  1.
       39    2    1    2    0    0  0.00000000000E+00 -3.55271367880E-15  2.37718348979E+02  2.68578971584E+02  1.24998602135E+02 0.00000000000E+00  1.
       23    2    3    3    0    0  1.85835562655E+01  1.69763636004E+01  1.13584554774E+02  1.41919016001E+02  8.12773679130E+01 0.00000000000E+00  1.
       22    1    3    3    0    0 -1.85835562655E+01 -1.69763636004E+01  1.24133794205E+02  1.26659955583E+02  0.00000000000E+00 0.00000000000E+00  1.
        2    1    4    4  803    0  3.45503623920E+01 -8.45721520710E+00  1.45492799153E+01  3.84308935172E+01  1.57247852782E-06 0.00000000000E+00  1.
       -2    1    4    4    0  803 -1.59668061264E+01  2.54335788075E+01  9.90352748590E+01  1.03488122484E+02  0.00000000000E+00 0.00000000000E+00  1.
</event>
<event>
 7   2   1.0000000E+00   6.2499584E+01   7.8125000E-03   1.3828954E-01
       21   -1    0    0  501  502  0.00000000000E+00  0.00000000000E+00  1.35605946018E+02  1.35605946018E+02  0.00000000000E+00 0.00000000000E+00  1.
       21   -1    0    0  502  501  0.00000000000E+00  0.00000000000E+00 -2.88055065760E+01  2.88055065760E+01  0.00000000000E+00 0.00000000000E+00  1.
       39    2    1    2    0    0 -1.33226762955E-15  1.33226762955E-15  1.06800439442E+02  1.64411452594E+02  1.24999167514E+02 0.00000000000E+00  1.
       23    2    3    3    0    0  2.39094992333E+00 -1.98865342167E+00  4.75323024305E+01  1.05061781586E+02  9.36428683438E+01 0.00000000000E+00  1.
       22    1    3    3    0    0 -2.39094992333E+00  1.98865342167E+00  5.92681370120E+01  5.93496710087E+01  0.00000000000E+00 0.00000000000E+00  1.
        5    1    4    4  803    0 -1.11455986324E+01  7.35045071929E+00  7.30072699182E+01  7.43698692722E+01  4.75000000000E+00 0.00000000000E+00  1.
       -5    1    4    4    0  803  1.35365485557E+01 -9.33910414096E+00 -2.54749674878E+01  3.06919123135E+01  4.75000000000E+00 0.00000000000E+00  1.
</event>
<event>
 7   2   1.0000000E+00   6.2500070E+01   7.8125000E-03   1.3828936E-01
       21   -1    0    0  501  502  0.00000000000E+00  0.00000000000E+00  3.91735824732E+01  3.91735824732E+01  0.00000000000E+00 0.00000000000E+00  1.
       21   -1    0    0  502  501  0.00000000000E+00  0.00000000000E+00 -9.97166597034E+01  9.97166597034E+01  0.00000000000E+00 0.00000000000E+00  1.
       39    2    1    2    0    0  7.10542735760E-15  0.00000000000E+00 -6.05430772302E+01  1.38890242177E+02  1.25000140685E+02 0.00000000000E+00  1.
       23    2    3    3    0    0  1.04567421045E+01  1.01093221598E+01 -2.23415686654E+01  9.80136338707E+01  9.43185288484E+01 0.00000000000E+00  1.
       22    1    3    3    0    0 -1.04567421045E+01 -1.01093221598E+01 -3.82015085648E+01  4.08766083059E+01  0.00000000000E+00 0.00000000000E+00  1.
        5    1    4    4  803    0  4.06619250039E+01  3.14339620136E+00  1.97193791914E+01  4.55487595922E+01  4.75000000000E+00 0.00000000000E+00  1.
       -5    1    4    4    0  803 -3.02051828994E+01  6.96592595841E+00 -4.20609478568E+01  5.24648742784E+01  4.75000000000E+00 0.00000000000E+00  1.
</event>
<event>
 7   2   1.0000000E+00   6.2499913E+01   7.8125000E-03   1.3828942E-01
       21   -1    0    0  501  502  0.00000000000E+00  0.00000000000E+00  1.12804523043E+01  1.12804523043E+01  0.00000000000E+00 0.00000000000E+00  1.
       21   -1    0    0  502  501  0.00000000000E+00  0.00000000000E+00 -3.46283904000E+02  3.46283904000E+02  0.00000000000E+00 0.00000000000E+00  1.
       39    2    1    2    0    0 -7.10542735760E-15  3.55271367880E-15 -3.35003451696E+02  3.57564356304E+02  1.24999825005E+02 0.00000000000E+00  1.
       23    2    3    3    0    0 -1.39393592621E+01 -2.38471705419E+01 -2.55423439530E+02  2.73326766027E+02  9.32919840383E+01 0.00000000000E+00  1.
       22    1    3    3    0    0  1.39393592621E+01  2.38471705419E+01 -7.95800121653E+01  8.42375902773E+01  0.00000000000E+00 0.00000000000E+00  1.
        3    1    4    4  803    0 -2.81155818997E+01 -1.46357031112E+01 -2.03958555441E+01  3.76919179935E+01  0.00000000000E+00 0.00000000000E+00  1.
       -3    1    4    4    0  803  1.41762226376E+01 -9.21146743070E+00 -2.35027583986E+02  2.35634848233E+02  5.39479660939E-06 0.00000000000E+00  1.
</event>
<event>
 7   2   1.0000000E+00   6.2504886E+01   7.8125000E-03   1.3828756E-01
       21   -1    0    0  501  502  0.00000000000E+00  0.00000000000E+00  1.80271858265E+02  1.80271858265E+02  0.00000000000E+00 0.00000000000E+00  1.
       21   -1    0    0  502  501  0.00000000000E+00  0.00000000000E+00 -2.16720505472E+01  2.16720505472E+01  0.00000000000E+00 0.00000000000E+00  1.
       39    2    1    2    0    0  1.77635683940E-15  3.86669862795E-15  1.58599807717E+02  2.01943908812E+02  1.25009772811E+02 0.00000000000E+00  1.
       23    2    3    3    0    0  9.54969707435E+00 -1.53603562239E-02  3.35436597466E+01  7.65236668432E+01  6.81138570908E+01 0.00000000000E+00  1.
       22    1    3    3    0    0 -9.54969707435E+00  1.53603562239E-02  1.25056147971E+02  1.25420241969E+02  0.00000000000E+00 0.00000000000E+00  1.
        1    1    4    4  803    0 -1.12883208991E+01  2.90730795493E+01  6.97990353532E+00  3.19591801610E+01  1.44533582365E-06 0.00000000000E+00  1.
       -1    1    4    4    0  803  2.08380179735E+01 -2.90884399055E+01  2.65637562113E+01  4.45644866822E+01  1.43051147461E-06 0.00000000000E+00  1.
</event>
<event>
 7   2   1.0000000E+00   6.2501901E+01   7.8125000E-03   1.3828868E-01
       21   -1    0    0  501  502  0.00000000000E+00  0.00000000000E+00  4.86823329720E+02  4.86823329720E+02  0.00000000000E+00 0.00000000000E+00  1.
       21   -1    0    0  502  501  0.00000000000E+00  0.00000000000E+00 -8.02444623331E+00  8.02444623331E+00  0.00000000000E+00 0.00000000000E+00  1.
       39    2    1    2    0    0  0.00000000000E+00  2.66453525910E-15  4.78798883486E+02  4.94847775953E+02  1.25003802093E+02 0.00000000000E+00  1.
       23    2    3    3    0    0  1.74903819531E+01  7.49145742083E+00  4.55309951523E+02  4.64619224549E+02  9.05639910246E+01 0.00000000000E+00  1.
       22    1    3    3    0    0 -1.74903819531E+01 -7.49145742083E+00  2.34889319637E+01  3.02285514035E+01  0.00000000000E+00 0.00000000000E+00  1.
        2    1    4    4  803    0 -3.06038757459E+01  2.33409651786E+01  2.60842812117E+02  2.63667158653E+02  3.81469726562E-06 0.00000000000E+00  1.
       -2    1    4    4    0  803  4.80942576990E+01 -1.58495077578E+01  1.94467139405E+02  2.00952065996E+02  4.67203091199E-06 0.00000000000E+00  1.
</event>
<event>
 7   2   1.0000000E+00   6.2493406E+01   7.8125000E-03   1.3829185E-01
       21   -1    0    0  501  502  0.00000000000E+00  0.00000000000E+00  7.08063681071E+01  7.08063681071E+01  0.00000000000E+00 0.00000000000E+00  1.
       21   -1    0    0  502  501  0.00000000000E+00  0.00000000000E+00 -5.51564209388E+01  5.51564209388E+01  0.00000000000E+00 0.00000000000E+00  1.
       39    2    1    2    0    0  7.10542735760E-15 -1.77635683940E-15  1.56499471684E+01  1.25962789046E+02  1.24986812816E+02 0.00000000000E+00  1.
       23    2    3    3    0    0  1.73325240685E+01  8.41980666294E+00 -1.20499436564E+01  9.22197381090E+01  8.93754408098E+01 0.00000000000E+00  1.
       22    1    3    3    0    0 -1.73325240685E+01 -8.41980666294E+00  2.76998908248E+01  3.37430509369E+01  0.00000000000E+00 0.00000000000E+00  1.
        3    1    4    4  803    0  2.53673660726E+01 -2.05749462842E+01 -3.96637159835E+01  5.13813394305E+01  1.26159253648E-06 0.00000000000E+00  1.
       -3    1    4    4    0  803 -8.03484200413E+00  2.89947529471E+01  2.76137723270E+01  4.08383986785E+01  1.46971082758E-06 0.00000000000E+00  1.
</event>
<event>
 7   2   1.0000000E+00   6.2502106E+01   7.8125000E-03   1.3828860E-01
       21   -1    0    0  501  502  0.00000000000E+00  0.00000000000E+00  1.60778935456E+02  1.60778935456E+02  0.00000000000E+00 0.00000000000E+00  1.
       21   -1    0    0  502  501  0.00000000000E+00  0.00000000000E+00 -2.42974194223E+01  2.42974194223E+01  0.00000000000E+00 0.00000000000E+00  1.
       39    2    1    2    0    0 -8.88178419700E-16 -1.77635683940E-15  1.36481516034E+02  1.85076354879E+02  1.25004211594E+02 0.00000000000E+00  1.
       23    2    3    3    0    0  4.22998783850E+00 -4.44674525548E+00  6.69325763549E+01  1.15257150135E+02  9.36299873938E+01 0.00000000000E+00  1.
       22    1    3    3    0    0 -4.22998783850E+00  4.44674525548E+00  6.95489396792E+01  6.98192047433E+01  0.00000000000E+00 0.00000000000E+00  1.
       16    1    4    4    0    0 -1.02161282532E+01 -2.65938470281E+01 -1.28164043590E+01  3.12387932415E+01  0.00000000000E+00 0.00000000000E+00  1.
      -16    1    4    4    0    0  1.44461160917E+01  2.21471017726E+01  7.97489807139E+01  8.40183570940E+01  1.34869915235E-06 0.00000000000E+00  1.
</event>
<event>
 7   2   1.0000000E+00   6.2498736E+01   7.8125000E-03   1.3828986E-01
       21   -1    0    0  501  502  0.00000000000E+00  0.00000000000E+00  1.05244808531E+01  1.05244808531E+01  0.00000000000E+00 0.00000000000E+00  1.
       21   -1    0    0  502  501  0.00000000000E+00  0.00000000000E+00 -3.71143434149E+02  3.71143434149E+02  0.00000000000E+00 0.00000000000E+00  1.
       39    2    1    2    0    0  0.00000000000E+00  0.00000000000E+00 -3.60618953296E+02  3.81667915002E+02  1.24997471437E+02 0.00000000000E+00  1.
       23    2    3    3    0    0  8.07119774849E+00  1.86672743349E+01 -1.91459044809E+02  2.11289847154E+02  8.70242627498E+01 0.00000000000E+00  1.
       22    1    3    3    0    0 -8.07119774849E+00 -1.86672743349E+01 -1.69159908488E+02  1.70378067848E+02  0.00000000000E+00 0.00000000000E+00  1.
        2    1    4    4  803    0 -8.05743412909E+00  1.55219885270E+00  7.39732128731E+00  1.10477114486E+01  1.13405570927E-06 0.00000000000E+00  1.
       -2    1    4    4    0  803  1.61286318776E+01  1.71150754822E+01 -1.98856366096E+02  2.00242135805E+02  2.69739830470E-06 0.00000000000E+00  1.
</event>
<event>
 7   2   1.0000000E+00   6.2498807E+01   7.8125000E-03   1.3828983E-01
       21   -1    0    0  501  502  0.00000000000E+00  0.00000000000E+00  1.62708449602E+01  1.62708449602E+01  0.00000000000E+00 0.00000000000E+00  1.
       21   -1    0    0  502  501  0.00000000000E+00  0.00000000000E+00 -2.40067489882E+02  2.40067489882E+02  0.00000000000E+00 0.00000000000E+00  1.
       39    2    1    2    0    0 -8.88178419700E-16  0.00000000000E+00 -2.23796644922E+02  2.56338334842E+02  1.24997614503E+02 0.00000000000E+00  1.
       23    2    3    3    0    0 -7.08875178101E+00 -2.16810360871E+01 -2.08246794420E+02  2.28731893959E+02  9.18217523254E+01 0.00000000000E+00  1.
       22    1    3    3    0    0  7.08875178101E+00  2.16810360871E+01 -1.55498505017E+01  2.76064408834E+01  0.00000000000E+00 0.00000000000E+00  1.
       15    1    4    4    0    0  1.46552762217E+00 -5.73249562684E+01 -1.38675808939E+02  1.50074765986E+02  1.77680000000E+00 0.00000000000E+00  1.
      -15    1    4    4    0    0 -8.55427940318E+00  3.56439201813E+01 -6.95709854805E+01  7.86571279731E+01  1.77680000000E+00 0.00000000000E+00  1.
</event>
<event>
 7   2   1.0000000E+00   6.2498032E+01   7.8125000E-03   1.3829012E-01
       21   -1    0    0  501  502  0.00000000000E+00  0.00000000000E+00  1.03084584645E+03  1.03084584645E+03  0.00000000000E+00 0.00000000000E+00  1.
       21   -1    0    0  502  501  0.00000000000E+00  0.00000000000E+00 -3.78912517816E+00  3.78912517816E+00  0.00000000000E+00 0.00000000000E+00  1.
       39    2    1    2    0    0  0.00000000000E+00 -1.99840144433E-15  1.02705672127E+03  1.03463497162E+03  1.24996063163E+02 0.00000000000E+00  1.
       23    2    3    3    0    0 -2.32873285239E+01 -3.22651044745E-01  6.53878955632E+02  6.60731175791E+02  9.20086641046E+01 0.00000000000E+00  1.
       22    1    3    3    0    0  2.32873285239E+01  3.22651044745E-01  3.73177765635E+02  3.73903795832E+02  0.00000000000E+00 0.00000000000E+00  1.
        3    1    4    4  803    0 -4.16303207225E+00 -3.61025661831E+01  1.21757990303E+02  1.27065866184E+02  1.90734863281E-06 0.00000000000E+00  1.
       -3    1    4    4    0  803 -1.91242964516E+01  3.57799151383E+01  5.32120965329E+02  5.33665309707E+02  0.00000000000E+00 0.00000000000E+00  1.
</event>
<event>
 7   2   1.0000000E+00   6.2500605E+01   7.8125000E-03   1.3828916E-01
       21   -1    0    0  501  502  0.00000000000E+00  0.00000000000E+00  9.00028296274E+01  9.00028296274E+01  0.00000000000E+00 0.00000000000E+00  1.
       21   -1    0    0  502  501  0.00000000000E+00  0.00000000000E+00 -4.34022538536E+01  4.34022538536E+01  0.00000000000E+00 0.00000000000E+00  1.
       39    2    1    2    0    0 -8.88178419700E-16  0.00000000000E+00  4.66005757737E+01  1.33405083481E+02  1.25001210539E+02 0.00000000000E+00  1.
       23    2    3    3    0    0 -5.07559008726E+00 -1.50450083505E+01  6.11325860667E+01  1.11880836359E+02  9.23472499550E+01 0.00000000000E+00  1.
       22    1    3    3    0    0  5.07559008726E+00  1.50450083505E+01 -1.45320102929E+01  2.15242471217E+01  0.00000000000E+00 0.00000000000E+00  1.
        1    1    4    4  803    0 -2.91630005493E+00  1.05784259971E+01 -2.21499026282E+01  2.47189419075E+01  1.03924249257E-06 0.00000000000E+00  1.
       -1    1    4    4    0  803 -2.15929003233E+00 -2.56234343477E+01  8.32824886949E+01  8.71618944518E+01  0.00000000000E+00 0.00000000000E+00  1.
</event>
<event>
 7   2   1.0000000E+00   6.2497300E+01   7.8125000E-03   1.3829039E-01
       21   -1    0    0  501  502  0.00000000000E+00  0.00000000000E+00  1.55805696550E+01  1.55805696550E+01  0.00000000000E+00 0.00000000000E+00  1.
       21   -1    0    0  502  501  0.00000000000E+00  0.00000000000E+00 -2.50691253442E+02  2.50691253442E+02  0.00000000000E+00 0.00000000000E+00  1.
       39    2    1    2    0    0 -1.77635683940E-15  0.00000000000E+00 -2.35110683787E+02  2.66271823097E+02  1.24994600462E+02 0.00000000000E+00  1.
       23    2    3    3    0    0  7.81921063449E+00  1.73727339029E+01 -2.27031614642E+02  2.45578266214E+02  9.16644906803E+01 0.00000000000E+00  1.
       22    1    3    3    0    0 -7.81921063449E+00 -1.73727339029E+01 -8.07906914503E+00  2.06935568827E+01  0.00000000000E+00 0.00000000000E+00  1.
        3    1    4    4  803    0 -2.39942688138E+01 -1.62658971325E+01 -2.49069430589E+01  3.82185839347E+01  1.81574180266E-06 0.00000000000E+00  1.
       -3    1    4    4    0  803  3.18134794483E+01  3.36386310354E+01 -2.02124671583E+02  2.07359682379E+02  2.69739830470E-06 0.00000000000E+00  1.
</event>
<event>
 7   2   1.0000000E+00   6.2498928E+01   7.8125000E-03   1.3828979E-01
       21   -1    0    0  501  502  0.00000000000E+00  0.00000000000E+00  5.86221031105E+02  5.86221031105E+02  0.00000000000E+00 0.00000000000E+00  1.
       21   -1    0    0  502  501  0.00000000000E+00  0.00000000000E+00 -6.66321373903E+00  6.66321373903E+00  0.00000000000E+00 0.00000000000E+00  1.
       39    2    1    2    0    0  0.00000000000E+00  1.77635683940E-15  5.79557817366E+02  5.92884244844E+02  1.24997856439E+02 0.00000000000E+00  1.
       23    2    3    3    0    0  8.49448476845E+00 -1.37338500452E+01  3.48419393676E+02  3.61182398036E+02  9.37863308412E+01 0.00000000000E+00  1.
       22    1    3    3    0    0 -8.49448476845E+00  1.37338500452E+01  2.31138423690E+02  2.31701846809E+02  0.00000000000E+00 0.00000000000E+00  1.
        4    1    4    4  803    0  1.22504754297E+01  3.79711922714E+01  2.00533100983E+02  2.04467688904E+02  1.27500000000E+00 0.00000000000E+00  1.
       -4    1    4    4    0  803 -3.75599066127E+00 -5.17050423166E+01  1.47886292693E+02  1.56714709132E+02  1.27500000000E+00 0.00000000000E+00  1.
</event>
<event>
 7   2   1.0000000E+00   6.2498670E+01   7.8125000E-03   1.3828988E-01
       21   -1    0    0  501  502  0.00000000000E+00  0.00000000000E+00  4.34182575692E+01  4.34182575692E+01  0.00000000000E+00 0.00000000000E+00  1.
       21   -1    0    0  502  501  0.00000000000E+00  0.00000000000E+00 -8.99640824842E+01  8.99640824842E+01  0.00000000000E+00 0.00000000000E+00  1.
       39    2    1    2    0    0  3.55271367880E-15  1.77635683940E-15 -4.65458249150E+01  1.33382340053E+02  1.24997339256E+02 0.00000000000E+00  1.
       23    2    3    3    0    0  2.47972730737E+01  1.09108791357E+01 -2.23049624581E+01  9.70289158948E+01  9.04607491349E+01 0.00000000000E+00  1.
       22    1    3    3    0    0 -2.47972730737E+01 -1.09108791357E+01 -2.42408624569E+01  3.63534241587E+01  0.00000000000E+00 0.00000000000E+00  1.
        1    1    4    4  803    0 -1.65027785275E+01  1.41189175792E+01 -4.48754004440E+01  4.98546597396E+01  1.50789149292E-06 0.00000000000E+00  1.
       -1    1    4    4    0  803  4.13000516012E+01 -3.20803844350E+00  2.25704379859E+01  4.71742561552E+01  1.56341517551E-06 0.00000000000E+00  1.
</event>
<event>
 7   2   1.0000000E+00   6.2500451E+01   7.8125000E-03   1.3828922E-01
       21   -1    0    0  501  502  0.00000000000E+00  0.00000000000E+00  2.85392006436E+02  2.85392006436E+02  0.00000000000E+00 0.00000000000E+00  1.
       21   -1    0    0  502  501  0.00000000000E+00  0.00000000000E+00 -1.36875113085E+01  1.36875113085E+01  0.00000000000E+00 0.00000000000E+00  1.
       39    2    1    2    0    0 -3.55271367880E-15 -3.55271367880E-15  2.71704495127E+02  2.99079517744E+02  1.25000901044E+02 0.00000000000E+00  1.
       23    2    3    3    0    0  2.81991520296E+01  2.44750757342E+01  2.13792924509E+02  2.30173991704E+02  7.66709226470E+01 0.00000000000E+00  1.
       22    1    3    3    0    0 -2.81991520296E+01 -2.44750757342E+01  5.79115706179E+01  6.89055260398E+01  0.00000000000E+00 0.00000000000E+00  1.
        1    1    4    4  803    0  3.39770504105E+01  5.21813580224E+00  2.05616042178E+02  2.08469723793E+02  4.67203091199E-06 0.00000000000E+00  1.
       -1    1    4    4    0  803 -5.77789838094E+00  1.92569399320E+01  8.17688233161E+00  2.17042681114E+01  3.75840253125E-06 0.00000000000E+00  1.
</event>
<event>
 7   2   1.0000000E+00   6.2498454E+01   7.8125000E-03   1.3828996E-01
       21   -1    0    0  501  502  0.00000000000E+00  0.00000000000E+00  1.49794367884E+01  1.49794367884E+01  0.00000000000E+00 0.00000000000E+00  1.
       21   -1    0    0  502  501  0.00000000000E+00  0.00000000000E+00 -2.60761259487E+02  2.60761259487E+02  0.00000000000E+00 0.00000000000E+00  1.
       39    2    1    2    0    0  3.55271367880E-15  4.44089209850E-16 -2.45781822699E+02  2.75740696276E+02  1.24996908816E+02 0.00000000000E+00  1.
       23    2    3    3    0    0 -1.84183735370E+01 -1.32820657942E+00 -1.42069142023E+02  1.70396874675E+02  9.22521174142E+01 0.00000000000E+00  1.
       22    1    3    3    0    0  1.84183735370E+01  1.32820657942E+00 -1.03712680676E+02  1.05343821601E+02  0.00000000000E+00 0.00000000000E+00  1.
       14    1    4    4    0    0 -1.21425529241E+01 -4.44589074839E+01 -4.70656959231E+01  6.58727240890E+01  1.16800772800E-06 0.00000000000E+00  1.
      -14    1    4    4    0    0 -6.27582061291E+00  4.31307009045E+01 -9.50034460999E+01  1.04524150586E+02  1.90734863281E-06 0.00000000000E+00  1.
</event>
<event>
 7   2   1.0000000E+00   6.2499606E+01   7.8125000E-03   1.3828953E-01
       21   -1    0    0  501  502  0.00000000000E+00  0.00000000000E+00  1.11836882214E+01  1.11836882214E+01  0.00000000000E+00 0.00000000000E+00  1.
       21   -1    0    0  502  501  0.00000000000E+00  0.00000000000E+00 -3.49276613772E+02  3.49276613772E+02  0.00000000000E+00 0.00000000000E+00  1.
       39    2    1    2    0    0 -7.10542735760E-15 -3.10862446895E-15 -3.38092925551E+02  3.60460301993E+02  1.24999212021E+02 0.00000000000E+00  1.
       23    2    3    3    0    0 -2.32374036421E+01 -5.90960195158E-01 -2.01908472765E+02  2.22306288869E+02  9.00706863206E+01 0.00000000000E+00  1.
       22    1    3    3    0    0  2.32374036421E+01  5.90960195158E-01 -1.36184452786E+02  1.38154013125E+02  0.00000000000E+00 0.00000000000E+00  1.
        2    1    4    4  803    0  1.61767405549E+01 -3.63084164876E+01 -8.17512606172E+01  9.09024568168E+01  0.00000000000E+00 0.00000000000E+00  1.
       -2    1    4    4    0  803 -3.94141441970E+01  3.57174562924E+01 -1.20157212148E+02  1.31403832152E+02  1.90734863281E-06 0.00000000000E+00  1.
</event>
<event>
 7   2   1.0000000E+00   6.2499536E+01   7.8125000E-03   1.3828956E-01
       21   -1    0    0  501  502  0.00000000000E+00  0.00000000000E+00  6.49843068116E+01  6.49843068116E+01  0.00000000000E+00 0.00000000000E+00  1.
       21   -1    0    0  502  501  0.00000000000E+00  0.00000000000E+00 -6.01097739399E+01  6.01097739399E+01  0.00000000000E+00 0.00000000000E+00  1.
       39    2    1    2    0    0 -3.55271367880E-15  0.00000000000E+00  4.87453287167E+00  1.25094080751E+02  1.24999071870E+02 0.00000000000E+00  1.
       23    2    3    3    0    0  2.43656568399E+01 -8.89247907918E+00  1.67989170169E+01  9.65467103882E+01  9.14674928947E+01 0.00000000000E+00  1.
       22    1    3    3    0    0 -2.43656568399E+01  8.89247907918E+00 -1.19243841452E+01  2.85473703632E+01  0.00000000000E+00 0.00000000000E+00  1.
       12    1    4    4    0    0 -3.44315518012E+01 -1.12213474119E+01  7.28000529494E+00  3.69384472015E+01  1.08931463256E-06 0.00000000000E+00  1.
      -12    1    4    4    0    0  5.87972086411E+01  2.32886833274E+00  9.51891172192E+00  5.96082633868E+01  0.00000000000E+00 0.00000000000E+00  1.
</event>
<event>
 7   2   1.0000000E+00   6.2501686E+01   7.8125000E-03   1.3828876E-01
       21   -1    0    0  501  502  0.00000000000E+00  0.00000000000E+00  2.46000406041E+01  2.46000406041E+01  0.00000000000E+00 0.00000000000E+00  1.
       21   -1    0    0  502  501  0.00000000000E+00  0.00000000000E+00 -1.58798955952E+02  1.58798955952E+02  0.00000000000E+00 0.00000000000E+00  1.
       39    2    1    2    0    0 -2.22044604925E-16 -4.21884749358E-15 -1.34198915348E+02  1.83398996556E+02  1.25003372183E+02 0.00000000000E+00  1.
       23    2    3    3    0    0 -5.04123636864E-01 -1.62154015402E+00 -5.69240751530E+01  1.06105500968E+02  8.95273336501E+01 0.00000000000E+00  1.
       22    1    3    3    0    0  5.04123636864E-01  1.62154015402E+00 -7.72748401947E+01  7.72934955881E+01  0.00000000000E+00 0.00000000000E+00  1.
        5    1    4    4  803    0  2.31599710830E+01 -3.01491231230E+01 -5.70690397952E+01  6.87371201666E+01  4.75000000000E+00 0.00000000000E+00  1.
       -5    1    4    4    0  803 -2.36640947198E+01  2.85275829689E+01  1.44964642237E-01  3.73683808012E+01  4.75000000000E+00 0.00000000000E+00  1.
</event>
<event>
 7   2   1.0000000E+00   6.2488176E+01   7.8125000E-03   1.3829380E-01
       21   -1    0    0  501  502  0.00000000000E+00  0.00000000000E+00  3.35714560680E+02  3.35714560680E+02  0.00000000000E+00 0.00000000000E+00  1.
       21   -1    0    0  502  501  0.00000000000E+00  0.00000000000E+00 -1.16312264555E+01  1.16312264555E+01  0.00000000000E+00 0.00000000000E+00  1.
       39    2    1    2    0    0  0.00000000000E+00  3.55271367880E-15  3.24083334224E+02  3.47345787135E+02  1.24976351038E+02 0.00000000000E+00  1.
       23    2    3    3    0    0 -9.35217982748E+00  7.19340759448E+00  1.68026414480E+02  1.90843484978E+02  8.97170631226E+01 0.00000000000E+00  1.
       22    1    3    3    0    0  9.35217982748E+00 -7.19340759448E+00  1.56056919744E+02  1.56502302157E+02  0.00000000000E+00 0.00000000000E+00  1.
        3    1    4    4  803    0 -4.84707823550E+00  3.12589080908E+01  1.35055572289E+01  3.43949644354E+01  1.73571345551E-06 0.00000000000E+00  1.
       -3    1    4    4    0  803 -4.50510159198E+00 -2.40655004963E+01  1.54520857251E+02  1.56448520643E+02  1.90734863281E-06 0.00000000000E+00  1.
</event>
<event>
 7   2   1.0000000E+00   6.2478028E+01   7.8125000E-03   1.3829759E-01
       21   -1    0    0  501  502  0.00000000000E+00  0.00000000000E+00  2.83263450973E+02  2.83263450973E+02  0.00000000000E+00 0.00000000000E+00  1.
       21   -1    0    0  502  501  0.00000000000E+00  0.00000000000E+00 -1.37804717947E+01  1.37804717947E+01  0.00000000000E+00 0.00000000000E+00  1.
       39    2    1    2    0    0  1.77635683940E-15  5.32907051820E-15  2.69482979178E+02  2.97043922768E+02  1.24956056222E+02 0.00000000000E+00  1.
       23    2    3    3    0    0 -1.44171809079E+01  1.38631183334E+01  1.45779595911E+02  1.71734034143E+02  8.85485558546E+01 0.00000000000E+00  1.
       22    1    3    3    0    0  1.44171809079E+01 -1.38631183334E+01  1.23703383267E+02  1.25309888624E+02  0.00000000000E+00 0.00000000000E+00  1.
        2    1    4    4  803    0 -2.03269104981E+01 -1.81545755650E+01  5.60025191122E+00  2.78232766907E+01  2.91941091925E-06 0.00000000000E+00  1.
       -2    1    4    4    0  803  5.90972959017E+00  3.20176938984E+01  1.40179344000E+02  1.43910757453E+02  1.90734863281E-06 0.00000000000E+00  1.
</event>
<event>
 7   2   1.0000000E+00   6.2498562E+01   7.8125000E-03   1.3828992E-01
       21   -1    0    0  501  502  0.00000000000E+00  0.00000000000E+00  2.32885255776E+02  2.32885255776E+02  0.00000000000E+00 0.00000000000E+00  1.
       21   -1    0    0  502  501  0.00000000000E+00  0.00000000000E+00 -1.67725098858E+01  1.67725098858E+01  0.00000000000E+00 0.00000000000E+00  1.
       39    2    1    2    0    0 -3.55271367880E-15  0.00000000000E+00  2.16112745890E+02  2.49657765662E+02  1.24997124043E+02 0.00000000000E+00  1.
       23    2    3    3    0    0  1.49220222304E+01  1.29359602830E+01  2.14735017141E+02  2.29861201505E+02  7.95929554363E+01 0.00000000000E+00  1.
       22    1    3    3    0    0 -1.49220222304E+01 -1.29359602830E+01  1.37772874916E+00  1.97965641563E+01  0.00000000000E+00 0.00000000000E+00  1.
       14    1    4    4    0    0 -1.36019436370E+01  9.78183332247E+00  4.05781455746E+00  1.72384161928E+01  2.95809631197E-06 0.00000000000E+00  1.
      -14    1    4    4    0    0  2.85239658674E+01  3.15412696054E+00  2.10677202584E+02  2.12622785313E+02  0.00000000000E+00 0.00000000000E+00  1.
</event>
<event>
 7   2   1.0000000E+00   6.2499877E+01   7.8125000E-03   1.3828943E-01
       21   -1    0    0  501  502  0.00000000000E+00  0.00000000000E+00  1.37760857253E+02  1.37760857253E+02  0.00000000000E+00 0.00000000000E+00  1.
       21   -1    0    0  502  501  0.00000000000E+00  0.00000000000E+00 -2.83551850025E+01  2.83551850025E+01  0.00000000000E+00 0.00000000000E+00  1.
       39    2    1    2    0    0 -2.22044604925E-16  0.00000000000E+00  1.09405672250E+02  1.66116042255E+02  1.24999753496E+02 0.00000000000E+00  1.
       23    2    3    3    0    0  1.80208956549E+00  2.37245911430E+01  6.23782044418E+01  1.13412280718E+02  9.16798847980E+01 0.00000000000E+00  1.
       22    1    3    3    0    0 -1.80208956549E+00 -2.37245911430E+01  4.70274678084E+01  5.27037615372E+01  0.00000000000E+00 0.00000000000E+00  1.
        2    1    4    4  803    0 -5.53264600024E+00  3.39572693531E+01  8.26635801529E+01  8.95375552346E+01  1.90734863281E-06 0.00000000000E+00  1.
       -2    1    4    4    0  803  7.33473556573E+00 -1.02326782102E+01 -2.02853757111E+01  2.38747254835E+01  2.21100294483E-06 0.00000000000E+00  1.
</event>
<event>
 7   2   1.0000000E+00   6.2499429E+01   7.8125000E-03   1.3828960E-01
       21   -1    0    0  501  502  0.00000000000E+00  0.00000000000E+00  4.20728329209E+02  4.20728329209E+02  0.00000000000E+00 0.00000000000E+00  1.
       21   -1    0    0  502  501  0.00000000000E+00  0.00000000000E+00 -9.28432517106E+00  9.28432517106E+00  0.00000000000E+00 0.00000000000E+00  1.
       39    2    1    2    0    0 -1.77635683940E-15 -8.88178419700E-16  4.11444004038E+02  4.30012654380E+02  1.24998857868E+02 0.00000000000E+00  1.
       23    2    3    3    0    0 -6.37198320352E+00 -5.93501418861E+00  2.91053619059E+02  3.09307760698E+02  1.04322840727E+02 0.00000000000E+00  1.
       22    1    3    3    0    0  6.37198320352E+00  5.93501418861E+00  1.20390384979E+02  1.20704893682E+02  0.00000000000E+00 0.00000000000E+00  1.
        5    1    4    4  803    0 -4.01583888809E+01 -9.48195743232E+00  4.64551528473E+01  6.23157078137E+01  4.75000000000E+00 0.00000000000E+00  1.
       -5    1    4    4    0  803  3.37864056774E+01  3.54694324371E+00  2.44598466212E+02  2.46992052885E+02  4.75000000000E+00 0.00000000000E+00  1.
</event>
<event>
 7   2   1.0000000E+00   6.2500063E+01   7.8125000E-03   1.3828936E-01
       21   -1    0    0  501  502  0.00000000000E+00  0.00000000000E+00  3.80107136813E+00  3.80107136813E+00  0.00000000000E+00 0.00000000000E+00  1.
       21   -1    0    0  502  501  0.00000000000E+00  0.00000000000E+00 -1.02767285854E+03  1.02767285854E+03  0.00000000000E+00 0.00000000000E+00  1.
       39    2    1    2    0    0  3.55271367880E-15  0.00000000000E+00 -1.02387178717E+03  1.03147392990E+03  1.25000126054E+02 0.00000000000E+00  1.
       23    2    3    3    0    0 -1.24311982702E+01 -2.60497234502E+01 -7.38425518144E+02  7.44572038516E+02  9.10063289658E+01 0.00000000000E+00  1.
       22    1    3    3    0    0  1.24311982702E+01  2.60497234502E+01 -2.85446269024E+02  2.86901891388E+02  0.00000000000E+00 0.00000000000E+00  1.
        2    1    4    4  803    0 -2.61196779851E+01 -2.16505524012E+01 -7.21778722372E+02  7.22575607163E+02  0.00000000000E+00 0.00000000000E+00  1.
       -2    1    4    4    0  803  1.36884797150E+01 -4.39917104900E+00 -1.66467957719E+01  2.19964313537E+01  5.57614114930E-06 0.00000000000E+00  1.
</event>
<event>
 7   2   1.0000000E+00   6.2503712E+01   7.8125000E-03   1.3828800E-01
       21   -1    0    0  501  502  0.00000000000E+00  0.00000000000E+00  2.23496773789E+02  2.23496773789E+02  0.00000000000E+00 0.00000000000E+00  1.
       21   -1    0    0  502  501  0.00000000000E+00  0.00000000000E+00 -1.74799568392E+01  1.74799568392E+01  0.00000000000E+00 0.00000000000E+00  1.
       39    2    1    2    0    0  8.88178419700E-16  0.00000000000E+00  2.06016816949E+02  2.40976730628E+02  1.25007423132E+02 0.00000000000E+00  1.
       23    2    3    3    0    0 -4.40247467761E+00 -2.11604392863E+01  1.97280793297E+02  2.17664414498E+02  8.93920575941E+01 0.00000000000E+00  1.
       22    1    3    3    0    0  4.40247467761E+00  2.11604392863E+01  8.73602365266E+00  2.33123161298E+01  0.00000000000E+00 0.00000000000E+00  1.
        5    1    4    4  803    0 -1.09538169622E+01 -3.35228368756E+01  2.21597501573E+01  4.19211608291E+01  4.75000000000E+00 0.00000000000E+00  1.
       -5    1    4    4    0  803  6.55134228464E+00  1.23623975893E+01  1.75121043139E+02  1.75743253669E+02  4.75000000000E+00 0.00000000000E+00  1.
</event>
<event>
 7   2   1.0000000E+00   6.2500994E+01   7.8125000E-03   1.3828902E-01
       21   -1    0    0  501  502  0.00000000000E+00  0.00000000000E+00  3.01258246146E+01  3.01258246146E+01  0.00000000000E+00 0.00000000000E+00  1.
       21   -1    0    0  502  501  0.00000000000E+00  0.00000000000E+00 -1.29668622972E+02  1.29668622972E+02  0.00000000000E+00 0.00000000000E+00  1.
       39    2    1    2    0    0  0.00000000000E+00 -3.55271367880E-15 -9.95427983570E+01  1.59794447586E+02  1.25001987083E+02 0.00000000000E+00  1.
       23    2    3    3    0    0 -1.01767436435E+01 -1.37889201568E+01 -1.06212439999E+02  1.41404652865E+02  9.17632443358E+01 0.00000000000E+00  1.
       22    1    3    3    0    0  1.01767436435E+01  1.37889201568E+01  6.66964164152E+00  1.83897947216E+01  0.00000000000E+00 0.00000000000E+00  1.
       16    1    4    4    0    0 -4.46590423383E+00 -4.18515902856E+01 -1.04566702169E+02  1.12719541839E+02  0.00000000000E+00 0.00000000000E+00  1.
      -16    1    4    4    0    0 -5.71083940971E+00  2.80626701288E+01 -1.64573782987E+00  2.86851110251E+01  0.00000000000E+00 0.00000000000E+00  1.
</event>
<event>
 7   2   1.0000000E+00   6.2503192E+01   7.8125000E-03   1.3828819E-01
       21   -1    0    0  501  502  0.00000000000E+00  0.00000000000E+00  9.35765989155E+01  9.35765989155E+01  0.00000000000E+00 0.00000000000E+00  1.
       21   -1    0    0  502  501  0.00000000000E+00  0.00000000000E+00 -4.17481408020E+01  4.17481408020E+01  0.00000000000E+00 0.00000000000E+00  1.
       39    2    1    2    0    0  1.77635683940E-15  0.00000000000E+00  5.18284581135E+01  1.35324739718E+02  1.25006384274E+02 0.00000000000E+00  1.
       23    2    3    3    0    0  9.36601243797E+00  2.54826057607E+01  6.06114714587E+01  1.06790081690E+02  8.36258673471E+01 0.00000000000E+00  1.
       22    1    3    3    0    0 -9.36601243797E+00 -2.54826057607E+01 -8.78301334516E+00  2.85346580278E+01  0.00000000000E+00 0.00000000000E+00  1.
        4    1    4    4  803    0  3.16698277115E+01 -3.68272861999E+00  6.23180362729E+01  7.00121685657E+01  1.27500000000E+00 0.00000000000E+00  1.
       -4    1    4    4    0  803 -2.23038152735E+01  2.91653343807E+01 -1.70656481420E+00  3.67779131240E+01  1.27500000000E+00 0.00000000000E+00  1.
</event>
<event>
 7   2   1.0000000E+00   6.2500204E+01   7.8125000E-03   1.3828931E-01
       21   -1    0    0  501  502  0.00000000000E+00  0.00000000000E+00  2.12646197875E+02  2.12646197875E+02  0.00000000000E+00 0.00000000000E+00  1.
       21   -1    0    0  502  501  0.00000000000E+00  0.00000000000E+00 -1.83698344778E+01  1.83698344778E+01  0.00000000000E+00 0.00000000000E+00  1.
       39    2    1    2    0    0  1.77635683940E-15  1.77635683940E-15  1.94276363398E+02  2.31016032353E+02  1.25000407316E+02 0.00000000000E+00  1.
       23    2    3    3    0    0 -8.34266438038E+00  3.31575473916E+00  1.09682414086E+02  1.45947057171E+02  9.58630129852E+01 0.00000000000E+00  1.
       22    1    3    3    0    0  8.34266438038E+00 -3.31575473916E+00  8.45939493115E+01  8.50689751823E+01  0.00000000000E+00 0.00000000000E+00  1.
        3    1    4    4  803    0 -1.00013553760E+01  3.50112827981E+01  1.08212361872E+02  1.14174131459E+02  1.90734863281E-06 0.00000000000E+00  1.
       -3    1    4    4    0  803  1.65869099557E+00 -3.16955280590E+01  1.47005221389E+00  3.17729257115E+01  1.20800544021E-06 0.00000000000E+00  1.
</event>
<event>
 7   2   1.0000000E+00   6.2501291E+01   7.8125000E-03   1.3828890E-01
       21   -1    0    0  501  502  0.00000000000E+00  0.00000000000E+00  2.42853865550E+01  2.42853865550E+01  0.00000000000E+00 0.00000000000E+00  1.
       21   -1    0    0  502  501  0.00000000000E+00  0.00000000000E+00 -1.60854404758E+02  1.60854404758E+02  0.00000000000E+00 0.00000000000E+00  1.
       39    2    1    2    0    0 -7.10542735760E-15 -3.44169137634E-15 -1.36569018203E+02  1.85139791313E+02  1.25002582351E+02 0.00000000000E+00  1.
       23    2    3    3    0    0 -2.19477085524E+01  3.53246054585E-01 -7.39871196352E+01  1.18819954749E+02  9.03452327532E+01 0.00000000000E+00  1.
       22    1    3    3    0    0  2.19477085524E+01 -3.53246054585E-01 -6.25818985678E+01  6.63198365636E+01  0.00000000000E+00 0.00000000000E+00  1.
        1    1    4    4  803    0  1.22855313859E+01 -1.60547908723E+01 -7.80641411090E+01  8.06393248885E+01  0.00000000000E+00 0.00000000000E+00  1.
       -1    1    4    4    0  803 -3.42332399383E+01  1.64080369269E+01  4.07702147383E+00  3.81806298607E+01  0.00000000000E+00 0.00000000000E+00  1.
</event>
<event>
 7   2   1.0000000E+00   6.2500924E+01   7.8125000E-03   1.3828904E-01
       21   -1    0    0  501  502  0.00000000000E+00  0.00000000000E+00  4.43142378954E+01  4.43142378954E+01  0.00000000000E+00 0.00000000000E+00  1.
       21   -1    0    0  502  501  0.00000000000E+00  0.00000000000E+00 -8.81514761214E+01  8.81514761214E+01  0.00000000000E+00 0.00000000000E+00  1.
       39    2    1    2    0    0 -3.55271367880E-15  6.88338275268E-15 -4.38372382260E+01  1.32465714017E+02  1.25001847725E+02 0.00000000000E+00  1.
       23    2    3    3    0    0 -2.65393794475E+01 -6.63100863433E-01 -3.63041831784E+01  1.04869966472E+02  9.47361482611E+01 0.00000000000E+00  1.
       22    1    3    3    0    0  2.65393794475E+01  6.63100863433E-01 -7.53305504759E+00  2.75957475449E+01  0.00000000000E+00 0.00000000000E+00  1.
       12    1    4    4    0    0 -1.10989449207E+01 -4.17099400401E+01 -4.25071598547E+01  6.05785796747E+01  0.00000000000E+00 0.00000000000E+00  1.
      -12    1    4    4    0    0 -1.54404345268E+01  4.10468391766E+01  6.20297667632E+00  4.42913867971E+01  0.00000000000E+00 0.00000000000E+00  1.
</event>
<event>
 7   2   1.0000000E+00   6.2500345E+01   7.8125000E-03   1.3828926E-01
       21   -1    0    0  501  502  0.00000000000E+00  0.00000000000E+00  1.94277390494E+01  1.94277390494E+01  0.00000000000E+00 0.00000000000E+00  1.
       21   -1    0    0  502  501  0.00000000000E+00  0.00000000000E+00 -2.01067819764E+02  2.01067819764E+02  0.00000000000E+00 0.00000000000E+00  1.
       39    2    1    2    0    0  0.00000000000E+00 -1.77635683940E-15 -1.81640080715E+02  2.20495558813E+02  1.25000690136E+02 0.00000000000E+00  1.
       23    2    3    3    0    0 -2.69289683442E+01  1.19966330972E+01 -1.25974491970E+02  1.57505509504E+02  8.98294180943E+01 0.00000000000E+00  1.
       22    1    3    3    0    0  2.69289683442E+01 -1.19966330972E+01 -5.56655887446E+01  6.29900493096E+01  0.00000000000E+00 0.00000000000E+00  1.
        5    1    4    4  803    0  1.57283661188E+01 -2.06394145119E+01 -8.71697429948E+01  9.10741100749E+01  4.75000000000E+00 0.00000000000E+00  1.
       -5    1    4    4    0  803 -4.26573344630E+01  3.26360476091E+01 -3.88047489752E+01  6.64313994287E+01  4.75000000000E+00 0.00000000000E+00  1.
</event>
<event>
 7   2   1.0000000E+00   6.2499908E+01   7.8125000E-03   1.3828942E-01
       21   -1    0    0  501  502  0.00000000000E+00  0.00000000000E+00  5.28625703705E+02  5.28625703705E+02  0.00000000000E+00 0.00000000000E+00  1.
       21   -1    0    0  502  501  0.00000000000E+00  0.00000000000E+00 -7.38942213492E+00  7.38942213492E+00  0.00000000000E+00 0.00000000000E+00  1.
       39    2    1    2    0    0  0.00000000000E+00 -3.55271367880E-15  5.21236281571E+02  5.36015125840E+02  1.24999815617E+02 0.00000000000E+00  1.
       23    2    3    3    0    0 -2.63539424088E+01  1.20469580270E+01  4.50000606128E+02  4.59111413746E+02  8.62733170673E+01 0.00000000000E+00  1.
       22    1    3    3    0    0  2.63539424088E+01 -1.20469580270E+01  7.12356754426E+01  7.69037120948E+01  0.00000000000E+00 0.00000000000E+00  1.
        4    1    4    4  803    0 -3.46984616218E+01 -3.06291160243E+01  2.69054716629E+02  2.73009509271E+02  1.27500000001E+00 0.00000000000E+00  1.
       -4    1    4    4    0  803  8.34451921305E+00  4.26760740513E+01  1.80945889499E+02  1.86101904474E+02  1.27500000000E+00 0.00000000000E+00  1.
</event>
<event>
 7   2   1.0000000E+00   6.2499843E+01   7.8125000E-03   1.3828944E-01
       21   -1    0    0  501  502  0.00000000000E+00  0.00000000000E+00  3.30213141741E+01  3.30213141741E+01  0.00000000000E+00 0.00000000000E+00  1.
       21   -1    0    0  502  501  0.00000000000E+00  0.00000000000E+00 -1.18294213156E+02  1.18294213156E+02  0.00000000000E+00 0.00000000000E+00  1.
       39    2    1    2    0    0  3.55271367880E-15 -4.44089209850E-16 -8.52728989816E+01  1.51315527330E+02  1.24999686041E+02 0.00000000000E+00  1.
       23    2    3    3    0    0 -2.20406595599E+01 -2.96554584380E+00 -4.71266737236E+01  1.07159897593E+02  9.36361849926E+01 0.00000000000E+00  1.
       22    1    3    3    0    0  2.20406595599E+01  2.96554584380E+00 -3.81462252581E+01  4.41556297365E+01  0.00000000000E+00 0.00000000000E+00  1.
       16    1    4    4    0    0 -3.89555903427E+01  3.19242894320E+01 -4.62447239887E+01  6.83759664293E+01  0.00000000000E+00 0.00000000000E+00  1.
      -16    1    4    4    0    0  1.69149307827E+01 -3.48898352758E+01 -8.81949734902E-01  3.87839313640E+01  0.00000000000E+00 0.00000000000E+00  1.
</event>
<event>
 7   2   1.0000000E+00   6.2500372E+01   7.8125000E-03   1.3828925E-01
       21   -1    0    0  501  502  0.00000000000E+00  0.00000000000E+00  1.91970330420E+02  1.91970330420E+02  0.00000000000E+00 0.00000000000E+00  1.
       21   -1    0    0  502  501  0.00000000000E+00  0.00000000000E+00 -2.03484389437E+01  2.03484389437E+01  0.00000000000E+00 0.00000000000E+00  1.
       39    2    1    2    0    0 -3.55271367880E-15 -2.66453525910E-15  1.71621891476E+02  2.12318769364E+02  1.25000744759E+02 0.00000000000E+00  1.
       23    2    3    3    0    0  2.51068255842E+01 -7.52485041915E+00  1.07196143976E+02  1.42765530721E+02  9.05759759204E+01 0.00000000000E+00  1.
       22    1    3    3    0    0 -2.51068255842E+01  7.52485041915E+00  6.44257475000E+01  6.95532386426E+01  0.00000000000E+00 0.00000000000E+00  1.
       15    1    4    4    0    0  5.66850701466E+01 -1.60760594427E+01  5.21397945744E+01  7.86978529645E+01  1.77680000000E+00 0.00000000000E+00  1.
      -15    1    4    4    0    0 -3.15782445624E+01  8.55120902357E+00  5.50563494021E+01  6.40676777566E+01  1.77680000000E+00 0.00000000000E+00  1.
</event>
<event>
 7   2   1.0000000E+00   6.2501395E+01   7.8125000E-03   1.3828887E-01
       21   -1    0    0  501  502  0.00000000000E+00  0.00000000000E+00  9.21853795383E+01  9.21853795383E+01  0.00000000000E+00 0.00000000000E+00  1.
       21   -1    0    0  502  501  0.00000000000E+00  0.00000000000E+00 -4.23757478770E+01  4.23757478770E+01  0.00000000000E+00 0.00000000000E+00  1.
       39    2    1    2    0    0  8.88178419700E-16  1.06581410364E-14  4.98096316613E+01  1.34561127415E+02  1.25002790389E+02 0.00000000000E+00  1.
       23    2    3    3    0    0 -7.88675313112E+00 -1.99415763785E+01  6.00829537612E+01  1.10782807660E+02  9.05704245158E+01 0.00000000000E+00  1.
       22    1    3    3    0    0  7.88675313112E+00  1.99415763785E+01 -1.02733220999E+01  2.37783197552E+01  0.00000000000E+00 0.00000000000E+00  1.
        1    1    4    4  803    0  1.44603380814E+01 -3.41352697564E+01  7.25862265985E+01  8.15050815016E+01  1.34869915235E-06 0.00000000000E+00  1.
       -1    1    4    4    0  803 -2.23470912126E+01  1.41936933779E+01 -1.25032728373E+01  2.92777262585E+01  0.00000000000E+00 0.00000000000E+00  1.
</event>
<event>
 7   2   1.0000000E+00   6.2500825E+01   7.8125000E-03   1.3828908E-01
       21   -1    0    0  501  502  0.00000000000E+00  0.00000000000E+00  1.04215608160E+02  1.04215608160E+02  0.00000000000E+00 0.00000000000E+00  1.
       21   -1    0    0  502  501  0.00000000000E+00  0.00000000000E+00 -3.74833789792E+01  3.74833789792E+01  0.00000000000E+00 0.00000000000E+00  1.
       39    2    1    2    0    0 -8.88178419700E-16 -7.10542735760E-15  6.67322291803E+01  1.41698987139E+02  1.25001650168E+02 0.00000000000E+00  1.
       23    2    3    3    0    0 -2.19577837625E+00  3.88633641609E+01  3.77143088881E+01  9.31477542535E+01  7.57558744322E+01 0.00000000000E+00  1.
       22    1    3    3    0    0  2.19577837625E+00 -3.88633641609E+01  2.90179202923E+01  4.85512328851E+01  0.00000000000E+00 0.00000000000E+00  1.
        3    1    4    4  803    0 -2.47836352440E+01  4.04507587793E+01 -1.94528837523E+00  4.74792229148E+01  0.00000000000E+00 0.00000000000E+00  1.
       -3    1    4    4    0  803  2.25878568677E+01 -1.58739461840E+00  3.96595972633E+01  4.56685313388E+01  0.00000000000E+00 0.00000000000E+00  1.
</event>
<event>
 7   2   1.0000000E+00   6.2498459E+01   7.8125000E-03   1.3828996E-01
       21   -1    0    0  501  502  0.00000000000E+00  0.00000000000E+00  1.66181274729E+02  1.66181274729E+02  0.00000000000E+00 0.00000000000E+00  1.
       21   -1    0    0  502  501  0.00000000000E+00  0.00000000000E+00 -2.35047988051E+01  2.35047988051E+01  0.00000000000E+00 0.00000000000E+00  1.
       39    2    1    2    0    0  0.00000000000E+00 -2.22044604925E-15  1.42676475923E+02  1.89686073534E+02  1.24996918805E+02 0.00000000000E+00  1.
       23    2    3    3    0    0  2.64362374284E+01 -3.28774691437E+00  9.32877706794E+01  1.33570762479E+02  9.18088040528E+01 0.00000000000E+00  1.
       22    1    3    3    0    0 -2.64362374284E+01  3.28774691437E+00  4.93887052440E+01  5.61153110552E+01  0.00000000000E+00 0.00000000000E+00  1.
        3    1    4    4  803    0  3.95873079453E+01 -3.99557494333E+01  6.10081951784E+01  8.29796164251E+01  1.65181236989E-06 0.00000000000E+00  1.
       -3    1    4    4    0  803 -1.31510705170E+01  3.66680025189E+01  3.22795755011E+01  5.05911460534E+01  1.78416127528E-06 0.00000000000E+00  1.
</event>
<event>
 7   2   1.0000000E+00   6.2502090E+01   7.8125000E-03   1.3828861E-01
       21   -1    0    0  501  502  0.00000000000E+00  0.00000000000E+00  9.61992527819E+00  9.61992527819E+00  0.00000000000E+00 0.00000000000E+00  1.
       21   -1    0    0  502  501  0.00000000000E+00  0.00000000000E+00 -4.06085410731E+02  4.06085410731E+02  0.00000000000E+00 0.00000000000E+00  1.
       39    2    1    2    0    0 -3.55271367880E-15  1.77635683940E-15 -3.96465485453E+02  4.15705336009E+02  1.25004180855E+02 0.00000000000E+00  1.
       23    2    3    3    0    0  2.37517944550E+01  7.04024870449E+00 -2.54530132498E+02  2.71624257238E+02  9.15447209217E+01 0.00000000000E+00  1.
       22    1    3    3    0    0 -2.37517944550E+01 -7.04024870449E+00 -1.41935352955E+02  1.44081078772E+02  0.00000000000E+00 0.00000000000E+00  1.
        3    1    4    4  803    0 -1.62385752703E+01 -1.24567446202E+01 -9.45679821000E+00  2.25453508673E+01  3.05557384920E-06 0.00000000000E+00  1.
       -3    1    4    4    0  803  3.99903697253E+01  1.94969933247E+01 -2.45073334288E+02  2.49078906370E+02  3.81469726562E-06 0.00000000000E+00  1.
</event>
<event>
 7   2   1.0000000E+00   6.2499517E+01   7.8125000E-03   1.3828957E-01
       21   -1    0    0  501  502  0.00000000000E+00  0.00000000000E+00  7.33082392384E+00  7.33082392384E+00  0.00000000000E+00 0.00000000000E+00  1.
       21   -1    0    0  502  501  0.00000000000E+00  0.00000000000E+00 -5.32844565376E+02  5.32844565376E+02  0.00000000000E+00 0.00000000000E+00  1.
       39    2    1    2    0    0 -3.55271367880E-15  5.32907051820E-15 -5.25513741452E+02  5.40175389300E+02  1.24999034997E+02 0.00000000000E+00  1.
       23    2    3    3    0    0 -2.04037447455E+01  1.48895913098E+01 -3.32435103765E+02  3.45451551365E+02  9.04746560982E+01 0.00000000000E+00  1.
       22    1    3    3    0    0  2.04037447455E+01 -1.48895913098E+01 -1.93078637687E+02  1.94723837935E+02  0.00000000000E+00 0.00000000000E+00  1.
        4    1    4    4  803    0  2.71738483958E+00 -2.81775784894E+01 -2.32229463083E+02  2.33951937925E+02  1.27500000000E+00 0.00000000000E+00  1.
       -4    1    4    4    0  803 -2.31211295851E+01  4.30671697992E+01 -1.00205640682E+02  1.11499613440E+02  1.27500000000E+00 0.00000000000E+00  1.
</event>
<event>
 7   2   1.0000000E+00   6.2499540E+01   7.8125000E-03   1.3828956E-01
       21   -1    0    0  501  502  0.00000000000E+00  0.00000000000E+00  1.43772662113E+02  1.43772662113E+02  0.00000000000E+00 0.00000000000E+00  1.
       21   -1    0    0  502  501  0.00000000000E+00  0.00000000000E+00 -2.71692300898E+01  2.71692300898E+01  0.00000000000E+00 0.00000000000E+00  1.
       39    2    1    2    0    0  0.00000000000E+00 -3.55271367880E-15  1.16603432023E+02  1.70941892203E+02  1.24999080598E+02 0.00000000000E+00  1.
       23    2    3    3    0    0 -1.82739917154E+01 -1.62270312133E+01  1.11702906790E+02  1.46016594556E+02  9.08077705116E+01 0.00000000000E+00  1.
       22    1    3    3    0    0  1.82739917154E+01  1.62270312133E+01  4.90052523347E+00  2.49252976467E+01  0.00000000000E+00 0.00000000000E+00  1.
        2    1    4    4  803    0 -4.05098055846E+01 -1.25912706108E+01  1.15611758686E+02  1.23148947276E+02  2.33601545599E-06 0.00000000000E+00  1.
       -2    1    4    4    0  803  2.22358138692E+01 -3.63576060255E+00 -3.90885189559E+00  2.28676474807E+01  1.86353900443E-06 0.00000000000E+00  1.
</event>
<event>
 7   2   1.0000000E+00   6.2502919E+01   7.8125000E-03   1.3828830E-01
       21   -1    0    0  501  502  0.00000000000E+00  0.00000000000E+00  2.08899168777E+02  2.08899168777E+02  0.00000000000E+00 0.00000000000E+00  1.
       21   -1    0    0  502  501  0.00000000000E+00  0.00000000000E+00 -1.87009593282E+01  1.87009593282E+01  0.00000000000E+00 0.00000000000E+00  1.
       39    2    1    2    0    0  3.55271367880E-15  0.00000000000E+00  1.90198209449E+02  2.27600128105E+02  1.25005837608E+02 0.00000000000E+00  1.
       23    2    3    3    0    0  2.40902500733E+01 -1.29477366154E+01  1.66646763529E+02  1.91507820933E+02  9.03112266112E+01 0.00000000000E+00  1.
       22    1    3    3    0    0 -2.40902500733E+01  1.29477366154E+01  2.35514459202E+01  3.60923071719E+01  0.00000000000E+00 0.00000000000E+00  1.
        1    1    4    4  803    0  2.21274993977E+01  3.40001252378E+01  1.13685352685E+02  1.20706230929E+02  2.33601545599E-06 0.00000000000E+00  1.
       -1    1    4    4    0  803  1.96275067562E+00 -4.69478618531E+01  5.29614108439E+01  7.08015902048E+01  0.00000000000E+00 0.00000000000E+00  1.
</event>
<event>
 7   2   1.0000000E+00   6.2499111E+01   7.8125000E-03   1.3828972E-01
       21   -1    0    0  501  502  0.00000000000E+00  0.00000000000E+00  6.12602321733E+01  6.12602321733E+01  0.00000000000E+00 0.00000000000E+00  1.
       21   -1    0    0  502  501  0.00000000000E+00  0.00000000000E+00 -6.37630435556E+01  6.37630435556E+01  0.00000000000E+00 0.00000000000E+00  1.
       39    2    1    2    0    0  0.00000000000E+00  0.00000000000E+00 -2.50281138233E+00  1.25023275729E+02  1.24998221624E+02 0.00000000000E+00  1.
       23    2    3    3    0    0  2.97200320083E+01  1.09877051375E+01 -3.76408816670E+01  7.77084371463E+01  6.01477785482E+01 0.00000000000E+00  1.
       22    1    3    3    0    0 -2.97200320083E+01 -1.09877051375E+01  3.51380702847E+01  4.73148385826E+01  0.00000000000E+00 0.00000000000E+00  1.
        1    1    4    4  803    0  4.75751055956E+01  8.86876399456E+00 -3.45552983280E+01  5.94652360767E+01  1.26159253648E-06 0.00000000000E+00  1.
       -1    1    4    4    0  803 -1.78550735873E+01  2.11894114298E+00 -3.08558333897E+00  1.82432012696E+01  0.00000000000E+00 0.00000000000E+00  1.
</event>
<event>
 7   2   1.0000000E+00   6.2500967E+01   7.8125000E-03   1.3828903E-01
       21   -1    0    0  501  502  0.00000000000E+00  0.00000000000E+00  6.10353690660E+02  6.10353690660E+02  0.00000000000E+00 0.00000000000E+00  1.
       21   -1    0    0  502  501  0.00000000000E+00  0.00000000000E+00 -6.40017563796E+00  6.40017563796E+00  0.00000000000E+00 0.00000000000E+00  1.
       39    2    1    2    0    0 -1.77635683940E-15  0.00000000000E+00  6.03953515022E+02  6.16753866298E+02  1.25001933129E+02 0.00000000000E+00  1.
       23    2    3    3    0    0  1.59130588719E+01  2.03811894347E+01  5.18541430580E+02  5.27513502705E+02  9.33630654111E+01 0.00000000000E+00  1.
       22    1    3    3    0    0 -1.59130588719E+01 -2.03811894347E+01  8.54120844427E+01  8.92403635934E+01  0.00000000000E+00 0.00000000000E+00  1.
        4    1    4    4  803    0 -2.73700086443E+01  3.03173574362E+01  1.25880167413E+02  1.32346899125E+02  1.27500000001E+00 0.00000000000E+00  1.
       -4    1    4    4    0  803  4.32830675162E+01 -9.93616800149E+00  3.92661263166E+02  3.95166603580E+02  1.27499999999E+00 0.00000000000E+00  1.
</event>
<event>
 7   2   1.0000000E+00   6.2529301E+01   7.8125000E-03   1.3827845E-01
       21   -1    0    0  501  502  0.00000000000E+00  0.00000000000E+00  6.99376591189E+01  6.99376591189E+01  0.00000000000E+00 0.00000000000E+00  1.
       21   -1    0    0  502  501  0.00000000000E+00  0.00000000000E+00 -5.59056961337E+01  5.59056961337E+01  0.00000000000E+00 0.00000000000E+00  1.
       39    2    1    2    0    0  3.55271367880E-15  5.32907051820E-15  1.40319629852E+01  1.25843355253E+02  1.25058602567E+02 0.00000000000E+00  1.
       23    2    3    3    0    0 -2.15537564414E+01  1.17607114874E+01  3.10303750544E+01  9.59799200132E+01  8.74435939237E+01 0.00000000000E+00  1.
       22    1    3    3    0    0  2.15537564414E+01 -1.17607114874E+01 -1.69984120691E+01  2.98634352394E+01  0.00000000000E+00 0.00000000000E+00  1.
        1    1    4    4  803    0 -2.18407161699E+01  3.89360546612E+01 -1.09536234577E+01  4.59675441093E+01  0.00000000000E+00 0.00000000000E+00  1.
       -1    1    4    4    0  803  2.86959728488E-01 -2.71753431737E+01  4.19839985121E+01  5.00123760039E+01  0.00000000000E+00 0.00000000000E+00  1.
</event>
<event>
 7   2   1.0000000E+00   6.2498304E+01   7.8125000E-03   1.3829002E-01
       21   -1    0    0  501  502  0.00000000000E+00  0.00000000000E+00  4.86292405901E+02  4.86292405901E+02  0.00000000000E+00 0.00000000000E+00  1.
       21   -1    0    0  502  501  0.00000000000E+00  0.00000000000E+00 -8.03228246562E+00  8.03228246562E+00  0.00000000000E+00 0.00000000000E+00  1.
       39    2    1    2    0    0  3.55271367880E-15 -8.88178419700E-16  4.78260123435E+02  4.94324688366E+02  1.24996607395E+02 0.00000000000E+00  1.
       23    2    3    3    0    0  2.61170319624E+01 -5.20230317553E+00  3.35518715136E+02  3.49120442698E+02  9.27529621435E+01 0.00000000000E+00  1.
       22    1    3    3    0    0 -2.61170319624E+01  5.20230317553E+00  1.42741408299E+02  1.45204245668E+02  0.00000000000E+00 0.00000000000E+00  1.
        1    1    4    4  803    0  1.49131752065E+01  1.73429500916E+00  3.35607129483E+02  3.35942786697E+02  5.39479660939E-06 0.00000000000E+00  1.
       -1    1    4    4    0  803  1.12038567559E+01 -6.93659818469E+00 -8.84143472325E-02  1.31776561009E+01  2.83810037885E-06 0.00000000000E+00  1.
</event>
<event>
 7   2   1.0000000E+00   6.2498934E+01   7.8125000E-03   1.3828978E-01
       21   -1    0    0  501  502  0.00000000000E+00  0.00000000000E+00  1.01734929152E+01  1.01734929152E+01  0.00000000000E+00 0.00000000000E+00  1.
       21   -1    0    0  502  501  0.00000000000E+00  0.00000000000E+00 -3.83950410729E+02  3.83950410729E+02  0.00000000000E+00 0.00000000000E+00  1.
       39    2    1    2    0    0 -8.88178419700E-16  0.00000000000E+00 -3.73776917814E+02  3.94123903645E+02  1.24997868516E+02 0.00000000000E+00  1.
       23    2    3    3    0    0  2.48441274504E+00 -1.53218849531E+01 -2.07067679956E+02  2.26693612322E+02  9.09507411731E+01 0.00000000000E+00  1.
       22    1    3    3    0    0 -2.48441274504E+00  1.53218849531E+01 -1.66709237858E+02  1.67430291323E+02  0.00000000000E+00 0.00000000000E+00  1.
        3    1    4    4  803    0  9.84172521898E+00 -7.43200123424E+00 -2.13683176076E+02  2.14038767366E+02  0.00000000000E+00 0.00000000000E+00  1.
       -3    1    4    4    0  803 -7.35731247394E+00 -7.88988371884E+00  6.61549612013E+00  1.26548449556E+01  0.00000000000E+00 0.00000000000E+00  1.
</event>
<event>
 7   2   1.0000000E+00   6.2501255E+01   7.8125000E-03   1.3828892E-01
       21   -1    0    0  501  502  0.00000000000E+00  0.00000000000E+00  2.09182930654E+00  2.09182930654E+00  0.00000000000E+00 0.00000000000E+00  1.
       21   -1    0    0  502  501  0.00000000000E+00  0.00000000000E+00 -1.86745968151E+03  1.86745968151E+03  0.00000000000E+00 0.00000000000E+00  1.
       39    2    1    2    0    0  3.33066907388E-15  0.00000000000E+00 -1.86536785220E+03  1.86955151081E+03  1.25002510224E+02 0.00000000000E+00  1.
       23    2    3    3    0    0 -1.77712379441E+00 -1.87990445384E+01 -1.76114493700E+03  1.76363183230E+03  9.17016276834E+01 0.00000000000E+00  1.
       22    1    3    3    0    0  1.77712379441E+00  1.87990445384E+01 -1.04222915201E+02  1.05919678519E+02  0.00000000000E+00 0.00000000000E+00  1.
        4    1    4    4  803    0 -2.58477044135E+01 -3.29291732993E+00 -1.51357850043E+02  1.53589620492E+02  1.27500000042E+00 0.00000000000E+00  1.
       -4    1    4    4    0  803  2.40705806191E+01 -1.55061272085E+01 -1.60978708696E+03  1.61004221180E+03  1.27500000050E+00 0.00000000000E+00  1.
</event>
<event>
 7   2   1.0000000E+00   6.2500602E+01   7.8125000E-03   1.3828916E-01
       21   -1    0    0  501  502  0.00000000000E+00  0.00000000000E+00  1.58445583715E+01  1.58445583715E+01  0.00000000000E+00 0.00000000000E+00  1.
       21   -1    0    0  502  501  0.00000000000E+00  0.00000000000E+00 -2.46540491702E+02  2.46540491702E+02  0.00000000000E+00 0.00000000000E+00  1.
       39    2    1    2    0    0  8.88178419700E-16  2.22044604925E-15 -2.30695933331E+02  2.62385050074E+02  1.25001203381E+02 0.00000000000E+00  1.
       23    2    3    3    0    0  2.13045866873E+00  3.88498546765E+00 -2.37211742158E+02  2.54505473251E+02  9.21085953149E+01 0.00000000000E+00  1.
       22    1    3    3    0    0 -2.13045866873E+00 -3.88498546765E+00  6.51580882752E+00  7.87957682238E+00  0.00000000000E+00 0.00000000000E+00  1.
       11    1    4    4    0    0 -4.31673944874E+00 -3.98340023929E+01 -6.21026506576E+01  7.39061648651E+01  5.11000822499E-04 0.00000000000E+00  1.
      -11    1    4    4    0    0  6.44719811746E+00  4.37189878606E+01 -1.75109091501E+02  1.80599308386E+02  5.11002157370E-04 0.00000000000E+00  1.
</event>
<event>
 7   2   1.0000000E+00   6.2499475E+01   7.8125000E-03   1.3828958E-01
       21   -1    0    0  501  502  0.00000000000E+00  0.00000000000E+00  2.33999687369E+01  2.33999687369E+01  0.00000000000E+00 0.00000000000E+00  1.
       21   -1    0    0  502  501  0.00000000000E+00  0.00000000000E+00 -1.66931178097E+02  1.66931178097E+02  0.00000000000E+00 0.00000000000E+00  1.
       39    2    1    2    0    0  4.44089209850E-16 -8.88178419700E-16 -1.43531209360E+02  1.90331146833E+02  1.24998949574E+02 0.00000000000E+00  1.
       23    2    3    3    0    0 -3.00821242006E+00  5.11411621251E+00 -1.53524562389E+02  1.78709157702E+02  9.12796158138E+01 0.00000000000E+00  1.
       22    1    3    3    0    0  3.00821242006E+00 -5.11411621251E+00  9.99335302958E+00  1.16219891315E+01  0.00000000000E+00 0.00000000000E+00  1.
        3    1    4    4  803    0 -1.51663324815E+01 -1.81434988553E+01 -1.50437124985E+02  1.52284381226E+02  2.69739830470E-06 0.00000000000E+00  1.
       -3    1    4    4    0  803  1.21581200614E+01  2.32576150678E+01 -3.08743740421E+00  2.64247764758E+01  1.21716128925E-06 0.00000000000E+00  1.
</event>
<event>
 7   2   1.0000000E+00   6.2500738E+01   7.8125000E-03   1.3828911E-01
       21   -1    0    0  501  502  0.00000000000E+00  0.00000000000E+00  5.18923951387E+00  5.18923951387E+00  0.00000000000E+00 0.00000000000E+00  1.
       21   -1    0    0  502  501  0.00000000000E+00  0.00000000000E+00 -7.52777411911E+02  7.52777411911E+02  0.00000000000E+00 0.00000000000E+00  1.
       39    2    1    2    0    0  3.55271367880E-15  0.00000000000E+00 -7.47588172398E+02  7.57966651425E+02  1.25001476648E+02 0.00000000000E+00  1.
       23    2    3    3    0    0  2.75643243310E+01  2.34797303008E+01 -4.47035572690E+02  4.55240777239E+02  7.80530095522E+01 0.00000000000E+00  1.
       22    1    3    3    0    0 -2.75643243310E+01 -2.34797303008E+01 -3.00552599707E+02  3.02725874186E+02  0.00000000000E+00 0.00000000000E+00  1.
        1    1    4    4  803    0 -7.61199559445E+00  1.09679223662E+01 -3.63458899255E+02  3.63704013338E+02  5.39479660939E-06 0.00000000000E+00  1.
       -1    1    4    4    0  803  3.51763199255E+01  1.25118079347E+01 -8.35766734357E+01  9.15367640015E+01  4.37028474327E-06 0.00000000000E+00  1.
</event>
</LesHouchesEvents>
