<LesHouchesEvents version="1.0">
<!--
Output from the JHUGenerator v7.4.1 described in arXiv:1001.3396 [hep-ph], arXiv:1208.4018 [hep-ph], arXiv:1309.4819 [hep-ph], arXiv:1606.03107 [hep-ph]
   
   Command line: ./JHUGen Seed=765543533 PDFSet=3 Process=0 VegasNc0=100000 VegasNc2=100 DataFile=compare_to_reference/ggH_Zgamma DecayMode1=9 DecayMode2=7 ghg2=0.383432074687728,0.918260989345657 ghg3=6294.49296087723,2253.12941717723 ghg4=0.335495485382528,0.17285803562226 ghz1=0.154934976270359,0.453918144016304 ghz2=0.469297059144414,0.745302300947002 ghz3=3947.40921062637,3597.4885961919 ghz4=0.177791270766536,0.920170534486048 ghzgs2=0.0240331049939919,0.232175381101053 ghzgs3=0.331962910170583,0.0450183240308457 ghzgs4=0.808286540247172,0.133184346613754 ghgsgs2=0.530394804029869,0.211218112389125 ghgsgs3=0.914978695198138,0.055650585081425 ghgsgs4=0.694524307167701,0.511424456076726 ghz1_prime=0.143354267833606,0.0910761280837012 ghz1_prime2=7416.7007267243,4861.35525489789 ghz1_prime3=4431.44656075298,4436.48625894176 ghz1_prime4=2441.69123517064,6946.16318931911 ghz1_prime5=78314042.889773,69465359.939181 ghz1_prime6=51233058.8130761,29537873.5850789 ghz1_prime7=47832192.9001564,59559649.9633
   
   Input Parameter:
    Collider: P-P, sqrt(s)=13000.00
    Resonance: spin=0, mass= 125.00 width=   0.00407
    DecayMode1: 9  DecayMode2: 7
    Z boson: mass=91.188, width=2.4952
      m(gammastar) >=     4.00 GeV
    Random seed:   765543533
    To reproduce results using this seed, JHUGen should be compiled with the same compiler:
      GNU Fortran (GCC) 6.3.0
    
    OffXVV: TTF
    WidthScheme:   2
    PChannel: 0
    PDFSet:   3
    Unweighted: T
    Interference: T
    Intermediate off-shell photons: T
    
    Spin-0-VV couplings: 
      generate_as=F
      kappa_top=  0.10000000E+01  0.00000000E+00i
      kappa_bot=  0.10000000E+01  0.00000000E+00i
      ghg2=  0.38343207E+00  0.91826099E+00i
      ghg3=  0.62944930E+04  0.22531294E+04i
      ghg4=  0.33549549E+00  0.17285804E+00i
      ghz1=  0.15493498E+00  0.45391814E+00i
      ghz2=  0.46929706E+00  0.74530230E+00i
      ghz3=  0.39474092E+04  0.35974886E+04i
      ghz4=  0.17779127E+00  0.92017053E+00i
      ghz1_prime=   0.14335427E+00  0.91076128E-01i,    Lambda_z1=  1.0000E+04
      ghz1_prime2=  0.74167007E+04  0.48613553E+04i,    Lambda_z1=  1.0000E+04
      ghz1_prime3=  0.44314466E+04  0.44364863E+04i,    Lambda_z1=  1.0000E+04
      ghz1_prime4=  0.24416912E+04  0.69461632E+04i,    Lambda_z1=  1.0000E+04
      ghz1_prime5=  0.78314043E+08  0.69465360E+08i,    Lambda_z1=  1.0000E+04
      ghz1_prime6=  0.51233059E+08  0.29537874E+08i,    Lambda_z1=  1.0000E+04
      ghz1_prime7=  0.47832193E+08  0.59559650E+08i,    Lambda_z1=  1.0000E+04
      ghz2_prime=   0.57465793E+00  0.41992191E+00i,    Lambda_z2=  1.0000E+04
      ghz2_prime2=  0.43854587E+04  0.61761246E+04i,    Lambda_z2=  1.0000E+04
      ghz2_prime3=  0.45921696E+04  0.75499391E+04i,    Lambda_z2=  1.0000E+04
      ghz2_prime4=  0.84715906E+04  0.71997238E+04i,    Lambda_z2=  1.0000E+04
      ghz2_prime5=  0.19558280E+08  0.94843889E+08i,    Lambda_z2=  1.0000E+04
      ghz2_prime6=  0.23209661E+08  0.67617823E+08i,    Lambda_z2=  1.0000E+04
      ghz2_prime7=  0.70059904E+07  0.53660191E+08i,    Lambda_z2=  1.0000E+04
      ghz3_prime=   0.40457065E+04  0.19693161E+04i,    Lambda_z3=  1.0000E+04
      ghz3_prime2=  0.33402456E+08  0.37615919E+07i,    Lambda_z3=  1.0000E+04
      ghz3_prime3=  0.44855080E+08  0.12184926E+08i,    Lambda_z3=  1.0000E+04
      ghz3_prime4=  0.27878602E+08  0.78237524E+08i,    Lambda_z3=  1.0000E+04
      ghz3_prime5=  0.93246434E+12  0.63158085E+12i,    Lambda_z3=  1.0000E+04
      ghz3_prime6=  0.35811562E+12  0.41077746E+12i,    Lambda_z3=  1.0000E+04
      ghz3_prime7=  0.62298148E+12  0.61827857E+12i,    Lambda_z3=  1.0000E+04
      ghz4_prime=   0.41653395E+00  0.33115593E+00i,    Lambda_z4=  1.0000E+04
      ghz4_prime2=  0.75883756E+04  0.39234327E+04i,    Lambda_z4=  1.0000E+04
      ghz4_prime3=  0.89560755E+04  0.93020315E+04i,    Lambda_z4=  1.0000E+04
      ghz4_prime4=  0.32034411E+04  0.28637675E+04i,    Lambda_z4=  1.0000E+04
      ghz4_prime5=  0.49012574E+08  0.74595801E+08i,    Lambda_z4=  1.0000E+04
      ghz4_prime6=  0.73323810E+08  0.53968832E+08i,    Lambda_z4=  1.0000E+04
      ghz4_prime7=  0.68563876E+08  0.43025214E+08i,    Lambda_z4=  1.0000E+04
      ghzgs2=  0.24033105E-01  0.23217538E+00i
      ghzgs3=  0.33196291E+00  0.45018324E-01i
      ghzgs4=  0.80828654E+00  0.13318435E+00i
      ghzgs1_prime2=  0.56689643E+04  0.70176759E+04i,  Lambda_zgs1=  1.0000E+04
      ghgsgs2=  0.53039480E+00  0.21121811E+00i
      ghgsgs3=  0.91497870E+00  0.55650585E-01i
      ghgsgs4=  0.69452431E+00  0.51142446E+00i
      Lambda=  1000.0
      Lambda_Q=  10000.0
      Lambda_z11=   1.3888E+02
      Lambda_z21=   1.5452E+02
      Lambda_z31=   1.1998E+02
      Lambda_z41=   1.8136E+02
      Lambda_z12=   1.3667E+02
      Lambda_z22=   1.6659E+02
      Lambda_z32=   1.3884E+02
      Lambda_z42=   4.9064E+01
      Lambda_z10=   9.6973E+00
      Lambda_z20=   1.9326E+02
      Lambda_z30=   8.9204E+01
      Lambda_z40=   1.6167E+02
    
    LHE output: compare_to_reference/ggH_Zgamma.lhe
    Histogram output: compare_to_reference/ggH_Zgamma.dat
    Log file: compare_to_reference/ggH_Zgamma.log
    
-->
<init>
2212 2212   6500.0000000000000000    6500.0000000000000000 0 0  263000  263000  3  1
 6.5142391E+10  1.3294214E+08  1.0000000E+00   0
</init>
<event>
 7   0   1.0000000E+00   6.2498256E+01   7.8125000E-03   1.3829004E-01
       21   -1    0    0  501  502  0.00000000000E+00  0.00000000000E+00  2.84063796580E+00  2.84063796580E+00  0.00000000000E+00  0.00000000000E+00  1.
       21   -1    0    0  502  501  0.00000000000E+00  0.00000000000E+00 -1.37505447310E+03  1.37505447310E+03  0.00000000000E+00  0.00000000000E+00  1.
       25    2    1    2    0    0 -3.55271367880E-15 -4.44089209850E-15 -1.37221383514E+03  1.37789511107E+03  1.24996511013E+02  0.00000000000E+00  1.
       23    2    3    3    0    0 -1.52185494584E+01  4.02816189874E+00 -8.14217600696E+02  8.19676849108E+02  9.31236025114E+01  0.00000000000E+00  1.
       22    1    3    3    0    0  1.52185494584E+01 -4.02816189874E+00 -5.57996234442E+02  5.58218261962E+02  0.00000000000E+00  0.00000000000E+00  1.
       12    1    4    4    0    0 -3.51087207460E+01  3.06777697774E+01 -2.39374772190E+02  2.43872977986E+02  4.67203091199E-06  0.00000000000E+00  1.
      -12    1    4    4    0    0  1.98901712876E+01 -2.66496078786E+01 -5.74842828507E+02  5.75803871222E+02  7.62939453125E-06  0.00000000000E+00  1.
</event>
<event>
 7   0   1.0000000E+00   6.2500227E+01   7.8125000E-03   1.3828930E-01
       21   -1    0    0  501  502  0.00000000000E+00  0.00000000000E+00  2.57877057448E+01  2.57877057448E+01  0.00000000000E+00  0.00000000000E+00  1.
       21   -1    0    0  502  501  0.00000000000E+00  0.00000000000E+00 -1.51478320401E+02  1.51478320401E+02  0.00000000000E+00  0.00000000000E+00  1.
       25    2    1    2    0    0 -1.06581410364E-14 -1.11022302463E-16 -1.25690614656E+02  1.77266026146E+02  1.25000453651E+02  0.00000000000E+00  1.
       23    2    3    3    0    0 -2.70959060920E+01 -6.30305062416E-01 -1.09989509627E+02  1.45943348889E+02  9.20172997074E+01  0.00000000000E+00  1.
       22    1    3    3    0    0  2.70959060920E+01  6.30305062416E-01 -1.57011050293E+01  3.13226772572E+01  0.00000000000E+00  0.00000000000E+00  1.
        5    1    4    4  803    0  3.37102137403E+01  2.19334360589E+00 -4.84414326289E+01  5.92479886725E+01  4.75000000000E+00  0.00000000000E+00  1.
       -5    1    4    4    0  803 -6.08061198323E+01 -2.82364866830E+00 -6.15480769980E+01  8.66953602162E+01  4.75000000000E+00  0.00000000000E+00  1.
</event>
<event>
 7   0   1.0000000E+00   6.2500666E+01   7.8125000E-03   1.3828914E-01
       21   -1    0    0  501  502  0.00000000000E+00  0.00000000000E+00  5.47446235130E+01  5.47446235130E+01  0.00000000000E+00  0.00000000000E+00  1.
       21   -1    0    0  502  501  0.00000000000E+00  0.00000000000E+00 -7.13555598897E+01  7.13555598897E+01  0.00000000000E+00  0.00000000000E+00  1.
       25    2    1    2    0    0 -8.88178419700E-16 -5.55111512313E-17 -1.66109363767E+01  1.26100183403E+02  1.25001332180E+02  0.00000000000E+00  1.
       23    2    3    3    0    0 -7.70578936823E+00 -4.97337752419E-01 -3.31757735087E+01  1.07823959399E+02  1.02302237209E+02  0.00000000000E+00  1.
       22    1    3    3    0    0  7.70578936823E+00  4.97337752419E-01  1.65648371320E+01  1.82762240038E+01  0.00000000000E+00  0.00000000000E+00  1.
        1    1    4    4  803    0 -5.28476475495E+01  1.43320170405E+01 -2.20088551001E+01  5.90141532057E+01  1.03924249257E-06  0.00000000000E+00  1.
       -1    1    4    4    0  803  4.51418581813E+01 -1.48293547930E+01 -1.11669184086E+01  4.88098063932E+01  0.00000000000E+00  0.00000000000E+00  1.
</event>
<event>
 7   0   1.0000000E+00   6.2499876E+01   7.8125000E-03   1.3828943E-01
       21   -1    0    0  501  502  0.00000000000E+00  0.00000000000E+00  4.58335783864E+01  4.58335783864E+01  0.00000000000E+00  0.00000000000E+00  1.
       21   -1    0    0  502  501  0.00000000000E+00  0.00000000000E+00 -8.52264775669E+01  8.52264775669E+01  0.00000000000E+00  0.00000000000E+00  1.
       25    2    1    2    0    0  0.00000000000E+00  0.00000000000E+00 -3.93928991805E+01  1.31060055953E+02  1.24999751042E+02  0.00000000000E+00  1.
       23    2    3    3    0    0 -1.66951069213E+01 -2.37311616245E+01 -2.50419950081E+01  9.86896516041E+01  9.09431206446E+01  0.00000000000E+00  1.
       22    1    3    3    0    0  1.66951069213E+01  2.37311616245E+01 -1.43509041723E+01  3.23704043492E+01  0.00000000000E+00  0.00000000000E+00  1.
        1    1    4    4  803    0 -6.01225303733E+00 -5.05826661593E+01  1.13812669506E+01  5.21946984876E+01  1.14341533740E-06  0.00000000000E+00  1.
       -1    1    4    4    0  803 -1.06828538840E+01  2.68515045348E+01 -3.64232619588E+01  4.64949532165E+01  0.00000000000E+00  0.00000000000E+00  1.
</event>
<event>
 7   0   1.0000000E+00   6.2501726E+01   7.8125000E-03   1.3828874E-01
       21   -1    0    0  501  502  0.00000000000E+00  0.00000000000E+00  1.14868135973E+02  1.14868135973E+02  0.00000000000E+00  0.00000000000E+00  1.
       21   -1    0    0  502  501  0.00000000000E+00  0.00000000000E+00 -3.40082622717E+01  3.40082622717E+01  0.00000000000E+00  0.00000000000E+00  1.
       25    2    1    2    0    0 -3.55271367880E-15  3.55271367880E-15  8.08598737015E+01  1.48876398245E+02  1.25003451070E+02  0.00000000000E+00  1.
       23    2    3    3    0    0 -2.55547642094E+01  3.09244179019E+01  3.66423307063E+01  8.91724896216E+01  7.07086056244E+01  0.00000000000E+00  1.
       22    1    3    3    0    0  2.55547642094E+01 -3.09244179019E+01  4.42175429951E+01  5.97039086233E+01  0.00000000000E+00  0.00000000000E+00  1.
        5    1    4    4  803    0  1.71418836258E+00  4.32599199604E+01  3.94168614243E+01  5.87418980053E+01  4.75000000000E+00  0.00000000000E+00  1.
       -5    1    4    4    0  803 -2.72689525720E+01 -1.23355020586E+01 -2.77453071794E+00  3.04305916162E+01  4.75000000000E+00  0.00000000000E+00  1.
</event>
<event>
 7   0   1.0000000E+00   6.2499906E+01   7.8125000E-03   1.3828942E-01
       21   -1    0    0  501  502  0.00000000000E+00  0.00000000000E+00  2.24858465976E+01  2.24858465976E+01  0.00000000000E+00  0.00000000000E+00  1.
       21   -1    0    0  502  501  0.00000000000E+00  0.00000000000E+00 -1.73719867071E+02  1.73719867071E+02  0.00000000000E+00  0.00000000000E+00  1.
       25    2    1    2    0    0  0.00000000000E+00  3.55271367880E-15 -1.51234020474E+02  1.96205713669E+02  1.24999812511E+02  0.00000000000E+00  1.
       23    2    3    3    0    0 -1.69301830144E+01  2.31692204322E+01 -9.98489785335E+01  1.37351092716E+02  8.98446452702E+01  0.00000000000E+00  1.
       22    1    3    3    0    0  1.69301830144E+01 -2.31692204322E+01 -5.13850419401E+01  5.88546209530E+01  0.00000000000E+00  0.00000000000E+00  1.
        5    1    4    4  803    0 -1.34407897925E+01 -1.64209180777E+01  7.32549824389E+00  2.29461719091E+01  4.75000000000E+00  0.00000000000E+00  1.
       -5    1    4    4    0  803 -3.48939322186E+00  3.95901385099E+01 -1.07174476777E+02  1.14404920807E+02  4.75000000000E+00  0.00000000000E+00  1.
</event>
<event>
 7   0   1.0000000E+00   6.2500396E+01   7.8125000E-03   1.3828924E-01
       21   -1    0    0  501  502  0.00000000000E+00  0.00000000000E+00  2.72374025926E+01  2.72374025926E+01  0.00000000000E+00  0.00000000000E+00  1.
       21   -1    0    0  502  501  0.00000000000E+00  0.00000000000E+00 -1.43416739948E+02  1.43416739948E+02  0.00000000000E+00  0.00000000000E+00  1.
       25    2    1    2    0    0  8.88178419700E-16  0.00000000000E+00 -1.16179337355E+02  1.70654142540E+02  1.25000791749E+02  0.00000000000E+00  1.
       23    2    3    3    0    0 -7.33100977198E+00 -3.65861251964E+01  8.93758908256E+00  4.00917683954E+01  1.16267421620E+01  0.00000000000E+00  1.
       22    1    3    3    0    0  7.33100977198E+00  3.65861251964E+01 -1.25116926437E+02  1.30562374145E+02  0.00000000000E+00  0.00000000000E+00  1.
       11    1    4    4    0    0  8.18716064452E-02  8.83193314371E-01  1.78932883184E-01  9.04848400727E-01  5.11000554442E-04  0.00000000000E+00  1.
      -11    1    4    4    0    0 -7.41288137842E+00 -3.74693185108E+01  8.75865619938E+00  3.91869199947E+01  5.11000669545E-04  0.00000000000E+00  1.
</event>
<event>
 7   0   1.0000000E+00   6.2497344E+01   7.8125000E-03   1.3829038E-01
       21   -1    0    0  501  502  0.00000000000E+00  0.00000000000E+00  5.06692257690E+02  5.06692257690E+02  0.00000000000E+00  0.00000000000E+00  1.
       21   -1    0    0  502  501  0.00000000000E+00  0.00000000000E+00 -7.70865932022E+00  7.70865932022E+00  0.00000000000E+00  0.00000000000E+00  1.
       25    2    1    2    0    0 -4.21884749358E-15  0.00000000000E+00  4.98983598370E+02  5.14400917010E+02  1.24994687803E+02  0.00000000000E+00  1.
       23    2    3    3    0    0 -8.38099744852E-01  2.06945780241E+01  4.72354763020E+02  4.80665729996E+02  8.65537629134E+01  0.00000000000E+00  1.
       22    1    3    3    0    0  8.38099744852E-01 -2.06945780241E+01  2.66288353499E+01  3.37351870140E+01  0.00000000000E+00  0.00000000000E+00  1.
        1    1    4    4  803    0 -1.79182842617E+01 -1.47796066621E+01  3.80444226334E+01  4.45744297371E+01  4.31794411570E-06  0.00000000000E+00  1.
       -1    1    4    4    0  803  1.70801845168E+01  3.54741846861E+01  4.34310340386E+02  4.36091300459E+02  5.39479660939E-06  0.00000000000E+00  1.
</event>
<event>
 7   0   1.0000000E+00   6.2504474E+01   7.8125000E-03   1.3828772E-01
       21   -1    0    0  501  502  0.00000000000E+00  0.00000000000E+00  4.57802101541E+01  4.57802101541E+01  0.00000000000E+00  0.00000000000E+00  1.
       21   -1    0    0  502  501  0.00000000000E+00  0.00000000000E+00 -8.53383857008E+01  8.53383857008E+01  0.00000000000E+00  0.00000000000E+00  1.
       25    2    1    2    0    0 -3.55271367880E-15  0.00000000000E+00 -3.95581755467E+01  1.31118595855E+02  1.25008947385E+02  0.00000000000E+00  1.
       23    2    3    3    0    0  1.25590773132E+01  3.06075624864E+01 -2.96998123296E+01  9.65969992864E+01  8.57574959663E+01  0.00000000000E+00  1.
       22    1    3    3    0    0 -1.25590773132E+01 -3.06075624864E+01 -9.85836321713E+00  3.45215965685E+01  0.00000000000E+00  0.00000000000E+00  1.
       12    1    4    4    0    0  4.63226984292E+01  1.75842391639E+01 -3.40912829140E+01  6.01432742664E+01  1.65181236989E-06  0.00000000000E+00  1.
      -12    1    4    4    0    0 -3.37636211160E+01  1.30233233226E+01  4.39147058442E+00  3.64537252200E+01  1.80789838887E-06  0.00000000000E+00  1.
</event>
<event>
 7   0   1.0000000E+00   6.2504338E+01   7.8125000E-03   1.3828777E-01
       21   -1    0    0  501  502  0.00000000000E+00  0.00000000000E+00  1.52415375277E+01  1.52415375277E+01  0.00000000000E+00  0.00000000000E+00  1.
       21   -1    0    0  502  501  0.00000000000E+00  0.00000000000E+00 -2.56325339335E+02  2.56325339335E+02  0.00000000000E+00  0.00000000000E+00  1.
       25    2    1    2    0    0 -5.32907051820E-15 -7.10542735760E-15 -2.41083801807E+02  2.71566876862E+02  1.25008676159E+02  0.00000000000E+00  1.
       23    2    3    3    0    0  1.29126487118E+01  1.64537495165E+01 -1.41909144998E+02  1.70210698348E+02  9.16297660592E+01  0.00000000000E+00  1.
       22    1    3    3    0    0 -1.29126487118E+01 -1.64537495165E+01 -9.91746568087E+01  1.01356178514E+02  0.00000000000E+00  0.00000000000E+00  1.
        3    1    4    4  803    0  4.41065204838E+01 -1.39727095334E+01 -4.79140632811E+01  6.66061500238E+01  1.78416127528E-06  0.00000000000E+00  1.
       -3    1    4    4    0  803 -3.11938717719E+01  3.04264590499E+01 -9.39950817171E+01  1.03604548324E+02  1.34869915235E-06  0.00000000000E+00  1.
</event>
<event>
 7   0   1.0000000E+00   6.2499387E+01   7.8125000E-03   1.3828961E-01
       21   -1    0    0  501  502  0.00000000000E+00  0.00000000000E+00  1.08621113606E+01  1.08621113606E+01  0.00000000000E+00  0.00000000000E+00  1.
       21   -1    0    0  502  501  0.00000000000E+00  0.00000000000E+00 -3.59614561552E+02  3.59614561552E+02  0.00000000000E+00  0.00000000000E+00  1.
       25    2    1    2    0    0  3.55271367880E-15  1.38777878078E-16 -3.48752450191E+02  3.70476672912E+02  1.24998774625E+02  0.00000000000E+00  1.
       23    2    3    3    0    0 -2.66692399613E+01  1.04776826645E-01 -2.43446672904E+02  2.61846262491E+02  9.26602573602E+01  0.00000000000E+00  1.
       22    1    3    3    0    0  2.66692399613E+01 -1.04776826645E-01 -1.05305777287E+02  1.08630410421E+02  0.00000000000E+00  0.00000000000E+00  1.
        3    1    4    4  803    0 -4.73366862952E+01 -5.67557239585E-01 -2.34644605915E+02  2.39372461080E+02  2.69739830470E-06  0.00000000000E+00  1.
       -3    1    4    4    0  803  2.06674463339E+01  6.72334066230E-01 -8.80206698888E+00  2.24738016106E+01  1.26721213016E-06  0.00000000000E+00  1.
</event>
<event>
 7   0   1.0000000E+00   6.2499535E+01   7.8125000E-03   1.3828956E-01
       21   -1    0    0  501  502  0.00000000000E+00  0.00000000000E+00  3.56615728215E+01  3.56615728215E+01  0.00000000000E+00  0.00000000000E+00  1.
       21   -1    0    0  502  501  0.00000000000E+00  0.00000000000E+00 -1.09535042518E+02  1.09535042518E+02  0.00000000000E+00  0.00000000000E+00  1.
       25    2    1    2    0    0 -1.77635683940E-15  0.00000000000E+00 -7.38734696964E+01  1.45196615339E+02  1.24999070321E+02  0.00000000000E+00  1.
       23    2    3    3    0    0 -8.03232830473E+00  2.80165783045E+01 -5.33561376077E+01  1.09553833827E+02  9.11357126923E+01  0.00000000000E+00  1.
       22    1    3    3    0    0  8.03232830473E+00 -2.80165783045E+01 -2.05173320887E+01  3.56427815122E+01  0.00000000000E+00  0.00000000000E+00  1.
       13    1    4    4    0    0 -1.33610200230E+01  4.27615910846E+01 -7.22433585941E+01  8.50069676740E+01  1.05660000000E-01  0.00000000000E+00  1.
      -13    1    4    4    0    0  5.32869171829E+00 -1.47450127802E+01  1.88872209864E+01  2.45468661531E+01  1.05660000014E-01  0.00000000000E+00  1.
</event>
<event>
 7   0   1.0000000E+00   6.2498500E+01   7.8125000E-03   1.3828995E-01
       21   -1    0    0  501  502  0.00000000000E+00  0.00000000000E+00  3.50471816550E+02  3.50471816550E+02  0.00000000000E+00  0.00000000000E+00  1.
       21   -1    0    0  502  501  0.00000000000E+00  0.00000000000E+00 -1.11451544645E+01  1.11451544645E+01  0.00000000000E+00  0.00000000000E+00  1.
       25    2    1    2    0    0 -7.10542735760E-15  1.77635683940E-15  3.39326662086E+02  3.61616971015E+02  1.24997000458E+02  0.00000000000E+00  1.
       23    2    3    3    0    0  2.58162602997E+01 -8.63080340623E+00  2.47367099574E+02  2.65713210918E+02  9.31238875987E+01  0.00000000000E+00  1.
       22    1    3    3    0    0 -2.58162602997E+01  8.63080340623E+00  9.19595625122E+01  9.59037600969E+01  0.00000000000E+00  0.00000000000E+00  1.
        1    1    4    4  803    0  4.47066674634E+01 -1.30958377854E+01  2.40734344609E+02  2.45200350239E+02  2.69739830470E-06  0.00000000000E+00  1.
       -1    1    4    4    0  803 -1.88904071636E+01  4.46503437913E+00  6.63275496478E+00  2.05128606790E+01  1.77016763746E-06  0.00000000000E+00  1.
</event>
<event>
 7   0   1.0000000E+00   6.2494435E+01   7.8125000E-03   1.3829146E-01
       21   -1    0    0  501  502  0.00000000000E+00  0.00000000000E+00  2.84297140492E+01  2.84297140492E+01  0.00000000000E+00  0.00000000000E+00  1.
       21   -1    0    0  502  501  0.00000000000E+00  0.00000000000E+00 -1.37375788092E+02  1.37375788092E+02  0.00000000000E+00  0.00000000000E+00  1.
       25    2    1    2    0    0 -2.66453525910E-15  7.10542735760E-15 -1.08946074043E+02  1.65805502142E+02  1.24988869469E+02  0.00000000000E+00  1.
       23    2    3    3    0    0  1.01312052717E+00 -3.03867155829E+01 -7.54522440388E+01  1.20570388066E+02  8.89932494668E+01  0.00000000000E+00  1.
       22    1    3    3    0    0 -1.01312052717E+00  3.03867155829E+01 -3.34938300044E+01  4.52351140762E+01  0.00000000000E+00  0.00000000000E+00  1.
        5    1    4    4  803    0  1.60246825936E+01  2.84497953182E+01 -2.34004111283E+01  4.04514900449E+01  4.75000000000E+00  0.00000000000E+00  1.
       -5    1    4    4    0  803 -1.50115620665E+01 -5.88365109012E+01 -5.20518329105E+01  8.01188980207E+01  4.75000000000E+00  0.00000000000E+00  1.
</event>
<event>
 7   0   1.0000000E+00   6.2499175E+01   7.8125000E-03   1.3828969E-01
       21   -1    0    0  501  502  0.00000000000E+00  0.00000000000E+00  2.32021150426E+01  2.32021150426E+01  0.00000000000E+00  0.00000000000E+00  1.
       21   -1    0    0  502  501  0.00000000000E+00  0.00000000000E+00 -1.68353053949E+02  1.68353053949E+02  0.00000000000E+00  0.00000000000E+00  1.
       25    2    1    2    0    0  0.00000000000E+00  0.00000000000E+00 -1.45150938906E+02  1.91555168992E+02  1.24998350797E+02  0.00000000000E+00  1.
       23    2    3    3    0    0 -5.46099209233E+01 -2.64867277906E+01 -5.12387089879E+01  7.97370258279E+01  6.98554055386E+00  0.00000000000E+00  1.
       22    1    3    3    0    0  5.46099209233E+01  2.64867277906E+01 -9.39122299186E+01  1.11818143164E+02  0.00000000000E+00  0.00000000000E+00  1.
       15    1    4    4    0    0 -2.03455544368E+01 -1.23270735720E+01 -2.25338574869E+01  3.28150892071E+01  1.77680000000E+00  0.00000000000E+00  1.
      -15    1    4    4    0    0 -3.42643664865E+01 -1.41596542186E+01 -2.87048515010E+01  4.69219366208E+01  1.77680000000E+00  0.00000000000E+00  1.
</event>
<event>
 7   0   1.0000000E+00   6.2500080E+01   7.8125000E-03   1.3828936E-01
       21   -1    0    0  501  502  0.00000000000E+00  0.00000000000E+00  1.41717475008E+02  1.41717475008E+02  0.00000000000E+00  0.00000000000E+00  1.
       21   -1    0    0  502  501  0.00000000000E+00  0.00000000000E+00 -2.75637146738E+01  2.75637146738E+01  0.00000000000E+00  0.00000000000E+00  1.
       25    2    1    2    0    0 -1.42108547152E-14  0.00000000000E+00  1.14153760334E+02  1.69281189682E+02  1.25000160726E+02  0.00000000000E+00  1.
       23    2    3    3    0    0 -4.91130473550E+01 -1.73151526591E+01  2.59928091302E+01  6.68885178283E+01  3.29627328764E+01  0.00000000000E+00  1.
       22    1    3    3    0    0  4.91130473550E+01  1.73151526591E+01  8.81609512036E+01  1.02392671853E+02  0.00000000000E+00  0.00000000000E+00  1.
       13    1    4    4    0    0 -2.48407703608E+01 -2.41156303486E+00  2.89844142008E+01  3.82490122615E+01  1.05660000000E-01  0.00000000000E+00  1.
      -13    1    4    4    0    0 -2.42722769943E+01 -1.49035896243E+01 -2.99160507053E+00  2.86395055668E+01  1.05659999999E-01  0.00000000000E+00  1.
</event>
<event>
 7   0   1.0000000E+00   6.2499338E+01   7.8125000E-03   1.3828963E-01
       21   -1    0    0  501  502  0.00000000000E+00  0.00000000000E+00  9.90822787913E+01  9.90822787913E+01  0.00000000000E+00  0.00000000000E+00  1.
       21   -1    0    0  502  501  0.00000000000E+00  0.00000000000E+00 -3.94234704536E+01  3.94234704536E+01  0.00000000000E+00  0.00000000000E+00  1.
       25    2    1    2    0    0  1.24344978758E-14 -3.55271367880E-15  5.96588083377E+01  1.38505749245E+02  1.24998676639E+02  0.00000000000E+00  1.
       23    2    3    3    0    0  1.08843535410E+01  2.22091582772E+01  6.32256500208E+01  1.13516987311E+02  9.09775121899E+01  0.00000000000E+00  1.
       22    1    3    3    0    0 -1.08843535410E+01 -2.22091582772E+01 -3.56684168307E+00  2.49887619337E+01  0.00000000000E+00  0.00000000000E+00  1.
        5    1    4    4  803    0 -3.31824119785E+01  3.37420716259E+01  2.42928365808E+01  5.34069683792E+01  4.75000000000E+00  0.00000000000E+00  1.
       -5    1    4    4    0  803  4.40667655194E+01 -1.15329133487E+01  3.89328134400E+01  6.01100189320E+01  4.75000000000E+00  0.00000000000E+00  1.
</event>
<event>
 7   0   1.0000000E+00   6.2488978E+01   7.8125000E-03   1.3829350E-01
       21   -1    0    0  501  502  0.00000000000E+00  0.00000000000E+00  2.27396103809E+02  2.27396103809E+02  0.00000000000E+00  0.00000000000E+00  1.
       21   -1    0    0  502  501  0.00000000000E+00  0.00000000000E+00 -1.71721166496E+01  1.71721166496E+01  0.00000000000E+00  0.00000000000E+00  1.
       25    2    1    2    0    0  3.55271367880E-15  3.55271367880E-15  2.10223987159E+02  2.44568220458E+02  1.24977956781E+02  0.00000000000E+00  1.
       23    2    3    3    0    0  2.59251893053E+01  1.41108950961E+01  1.49064515006E+02  1.76658619996E+02  9.00933159781E+01  0.00000000000E+00  1.
       22    1    3    3    0    0 -2.59251893053E+01 -1.41108950961E+01  6.11594721527E+01  6.79096004621E+01  0.00000000000E+00  0.00000000000E+00  1.
        5    1    4    4  803    0  9.45319552437E+00  1.62564886110E+01  1.56609533328E+02  1.57806035236E+02  4.75000000000E+00  0.00000000000E+00  1.
       -5    1    4    4    0  803  1.64719937810E+01 -2.14559351496E+00 -7.54501832214E+00  1.88525847600E+01  4.75000000000E+00  0.00000000000E+00  1.
</event>
<event>
 7   0   1.0000000E+00   6.2502567E+01   7.8125000E-03   1.3828843E-01
       21   -1    0    0  501  502  0.00000000000E+00  0.00000000000E+00  6.02383586214E+02  6.02383586214E+02  0.00000000000E+00  0.00000000000E+00  1.
       21   -1    0    0  502  501  0.00000000000E+00  0.00000000000E+00 -6.48518812409E+00  6.48518812409E+00  0.00000000000E+00  0.00000000000E+00  1.
       25    2    1    2    0    0 -1.77635683940E-15  3.55271367880E-15  5.95898398090E+02  6.08868774338E+02  1.25005133966E+02  0.00000000000E+00  1.
       23    2    3    3    0    0  1.26350471373E+01  2.36857722444E+01  4.85765159453E+02  4.95510975861E+02  9.40355083843E+01  0.00000000000E+00  1.
       22    1    3    3    0    0 -1.26350471373E+01 -2.36857722444E+01  1.10133238637E+02  1.13357798477E+02  0.00000000000E+00  0.00000000000E+00  1.
        4    1    4    4  803    0  1.76952676585E+01  5.75352674324E+01  3.67002035321E+02  3.71907984655E+02  1.27499999997E+00  0.00000000000E+00  1.
       -4    1    4    4    0  803 -5.06022052115E+00 -3.38494951880E+01  1.18763124133E+02  1.23602991206E+02  1.27500000000E+00  0.00000000000E+00  1.
</event>
<event>
 7   0   1.0000000E+00   6.2500155E+01   7.8125000E-03   1.3828933E-01
       21   -1    0    0  501  502  0.00000000000E+00  0.00000000000E+00  7.21719739111E+02  7.21719739111E+02  0.00000000000E+00  0.00000000000E+00  1.
       21   -1    0    0  502  501  0.00000000000E+00  0.00000000000E+00 -5.41244640482E+00  5.41244640482E+00  0.00000000000E+00  0.00000000000E+00  1.
       25    2    1    2    0    0  1.77635683940E-15  7.32747196253E-15  7.16307292706E+02  7.27132185515E+02  1.25000310515E+02  0.00000000000E+00  1.
       23    2    3    3    0    0  1.05613410537E+01 -5.94190815779E-01  7.08354739136E+02  7.13898210456E+02  8.81607818086E+01  0.00000000000E+00  1.
       22    1    3    3    0    0 -1.05613410537E+01  5.94190815779E-01  7.95255356991E+00  1.32339750590E+01  0.00000000000E+00  0.00000000000E+00  1.
       15    1    4    4    0    0  2.26388201617E+01  3.76702969657E+01  2.54812084769E+02  2.58580592880E+02  1.77679999999E+00  0.00000000000E+00  1.
      -15    1    4    4    0    0 -1.20774791079E+01 -3.82644877815E+01  4.53542654367E+02  4.55317617576E+02  1.77680000003E+00  0.00000000000E+00  1.
</event>
<event>
 7   0   1.0000000E+00   6.2499120E+01   7.8125000E-03   1.3828971E-01
       21   -1    0    0  501  502  0.00000000000E+00  0.00000000000E+00  2.34386578039E+01  2.34386578039E+01  0.00000000000E+00  0.00000000000E+00  1.
       21   -1    0    0  502  501  0.00000000000E+00  0.00000000000E+00 -1.66653741942E+02  1.66653741942E+02  0.00000000000E+00  0.00000000000E+00  1.
       25    2    1    2    0    0  3.55271367880E-15  3.55271367880E-15 -1.43215084138E+02  1.90092399746E+02  1.24998240453E+02  0.00000000000E+00  1.
       23    2    3    3    0    0 -2.80972847168E+01 -2.50043834755E+01  3.15303552349E+00  3.89689301764E+01  9.69325975280E+00  0.00000000000E+00  1.
       22    1    3    3    0    0  2.80972847168E+01  2.50043834755E+01 -1.46368119661E+02  1.51123469569E+02  0.00000000000E+00  0.00000000000E+00  1.
        4    1    4    4  803    0 -2.35868270491E+01 -2.26475378970E+01 -2.32439152145E-01  3.27250521161E+01  1.27500000000E+00  0.00000000000E+00  1.
       -4    1    4    4    0  803 -4.51045766766E+00 -2.35684557848E+00  3.38547467563E+00  6.24387806031E+00  1.27500000000E+00  0.00000000000E+00  1.
</event>
<event>
 7   0   1.0000000E+00   6.2501119E+01   7.8125000E-03   1.3828897E-01
       21   -1    0    0  501  502  0.00000000000E+00  0.00000000000E+00  4.27257663000E+01  4.27257663000E+01  0.00000000000E+00  0.00000000000E+00  1.
       21   -1    0    0  502  501  0.00000000000E+00  0.00000000000E+00 -9.14293683699E+01  9.14293683699E+01  0.00000000000E+00  0.00000000000E+00  1.
       25    2    1    2    0    0  0.00000000000E+00 -7.10542735760E-15 -4.87036020699E+01  1.34155134670E+02  1.25002237195E+02  0.00000000000E+00  1.
       23    2    3    3    0    0  1.10971749438E+01  4.79490831017E+01  1.64712497651E+01  5.24849248396E+01  7.81686667241E+00  0.00000000000E+00  1.
       22    1    3    3    0    0 -1.10971749438E+01 -4.79490831017E+01 -6.51748518349E+01  8.16702098303E+01  0.00000000000E+00  0.00000000000E+00  1.
        2    1    4    4  803    0  2.54443607543E+00  2.34435330857E+01  1.07031379708E+01  2.58965357931E+01  0.00000000000E+00  0.00000000000E+00  1.
       -2    1    4    4    0  803  8.55273886834E+00  2.45055500160E+01  5.76811179424E+00  2.65883892465E+01  0.00000000000E+00  0.00000000000E+00  1.
</event>
<event>
 7   0   1.0000000E+00   6.2500045E+01   7.8125000E-03   1.3828937E-01
       21   -1    0    0  501  502  0.00000000000E+00  0.00000000000E+00  8.76544110631E+00  8.76544110631E+00  0.00000000000E+00  0.00000000000E+00  1.
       21   -1    0    0  502  501  0.00000000000E+00  0.00000000000E+00 -4.45642793004E+02  4.45642793004E+02  0.00000000000E+00  0.00000000000E+00  1.
       25    2    1    2    0    0  0.00000000000E+00 -7.10542735760E-15 -4.36877351897E+02  4.54408234110E+02  1.25000090504E+02  0.00000000000E+00  1.
       23    2    3    3    0    0  1.97726011443E+01 -2.11193255113E+01 -1.65834433041E+02  1.81825686010E+02  6.87207337358E+01  0.00000000000E+00  1.
       22    1    3    3    0    0 -1.97726011443E+01  2.11193255113E+01 -2.71042918857E+02  2.72582548100E+02  0.00000000000E+00  0.00000000000E+00  1.
        1    1    4    4  803    0 -4.09170351277E+00  2.34302687072E+01 -6.00427704360E+01  6.45821477729E+01  0.00000000000E+00  0.00000000000E+00  1.
       -1    1    4    4    0  803  2.38643046571E+01 -4.45495942186E+01 -1.05791662605E+02  1.17243538237E+02  0.00000000000E+00  0.00000000000E+00  1.
</event>
<event>
 7   0   1.0000000E+00   6.2500040E+01   7.8125000E-03   1.3828937E-01
       21   -1    0    0  501  502  0.00000000000E+00  0.00000000000E+00  1.24395656837E+02  1.24395656837E+02  0.00000000000E+00  0.00000000000E+00  1.
       21   -1    0    0  502  501  0.00000000000E+00  0.00000000000E+00 -3.14018604422E+01  3.14018604422E+01  0.00000000000E+00  0.00000000000E+00  1.
       25    2    1    2    0    0  3.55271367880E-15  2.66453525910E-15  9.29937963948E+01  1.55797517279E+02  1.25000080890E+02  0.00000000000E+00  1.
       23    2    3    3    0    0 -3.03493422902E+01 -6.97316022039E+00  6.40679320171E+01  1.13295597665E+02  8.80992905555E+01  0.00000000000E+00  1.
       22    1    3    3    0    0  3.03493422902E+01  6.97316022039E+00  2.89258643778E+01  4.25019196144E+01  0.00000000000E+00  0.00000000000E+00  1.
        5    1    4    4  803    0  1.47416116314E+01  2.67420554497E+01  4.56217550932E+00  3.12382552097E+01  4.75000000000E+00  0.00000000000E+00  1.
       -5    1    4    4    0  803 -4.50909539216E+01 -3.37152156701E+01  5.95057565077E+01  8.20573424552E+01  4.75000000000E+00  0.00000000000E+00  1.
</event>
<event>
 7   0   1.0000000E+00   6.2499645E+01   7.8125000E-03   1.3828952E-01
       21   -1    0    0  501  502  0.00000000000E+00  0.00000000000E+00  5.44958300581E+02  5.44958300581E+02  0.00000000000E+00  0.00000000000E+00  1.
       21   -1    0    0  502  501  0.00000000000E+00  0.00000000000E+00 -7.16789831904E+00  7.16789831904E+00  0.00000000000E+00  0.00000000000E+00  1.
       25    2    1    2    0    0  1.77635683940E-15 -7.10542735760E-15  5.37790402262E+02  5.52126198900E+02  1.24999290985E+02  0.00000000000E+00  1.
       23    2    3    3    0    0 -2.56504629933E+00 -2.33040720641E+01  4.90061508298E+02  4.98950014792E+02  9.07809237019E+01  0.00000000000E+00  1.
       22    1    3    3    0    0  2.56504629933E+00  2.33040720641E+01  4.77288939639E+01  5.31761841081E+01  0.00000000000E+00  0.00000000000E+00  1.
        3    1    4    4  803    0  1.53125962645E+01 -2.93567892840E+01  4.70868908826E+02  4.72031594261E+02  7.62939453125E-06  0.00000000000E+00  1.
       -3    1    4    4    0  803 -1.78776425638E+01  6.05271721996E+00  1.91925994715E+01  2.69184205305E+01  5.79116716456E-06  0.00000000000E+00  1.
</event>
<event>
 7   0   1.0000000E+00   6.2499189E+01   7.8125000E-03   1.3828969E-01
       21   -1    0    0  501  502  0.00000000000E+00  0.00000000000E+00  1.84710187659E+02  1.84710187659E+02  0.00000000000E+00  0.00000000000E+00  1.
       21   -1    0    0  502  501  0.00000000000E+00  0.00000000000E+00 -2.11474458205E+01  2.11474458205E+01  0.00000000000E+00  0.00000000000E+00  1.
       25    2    1    2    0    0  0.00000000000E+00 -8.88178419700E-16  1.63562741838E+02  2.05857633479E+02  1.24998378966E+02  0.00000000000E+00  1.
       23    2    3    3    0    0  1.60489024202E+01  5.23390411477E+00  7.93426844496E+01  1.19962470125E+02  8.83785700358E+01  0.00000000000E+00  1.
       22    1    3    3    0    0 -1.60489024202E+01 -5.23390411477E+00  8.42200573887E+01  8.58951633547E+01  0.00000000000E+00  0.00000000000E+00  1.
       13    1    4    4    0    0  1.48874129934E+01 -4.09596797188E+01  3.46567370427E+01  5.56815141208E+01  1.05659999996E-01  0.00000000000E+00  1.
      -13    1    4    4    0    0  1.16148942682E+00  4.61935838336E+01  4.46859474069E+01  6.42809560039E+01  1.05659999996E-01  0.00000000000E+00  1.
</event>
<event>
 7   0   1.0000000E+00   6.2500256E+01   7.8125000E-03   1.3828929E-01
       21   -1    0    0  501  502  0.00000000000E+00  0.00000000000E+00  5.60448169175E+01  5.60448169175E+01  0.00000000000E+00  0.00000000000E+00  1.
       21   -1    0    0  502  501  0.00000000000E+00  0.00000000000E+00 -6.96992559667E+01  6.96992559667E+01  0.00000000000E+00  0.00000000000E+00  1.
       25    2    1    2    0    0  0.00000000000E+00  0.00000000000E+00 -1.36544390492E+01  1.25744072884E+02  1.25000512638E+02  0.00000000000E+00  1.
       23    2    3    3    0    0 -7.53144440716E+00 -2.31980159347E+01 -2.37400098239E+01  9.93510939690E+01  9.33390658204E+01  0.00000000000E+00  1.
       22    1    3    3    0    0  7.53144440716E+00  2.31980159347E+01  1.00855707747E+01  2.63929789151E+01  0.00000000000E+00  0.00000000000E+00  1.
        1    1    4    4  803    0  2.47238294381E+01 -7.81962023328E+00  2.69061138557E+01  3.73678093145E+01  1.46971082758E-06  0.00000000000E+00  1.
       -1    1    4    4    0  803 -3.22552738453E+01 -1.53783957014E+01 -5.06461236796E+01  6.19832848545E+01  1.78416127528E-06  0.00000000000E+00  1.
</event>
<event>
 7   0   1.0000000E+00   6.2511045E+01   7.8125000E-03   1.3828526E-01
       21   -1    0    0  501  502  0.00000000000E+00  0.00000000000E+00  2.75113305839E+02  2.75113305839E+02  0.00000000000E+00  0.00000000000E+00  1.
       21   -1    0    0  502  501  0.00000000000E+00  0.00000000000E+00 -1.42037142828E+01  1.42037142828E+01  0.00000000000E+00  0.00000000000E+00  1.
       25    2    1    2    0    0 -8.88178419700E-16 -3.55271367880E-15  2.60909591556E+02  2.89317020121E+02  1.25022090713E+02  0.00000000000E+00  1.
       23    2    3    3    0    0  6.34941591604E+00  2.00413167643E+01  1.51626034337E+02  1.78029710249E+02  9.08963914722E+01  0.00000000000E+00  1.
       22    1    3    3    0    0 -6.34941591604E+00 -2.00413167643E+01  1.09283557219E+02  1.11287309872E+02  0.00000000000E+00  0.00000000000E+00  1.
        3    1    4    4  803    0  1.39525485439E+01  1.61976231733E+01 -4.35391743376E+00  2.18172684897E+01  2.23099795249E-06  0.00000000000E+00  1.
       -3    1    4    4    0  803 -7.60313262783E+00  3.84369359099E+00  1.55979951771E+02  1.56212441860E+02  1.90734863281E-06  0.00000000000E+00  1.
</event>
<event>
 7   0   1.0000000E+00   6.2500528E+01   7.8125000E-03   1.3828919E-01
       21   -1    0    0  501  502  0.00000000000E+00  0.00000000000E+00  1.22354984841E+02  1.22354984841E+02  0.00000000000E+00  0.00000000000E+00  1.
       21   -1    0    0  502  501  0.00000000000E+00  0.00000000000E+00 -3.19260876861E+01  3.19260876861E+01  0.00000000000E+00  0.00000000000E+00  1.
       25    2    1    2    0    0  3.55271367880E-15 -3.55271367880E-15  9.04288971547E+01  1.54281072527E+02  1.25001055593E+02  0.00000000000E+00  1.
       23    2    3    3    0    0  8.91489669879E+00 -2.72771018094E+01  7.04656569751E+01  1.19323289062E+02  9.19191102736E+01  0.00000000000E+00  1.
       22    1    3    3    0    0 -8.91489669879E+00  2.72771018094E+01  1.99632401795E+01  3.49577834643E+01  0.00000000000E+00  0.00000000000E+00  1.
        4    1    4    4  803    0  1.46843601353E+01 -5.92773687071E+01  3.20587660581E+01  6.89842516781E+01  1.27500000000E+00  0.00000000000E+00  1.
       -4    1    4    4    0  803 -5.76946343652E+00  3.20002668977E+01  3.84068909171E+01  5.03390373844E+01  1.27500000000E+00  0.00000000000E+00  1.
</event>
<event>
 7   0   1.0000000E+00   6.2500552E+01   7.8125000E-03   1.3828918E-01
       21   -1    0    0  501  502  0.00000000000E+00  0.00000000000E+00  1.38485014884E+02  1.38485014884E+02  0.00000000000E+00  0.00000000000E+00  1.
       21   -1    0    0  502  501  0.00000000000E+00  0.00000000000E+00 -2.82075215901E+01  2.82075215901E+01  0.00000000000E+00  0.00000000000E+00  1.
       25    2    1    2    0    0  0.00000000000E+00  0.00000000000E+00  1.10277493294E+02  1.66692536474E+02  1.25001104751E+02  0.00000000000E+00  1.
       23    2    3    3    0    0 -4.46681829962E+00 -6.19516558717E+01  4.78590146495E+01  7.86355855431E+01  5.92536070762E+00  0.00000000000E+00  1.
       22    1    3    3    0    0  4.46681829962E+00  6.19516558717E+01  6.24184786442E+01  8.80569509308E+01  0.00000000000E+00  0.00000000000E+00  1.
        2    1    4    4  803    0 -1.61380475923E+00 -1.08668552113E+01  1.12384435948E+01  1.57160912940E+01  0.00000000000E+00  0.00000000000E+00  1.
       -2    1    4    4    0  803 -2.85301354039E+00 -5.10848006603E+01  3.66205710547E+01  6.29194943490E+01  0.00000000000E+00  0.00000000000E+00  1.
</event>
<event>
 7   0   1.0000000E+00   6.2503729E+01   7.8125000E-03   1.3828799E-01
       21   -1    0    0  501  502  0.00000000000E+00  0.00000000000E+00  3.25464102637E+01  3.25464102637E+01  0.00000000000E+00  0.00000000000E+00  1.
       21   -1    0    0  502  501  0.00000000000E+00  0.00000000000E+00 -1.20035238257E+02  1.20035238257E+02  0.00000000000E+00  0.00000000000E+00  1.
       25    2    1    2    0    0  0.00000000000E+00  0.00000000000E+00 -8.74888279931E+01  1.52581648521E+02  1.25007457544E+02  0.00000000000E+00  1.
       23    2    3    3    0    0  1.87536236243E+01  5.37676551094E+01 -1.26123556022E+01  5.85117529497E+01  4.67916492590E+00  0.00000000000E+00  1.
       22    1    3    3    0    0 -1.87536236243E+01 -5.37676551094E+01 -7.48764723908E+01  9.40698955708E+01  0.00000000000E+00  0.00000000000E+00  1.
        2    1    4    4  803    0  1.56152492731E+00  3.21184837541E+00 -1.91284059441E+00  4.05133188409E+00  0.00000000000E+00  0.00000000000E+00  1.
       -2    1    4    4    0  803  1.71920986970E+01  5.05558067340E+01 -1.06995150078E+01  5.44604212656E+01  0.00000000000E+00  0.00000000000E+00  1.
</event>
<event>
 7   0   1.0000000E+00   6.2500783E+01   7.8125000E-03   1.3828909E-01
       21   -1    0    0  501  502  0.00000000000E+00  0.00000000000E+00  9.95159824063E+01  9.95159824063E+01  0.00000000000E+00  0.00000000000E+00  1.
       21   -1    0    0  502  501  0.00000000000E+00  0.00000000000E+00 -3.92534723908E+01  3.92534723908E+01  0.00000000000E+00  0.00000000000E+00  1.
       25    2    1    2    0    0  7.10542735760E-15  8.88178419700E-16  6.02625100154E+01  1.38769454797E+02  1.25001565875E+02  0.00000000000E+00  1.
       23    2    3    3    0    0 -2.84959654019E+01 -6.68775373356E+00  5.87124585515E+01  1.09458215422E+02  8.76196441440E+01  0.00000000000E+00  1.
       22    1    3    3    0    0  2.84959654019E+01  6.68775373356E+00  1.55005146396E+00  2.93112393755E+01  0.00000000000E+00  0.00000000000E+00  1.
        1    1    4    4  803    0 -5.96017338903E+01  3.08795611524E+00  4.02861528790E+01  7.20060850476E+01  1.84678237257E-06  0.00000000000E+00  1.
       -1    1    4    4    0  803  3.11057684884E+01 -9.77570984880E+00  1.84263056725E+01  3.74521305739E+01  1.43051147461E-06  0.00000000000E+00  1.
</event>
<event>
 7   0   1.0000000E+00   6.2500258E+01   7.8125000E-03   1.3828929E-01
       21   -1    0    0  501  502  0.00000000000E+00  0.00000000000E+00  1.80123310478E+01  1.80123310478E+01  0.00000000000E+00  0.00000000000E+00  1.
       21   -1    0    0  502  501  0.00000000000E+00  0.00000000000E+00 -2.16867110790E+02  2.16867110790E+02  0.00000000000E+00  0.00000000000E+00  1.
       25    2    1    2    0    0 -3.55271367880E-15  1.77635683940E-15 -1.98854779742E+02  2.34879441838E+02  1.25000515086E+02  0.00000000000E+00  1.
       23    2    3    3    0    0 -1.71375308454E+01  1.41606002979E+01 -1.88363329125E+02  2.10297169764E+02  9.08291709047E+01  0.00000000000E+00  1.
       22    1    3    3    0    0  1.71375308454E+01 -1.41606002979E+01 -1.04914506169E+01  2.45822720740E+01  0.00000000000E+00  0.00000000000E+00  1.
        3    1    4    4  803    0 -2.19402660287E+01 -6.56615643830E+00 -1.87615502965E+02  1.89008112721E+02  3.81469726562E-06  0.00000000000E+00  1.
       -3    1    4    4    0  803  4.80273518331E+00  2.07267567362E+01 -7.47826159836E-01  2.12890572423E+01  4.04516441141E-06  0.00000000000E+00  1.
</event>
<event>
 7   0   1.0000000E+00   6.2502230E+01   7.8125000E-03   1.3828855E-01
       21   -1    0    0  501  502  0.00000000000E+00  0.00000000000E+00  2.71115100994E+01  2.71115100994E+01  0.00000000000E+00  0.00000000000E+00  1.
       21   -1    0    0  502  501  0.00000000000E+00  0.00000000000E+00 -1.44091154243E+02  1.44091154243E+02  0.00000000000E+00  0.00000000000E+00  1.
       25    2    1    2    0    0  3.55271367880E-15  5.32907051820E-15 -1.16979644144E+02  1.71202664343E+02  1.25004460456E+02  0.00000000000E+00  1.
       23    2    3    3    0    0  2.82279478268E+01  8.94830194152E+00 -8.56680597918E+01  1.28106209027E+02  9.05278696126E+01  0.00000000000E+00  1.
       22    1    3    3    0    0 -2.82279478268E+01 -8.94830194152E+00 -3.13115843518E+01  4.30964553156E+01  0.00000000000E+00  0.00000000000E+00  1.
        2    1    4    4  803    0  2.34933463500E+01 -2.09684282849E+01  5.56392133266E+00  3.19776410646E+01  0.00000000000E+00  0.00000000000E+00  1.
       -2    1    4    4    0  803  4.73460147678E+00  2.99167302264E+01 -9.12319811245E+01  9.61285679623E+01  1.34869915235E-06  0.00000000000E+00  1.
</event>
<event>
 7   0   1.0000000E+00   6.2499025E+01   7.8125000E-03   1.3828975E-01
       21   -1    0    0  501  502  0.00000000000E+00  0.00000000000E+00  1.85746924904E+01  1.85746924904E+01  0.00000000000E+00  0.00000000000E+00  1.
       21   -1    0    0  502  501  0.00000000000E+00  0.00000000000E+00 -2.10293016568E+02  2.10293016568E+02  0.00000000000E+00  0.00000000000E+00  1.
       25    2    1    2    0    0  0.00000000000E+00 -7.10542735760E-15 -1.91718324077E+02  2.28867709058E+02  1.24998049835E+02  0.00000000000E+00  1.
       23    2    3    3    0    0 -3.43886653917E+01 -4.24802591623E+01 -1.51143528579E+02  1.60798136152E+02  4.95193221337E+00  0.00000000000E+00  1.
       22    1    3    3    0    0  3.43886653917E+01  4.24802591623E+01 -4.05747954980E+01  6.80695729061E+01  0.00000000000E+00  0.00000000000E+00  1.
       13    1    4    4    0    0 -1.75098955898E+00 -8.80146934506E-01 -4.35642864812E+00  4.77810188922E+00  1.05659999987E-01  0.00000000000E+00  1.
      -13    1    4    4    0    0 -3.26376758328E+01 -4.16001122278E+01 -1.46787099931E+02  1.56020034263E+02  1.05659999987E-01  0.00000000000E+00  1.
</event>
<event>
 7   0   1.0000000E+00   6.2497309E+01   7.8125000E-03   1.3829039E-01
       21   -1    0    0  501  502  0.00000000000E+00  0.00000000000E+00  7.84260396495E+01  7.84260396495E+01  0.00000000000E+00  0.00000000000E+00  1.
       21   -1    0    0  502  501  0.00000000000E+00  0.00000000000E+00 -4.98037852289E+01  4.98037852289E+01  0.00000000000E+00  0.00000000000E+00  1.
       25    2    1    2    0    0 -2.22044604925E-15 -1.77635683940E-15  2.86222544205E+01  1.28229824878E+02  1.24994618045E+02  0.00000000000E+00  1.
       23    2    3    3    0    0 -3.65763432223E+00  1.01966023270E+01  3.32621186829E+00  1.00711853357E+02  1.00072297532E+02  0.00000000000E+00  1.
       22    1    3    3    0    0  3.65763432223E+00 -1.01966023270E+01  2.52960425522E+01  2.75179715214E+01  0.00000000000E+00  0.00000000000E+00  1.
        1    1    4    4  803    0  1.72199453401E+01  1.14969560074E+01 -4.41871531808E+01  4.87976539491E+01  0.00000000000E+00  0.00000000000E+00  1.
       -1    1    4    4    0  803 -2.08775796623E+01 -1.30035368032E+00  4.75133650491E+01  5.19141996078E+01  1.50789149292E-06  0.00000000000E+00  1.
</event>
<event>
 7   0   1.0000000E+00   6.2501027E+01   7.8125000E-03   1.3828900E-01
       21   -1    0    0  501  502  0.00000000000E+00  0.00000000000E+00  6.73423297610E+01  6.73423297610E+01  0.00000000000E+00  0.00000000000E+00  1.
       21   -1    0    0  502  501  0.00000000000E+00  0.00000000000E+00 -5.80077709234E+01  5.80077709234E+01  0.00000000000E+00  0.00000000000E+00  1.
       25    2    1    2    0    0  5.32907051820E-15  0.00000000000E+00  9.33455883760E+00  1.25350100684E+02  1.25002054995E+02  0.00000000000E+00  1.
       23    2    3    3    0    0  6.18787396624E+00 -1.90525971458E+01 -1.53547838530E+01  9.35561565328E+01  9.00871455636E+01  0.00000000000E+00  1.
       22    1    3    3    0    0 -6.18787396624E+00  1.90525971458E+01  2.46893426906E+01  3.17939441516E+01  0.00000000000E+00  0.00000000000E+00  1.
        3    1    4    4  803    0  3.36753719043E+01 -3.81653827014E+01 -2.76097298786E+01  5.79044410526E+01  1.34869915235E-06  0.00000000000E+00  1.
       -3    1    4    4    0  803 -2.74874979380E+01  1.91127855557E+01  1.22549460257E+01  3.56517154802E+01  1.39020726558E-06  0.00000000000E+00  1.
</event>
<event>
 7   0   1.0000000E+00   6.2482821E+01   7.8125000E-03   1.3829580E-01
       21   -1    0    0  501  502  0.00000000000E+00  0.00000000000E+00  1.07655845253E+01  1.07655845253E+01  0.00000000000E+00  0.00000000000E+00  1.
       21   -1    0    0  502  501  0.00000000000E+00  0.00000000000E+00 -3.62646624649E+02  3.62646624649E+02  0.00000000000E+00  0.00000000000E+00  1.
       25    2    1    2    0    0 -1.77635683940E-15  0.00000000000E+00 -3.51881040124E+02  3.73412209175E+02  1.24965641526E+02  0.00000000000E+00  1.
       23    2    3    3    0    0  1.57826225752E+01 -1.39503136299E+01 -3.33125668480E+02  3.45208195432E+02  8.80470599567E+01  0.00000000000E+00  1.
       22    1    3    3    0    0 -1.57826225752E+01  1.39503136299E+01 -1.87553716437E+01  2.82040137431E+01  0.00000000000E+00  0.00000000000E+00  1.
        5    1    4    4  803    0  1.71149428098E+01 -1.38619627213E+00 -3.31076594543E+02  3.31555601312E+02  4.75000000000E+00  0.00000000000E+00  1.
       -5    1    4    4    0  803 -1.33232023464E+00 -1.25641173578E+01 -2.04907393753E+00  1.36525941194E+01  4.75000000000E+00  0.00000000000E+00  1.
</event>
<event>
 7   0   1.0000000E+00   6.2464337E+01   7.8125000E-03   1.3830271E-01
       21   -1    0    0  501  502  0.00000000000E+00  0.00000000000E+00  5.25553046364E+01  5.25553046364E+01  0.00000000000E+00  0.00000000000E+00  1.
       21   -1    0    0  502  501  0.00000000000E+00  0.00000000000E+00 -7.42416673069E+01  7.42416673069E+01  0.00000000000E+00  0.00000000000E+00  1.
       25    2    1    2    0    0 -7.10542735760E-15  7.10542735760E-15 -2.16863626705E+01  1.26796971943E+02  1.24928674723E+02  0.00000000000E+00  1.
       23    2    3    3    0    0  4.30442507007E+01  4.16289732290E+01  5.18778869189E+00  6.11616236779E+01  1.13160120590E+01  0.00000000000E+00  1.
       22    1    3    3    0    0 -4.30442507007E+01 -4.16289732290E+01 -2.68741513624E+01  6.56353482655E+01  0.00000000000E+00  0.00000000000E+00  1.
        2    1    4    4  803    0  9.14834561030E+00  1.58951914625E+01  2.62583576643E+00  1.85268549006E+01  0.00000000000E+00  0.00000000000E+00  1.
       -2    1    4    4    0  803  3.38959050904E+01  2.57337817665E+01  2.56195292546E+00  4.26347687773E+01  0.00000000000E+00  0.00000000000E+00  1.
</event>
<event>
 7   0   1.0000000E+00   6.2499816E+01   7.8125000E-03   1.3828945E-01
       21   -1    0    0  501  502  0.00000000000E+00  0.00000000000E+00  2.04292298017E+01  2.04292298017E+01  0.00000000000E+00  0.00000000000E+00  1.
       21   -1    0    0  502  501  0.00000000000E+00  0.00000000000E+00 -1.91207744952E+02  1.91207744952E+02  0.00000000000E+00  0.00000000000E+00  1.
       25    2    1    2    0    0 -3.55271367880E-15  1.66533453694E-16 -1.70778515150E+02  2.11636974754E+02  1.24999631383E+02  0.00000000000E+00  1.
       23    2    3    3    0    0  2.19522897092E+01  4.68984226218E-01 -1.62771056745E+02  1.88265146417E+02  9.20175280687E+01  0.00000000000E+00  1.
       22    1    3    3    0    0 -2.19522897092E+01 -4.68984226218E-01 -8.00745840515E+00  2.33718283365E+01  0.00000000000E+00  0.00000000000E+00  1.
        4    1    4    4  803    0  3.84260066006E+01 -2.10618844164E+00 -1.66698464168E+02  1.71087689779E+02  1.27500000001E+00  0.00000000000E+00  1.
       -4    1    4    4    0  803 -1.64737168914E+01  2.57517266785E+00  3.92740742274E+00  1.71774566381E+01  1.27500000000E+00  0.00000000000E+00  1.
</event>
<event>
 7   0   1.0000000E+00   6.2501884E+01   7.8125000E-03   1.3828868E-01
       21   -1    0    0  501  502  0.00000000000E+00  0.00000000000E+00  4.08881517700E+01  4.08881517700E+01  0.00000000000E+00  0.00000000000E+00  1.
       21   -1    0    0  502  501  0.00000000000E+00  0.00000000000E+00 -9.55407697292E+01  9.55407697292E+01  0.00000000000E+00  0.00000000000E+00  1.
       25    2    1    2    0    0 -8.88178419700E-16 -3.55271367880E-15 -5.46526179593E+01  1.36428921499E+02  1.25003767830E+02  0.00000000000E+00  1.
       23    2    3    3    0    0 -4.66702520382E+00 -1.81205623745E+01 -6.61693843180E+01  1.14456852585E+02  9.14978020368E+01  0.00000000000E+00  1.
       22    1    3    3    0    0  4.66702520382E+00  1.81205623745E+01  1.15167663587E+01  2.19720689144E+01  0.00000000000E+00  0.00000000000E+00  1.
        2    1    4    4  803    0 -4.60677315483E+01 -2.36636061397E-01 -4.58369245736E+01  6.49870414313E+01  0.00000000000E+00  0.00000000000E+00  1.
       -2    1    4    4    0  803  4.14007063445E+01 -1.78839263131E+01 -2.03324597443E+01  4.94698112534E+01  0.00000000000E+00  0.00000000000E+00  1.
</event>
<event>
 7   0   1.0000000E+00   6.2505835E+01   7.8125000E-03   1.3828721E-01
       21   -1    0    0  501  502  0.00000000000E+00  0.00000000000E+00  1.46816691229E+01  1.46816691229E+01  0.00000000000E+00  0.00000000000E+00  1.
       21   -1    0    0  502  501  0.00000000000E+00  0.00000000000E+00 -2.66112754506E+02  2.66112754506E+02  0.00000000000E+00  0.00000000000E+00  1.
       25    2    1    2    0    0  3.55271367880E-15  0.00000000000E+00 -2.51431085383E+02  2.80794423629E+02  1.25011670032E+02  0.00000000000E+00  1.
       23    2    3    3    0    0  1.74193992724E+01 -1.69993722430E+01 -1.64793333231E+02  1.90802678309E+02  9.30398046270E+01  0.00000000000E+00  1.
       22    1    3    3    0    0 -1.74193992724E+01  1.69993722430E+01 -8.66377521524E+01  8.99917453197E+01  0.00000000000E+00  0.00000000000E+00  1.
       16    1    4    4    0    0  5.27299080816E+01 -3.56881737727E+00 -6.30431602145E+01  8.22655440026E+01  1.50789149292E-06  0.00000000000E+00  1.
      -16    1    4    4    0    0 -3.53105088092E+01 -1.34305548657E+01 -1.01750173016E+02  1.08537134507E+02  1.90734863281E-06  0.00000000000E+00  1.
</event>
<event>
 7   0   1.0000000E+00   6.2499916E+01   7.8125000E-03   1.3828942E-01
       21   -1    0    0  501  502  0.00000000000E+00  0.00000000000E+00  2.20910554914E+02  2.20910554914E+02  0.00000000000E+00  0.00000000000E+00  1.
       21   -1    0    0  502  501  0.00000000000E+00  0.00000000000E+00 -1.76824486696E+01  1.76824486696E+01  0.00000000000E+00  0.00000000000E+00  1.
       25    2    1    2    0    0 -1.77635683940E-15  7.10542735760E-15  2.03228106244E+02  2.38593003583E+02  1.24999832765E+02  0.00000000000E+00  1.
       23    2    3    3    0    0 -5.68438109434E+00 -3.03960016994E+01  1.55390058026E+02  1.81630665455E+02  8.88110319304E+01  0.00000000000E+00  1.
       22    1    3    3    0    0  5.68438109434E+00  3.03960016994E+01  4.78380482182E+01  5.69623381285E+01  0.00000000000E+00  0.00000000000E+00  1.
        5    1    4    4  803    0  1.16157630208E+01 -4.71002039319E+01  1.48311562571E+02  1.56116101838E+02  4.75000000000E+00  0.00000000000E+00  1.
       -5    1    4    4    0  803 -1.73001441151E+01  1.67042022326E+01  7.07849545493E+00  2.55145636164E+01  4.75000000000E+00  0.00000000000E+00  1.
</event>
<event>
 7   0   1.0000000E+00   6.2508377E+01   7.8125000E-03   1.3828626E-01
       21   -1    0    0  501  502  0.00000000000E+00  0.00000000000E+00  3.12570259413E+02  3.12570259413E+02  0.00000000000E+00  0.00000000000E+00  1.
       21   -1    0    0  502  501  0.00000000000E+00  0.00000000000E+00 -1.25005403704E+01  1.25005403704E+01  0.00000000000E+00  0.00000000000E+00  1.
       25    2    1    2    0    0  1.77635683940E-15 -3.55271367880E-15  3.00069719043E+02  3.25070799783E+02  1.25016753219E+02  0.00000000000E+00  1.
       23    2    3    3    0    0 -1.36573204317E+01  1.30424794789E+01  1.66042602979E+02  1.89719787549E+02  8.98154948300E+01  0.00000000000E+00  1.
       22    1    3    3    0    0  1.36573204317E+01 -1.30424794789E+01  1.34027116064E+02  1.35351012234E+02  0.00000000000E+00  0.00000000000E+00  1.
       15    1    4    4    0    0 -3.32244210622E+01  4.39534007260E+01  9.75275223035E+01  1.12029184658E+02  1.77680000000E+00  0.00000000000E+00  1.
      -15    1    4    4    0    0  1.95671006306E+01 -3.09109212471E+01  6.85150806750E+01  7.76906028911E+01  1.77680000000E+00  0.00000000000E+00  1.
</event>
<event>
 7   0   1.0000000E+00   6.2511611E+01   7.8125000E-03   1.3828505E-01
       21   -1    0    0  501  502  0.00000000000E+00  0.00000000000E+00  2.12172745810E+02  2.12172745810E+02  0.00000000000E+00  0.00000000000E+00  1.
       21   -1    0    0  502  501  0.00000000000E+00  0.00000000000E+00 -1.84175466915E+01  1.84175466915E+01  0.00000000000E+00  0.00000000000E+00  1.
       25    2    1    2    0    0  7.10542735760E-15  0.00000000000E+00  1.93755199118E+02  2.30590292501E+02  1.25023221085E+02  0.00000000000E+00  1.
       23    2    3    3    0    0 -1.81322627804E+01  3.06465260813E+01  1.90569995523E+02  1.94839292007E+02  1.94277636820E+01  0.00000000000E+00  1.
       22    1    3    3    0    0  1.81322627804E+01 -3.06465260813E+01  3.18520359485E+00  3.57510004941E+01  0.00000000000E+00  0.00000000000E+00  1.
        4    1    4    4  803    0 -1.86928187510E+00  1.57805242337E+00  6.06069413346E+01  6.06696911738E+01  1.27500000000E+00  0.00000000000E+00  1.
       -4    1    4    4    0  803 -1.62629809053E+01  2.90684736579E+01  1.29963054189E+02  1.34169600833E+02  1.27500000000E+00  0.00000000000E+00  1.
</event>
<event>
 7   0   1.0000000E+00   6.2499837E+01   7.8125000E-03   1.3828945E-01
       21   -1    0    0  501  502  0.00000000000E+00  0.00000000000E+00  1.12914521045E+01  1.12914521045E+01  0.00000000000E+00  0.00000000000E+00  1.
       21   -1    0    0  502  501  0.00000000000E+00  0.00000000000E+00 -3.45945725962E+02  3.45945725962E+02  0.00000000000E+00  0.00000000000E+00  1.
       25    2    1    2    0    0  0.00000000000E+00 -3.55271367880E-15 -3.34654273857E+02  3.57237178066E+02  1.24999673527E+02  0.00000000000E+00  1.
       23    2    3    3    0    0 -1.76356052867E+01  1.93766551772E+01 -2.96234614981E+02  3.10734064968E+02  9.00790912408E+01  0.00000000000E+00  1.
       22    1    3    3    0    0  1.76356052867E+01 -1.93766551772E+01 -3.84196588758E+01  4.65031130981E+01  0.00000000000E+00  0.00000000000E+00  1.
        5    1    4    4  803    0 -1.00087962905E+01 -2.97216341853E+01 -4.80178029290E+01  5.75484442879E+01  4.75000000000E+00  0.00000000000E+00  1.
       -5    1    4    4    0  803 -7.62680899623E+00  4.90982893625E+01 -2.48216812052E+02  2.53185620680E+02  4.75000000000E+00  0.00000000000E+00  1.
</event>
<event>
 7   0   1.0000000E+00   6.2500001E+01   7.8125000E-03   1.3828939E-01
       21   -1    0    0  501  502  0.00000000000E+00  0.00000000000E+00  2.43335824861E+00  2.43335824861E+00  0.00000000000E+00  0.00000000000E+00  1.
       21   -1    0    0  502  501  0.00000000000E+00  0.00000000000E+00 -1.60529184712E+03  1.60529184712E+03  0.00000000000E+00  0.00000000000E+00  1.
       25    2    1    2    0    0  0.00000000000E+00 -3.55271367880E-15 -1.60285848887E+03  1.60772520537E+03  1.25000002522E+02  0.00000000000E+00  1.
       23    2    3    3    0    0 -1.98463541158E+01 -1.64051454107E+01 -1.41096969840E+03  1.41411654214E+03  9.07033537985E+01  0.00000000000E+00  1.
       22    1    3    3    0    0  1.98463541158E+01  1.64051454107E+01 -1.91888790466E+02  1.93608663221E+02  0.00000000000E+00  0.00000000000E+00  1.
       16    1    4    4    0    0 -1.01987286526E+01 -5.09416203791E+01 -5.63889718722E+02  5.66277915544E+02  1.32144989591E-05  0.00000000000E+00  1.
      -16    1    4    4    0    0 -9.64762546318E+00  3.45364749684E+01 -8.47079979681E+02  8.47838626601E+02  1.52587890625E-05  0.00000000000E+00  1.
</event>
<event>
 7   0   1.0000000E+00   6.2499994E+01   7.8125000E-03   1.3828939E-01
       21   -1    0    0  501  502  0.00000000000E+00  0.00000000000E+00  1.20356299077E+01  1.20356299077E+01  0.00000000000E+00  0.00000000000E+00  1.
       21   -1    0    0  502  501  0.00000000000E+00  0.00000000000E+00 -3.24557112287E+02  3.24557112287E+02  0.00000000000E+00  0.00000000000E+00  1.
       25    2    1    2    0    0 -1.06581410364E-14 -1.33226762955E-15 -3.12521482380E+02  3.36592742195E+02  1.24999988599E+02  0.00000000000E+00  1.
       23    2    3    3    0    0 -2.84019494990E+01 -2.93619930543E+00 -2.25774378977E+02  2.45267214819E+02  9.14693635110E+01  0.00000000000E+00  1.
       22    1    3    3    0    0  2.84019494990E+01  2.93619930543E+00 -8.67471034029E+01  9.13255273760E+01  0.00000000000E+00  0.00000000000E+00  1.
        2    1    4    4  803    0 -6.06999629304E+01 -7.27957600937E+00 -1.70147373591E+02  1.80797141854E+02  1.90734863281E-06  0.00000000000E+00  1.
       -2    1    4    4    0  803  3.22980134313E+01  4.34337670395E+00 -5.56270053861E+01  6.44700730652E+01  2.86102294922E-06  0.00000000000E+00  1.
</event>
<event>
 7   0   1.0000000E+00   6.2499786E+01   7.8125000E-03   1.3828947E-01
       21   -1    0    0  501  502  0.00000000000E+00  0.00000000000E+00  1.56004631395E+02  1.56004631395E+02  0.00000000000E+00  0.00000000000E+00  1.
       21   -1    0    0  502  501  0.00000000000E+00  0.00000000000E+00 -2.50391496415E+01  2.50391496415E+01  0.00000000000E+00  0.00000000000E+00  1.
       25    2    1    2    0    0 -1.77635683940E-15  7.10542735760E-15  1.30965481753E+02  1.81043781036E+02  1.24999572964E+02  0.00000000000E+00  1.
       23    2    3    3    0    0  1.55941293018E+01 -6.03057079611E+01  6.05347935629E+01  8.70201822946E+01  5.30052955115E+00  0.00000000000E+00  1.
       22    1    3    3    0    0 -1.55941293018E+01  6.03057079611E+01  7.04306881905E+01  9.40235987418E+01  0.00000000000E+00  0.00000000000E+00  1.
       15    1    4    4    0    0  3.68854185602E+00 -2.14256995207E+01  2.12375478561E+01  3.04443163522E+01  1.77680000000E+00  0.00000000000E+00  1.
      -15    1    4    4    0    0  1.19055874458E+01 -3.88800084404E+01  3.92972457067E+01  5.65758659424E+01  1.77680000000E+00  0.00000000000E+00  1.
</event>
<event>
 7   0   1.0000000E+00   6.2499116E+01   7.8125000E-03   1.3828972E-01
       21   -1    0    0  501  502  0.00000000000E+00  0.00000000000E+00  1.49817348331E+02  1.49817348331E+02  0.00000000000E+00  0.00000000000E+00  1.
       21   -1    0    0  502  501  0.00000000000E+00  0.00000000000E+00 -2.60726780995E+01  2.60726780995E+01  0.00000000000E+00  0.00000000000E+00  1.
       25    2    1    2    0    0  7.10542735760E-15 -3.55271367880E-15  1.23744670232E+02  1.75890026431E+02  1.24998231936E+02  0.00000000000E+00  1.
       23    2    3    3    0    0  1.12436760254E+01 -1.55868353468E+01  6.52267529945E+01  1.14296874827E+02  9.18688010281E+01  0.00000000000E+00  1.
       22    1    3    3    0    0 -1.12436760254E+01  1.55868353468E+01  5.85179172375E+01  6.15931516039E+01  0.00000000000E+00  0.00000000000E+00  1.
        4    1    4    4  803    0  2.65839459963E+01 -3.95413020505E+01  7.07347482735E+01  8.52950818681E+01  1.27500000000E+00  0.00000000000E+00  1.
       -4    1    4    4    0  803 -1.53402699710E+01  2.39544667037E+01 -5.50799527895E+00  2.90017929590E+01  1.27500000000E+00  0.00000000000E+00  1.
</event>
<event>
 7   0   1.0000000E+00   6.2501068E+01   7.8125000E-03   1.3828899E-01
       21   -1    0    0  501  502  0.00000000000E+00  0.00000000000E+00  4.75062228798E+01  4.75062228798E+01  0.00000000000E+00  0.00000000000E+00  1.
       21   -1    0    0  502  501  0.00000000000E+00  0.00000000000E+00 -8.22288794199E+01  8.22288794199E+01  0.00000000000E+00  0.00000000000E+00  1.
       25    2    1    2    0    0  0.00000000000E+00  0.00000000000E+00 -3.47226565401E+01  1.29735102300E+02  1.25002135548E+02  0.00000000000E+00  1.
       23    2    3    3    0    0 -1.43118960940E+01 -5.57527653971E+00  4.48259523447E+01  4.87172323338E+01  1.13176253846E+01  0.00000000000E+00  1.
       22    1    3    3    0    0  1.43118960940E+01  5.57527653971E+00 -7.95486088849E+01  8.10178699659E+01  0.00000000000E+00  0.00000000000E+00  1.
       13    1    4    4    0    0 -1.53319739960E+01 -4.90137669703E+00  4.46681740718E+01  4.74799943037E+01  1.05660000001E-01  0.00000000000E+00  1.
      -13    1    4    4    0    0  1.02007790192E+00 -6.73899842678E-01  1.57778272959E-01  1.23723803003E+00  1.05660000001E-01  0.00000000000E+00  1.
</event>
<event>
 7   0   1.0000000E+00   6.2500362E+01   7.8125000E-03   1.3828925E-01
       21   -1    0    0  501  502  0.00000000000E+00  0.00000000000E+00  4.86465782485E+01  4.86465782485E+01  0.00000000000E+00  0.00000000000E+00  1.
       21   -1    0    0  502  501  0.00000000000E+00  0.00000000000E+00 -8.02994862585E+01  8.02994862585E+01  0.00000000000E+00  0.00000000000E+00  1.
       25    2    1    2    0    0 -3.10862446895E-15  0.00000000000E+00 -3.16529080100E+01  1.28946064507E+02  1.25000723863E+02  0.00000000000E+00  1.
       23    2    3    3    0    0 -3.49908107798E+00  1.31374962231E+00 -5.53248318669E+01  1.04980892162E+02  8.91413551136E+01  0.00000000000E+00  1.
       22    1    3    3    0    0  3.49908107798E+00 -1.31374962231E+00  2.36719238569E+01  2.39651723454E+01  0.00000000000E+00  0.00000000000E+00  1.
        3    1    4    4  803    0 -4.08549126347E+01 -1.35676885221E+01 -4.73368944968E+01  6.39842764968E+01  0.00000000000E+00  0.00000000000E+00  1.
       -3    1    4    4    0  803  3.73558315567E+01  1.48814381445E+01 -7.98793737005E+00  4.09966157648E+01  0.00000000000E+00  0.00000000000E+00  1.
</event>
<event>
 7   0   1.0000000E+00   6.2500324E+01   7.8125000E-03   1.3828927E-01
       21   -1    0    0  501  502  0.00000000000E+00  0.00000000000E+00  2.60462997660E+01  2.60462997660E+01  0.00000000000E+00  0.00000000000E+00  1.
       21   -1    0    0  502  501  0.00000000000E+00  0.00000000000E+00 -1.49974870629E+02  1.49974870629E+02  0.00000000000E+00  0.00000000000E+00  1.
       25    2    1    2    0    0  0.00000000000E+00  1.55431223448E-15 -1.23928570863E+02  1.76021170395E+02  1.25000647003E+02  0.00000000000E+00  1.
       23    2    3    3    0    0  1.90619250206E+01 -7.68205810535E-01 -6.62186045752E+01  1.15239698427E+02  9.23652390027E+01  0.00000000000E+00  1.
       22    1    3    3    0    0 -1.90619250206E+01  7.68205810535E-01 -5.77099662877E+01  6.07814719679E+01  0.00000000000E+00  0.00000000000E+00  1.
        1    1    4    4  803    0 -2.66645887270E+01  2.13853387748E+01 -3.26063667465E+00  3.43360562386E+01  1.27141052530E-06  0.00000000000E+00  1.
       -1    1    4    4    0  803  4.57265137476E+01 -2.21535445853E+01 -6.29579679005E+01  8.09036421885E+01  0.00000000000E+00  0.00000000000E+00  1.
</event>
<event>
 7   0   1.0000000E+00   6.2499717E+01   7.8125000E-03   1.3828949E-01
       21   -1    0    0  501  502  0.00000000000E+00  0.00000000000E+00  4.17442705213E+01  4.17442705213E+01  0.00000000000E+00  0.00000000000E+00  1.
       21   -1    0    0  502  501  0.00000000000E+00  0.00000000000E+00 -9.35748676977E+01  9.35748676977E+01  0.00000000000E+00  0.00000000000E+00  1.
       25    2    1    2    0    0  0.00000000000E+00  5.32907051820E-15 -5.18305971764E+01  1.35319138219E+02  1.24999433457E+02  0.00000000000E+00  1.
       23    2    3    3    0    0 -2.21070388088E+01 -1.02200120506E+01 -5.75171320611E+01  1.10309010466E+02  9.09213258719E+01  0.00000000000E+00  1.
       22    1    3    3    0    0  2.21070388088E+01  1.02200120506E+01  5.68653488472E+00  2.50101277527E+01  0.00000000000E+00  0.00000000000E+00  1.
        2    1    4    4  803    0 -3.15781222884E+01 -3.04541316804E+01 -7.15483015586E+01  8.39272983979E+01  0.00000000000E+00  0.00000000000E+00  1.
       -2    1    4    4    0  803  9.47108347957E+00  2.02341196298E+01  1.40311694975E+01  2.63817122684E+01  1.10550147241E-06  0.00000000000E+00  1.
</event>
<event>
 7   0   1.0000000E+00   6.2500680E+01   7.8125000E-03   1.3828913E-01
       21   -1    0    0  501  502  0.00000000000E+00  0.00000000000E+00  3.66002206429E+01  3.66002206429E+01  0.00000000000E+00  0.00000000000E+00  1.
       21   -1    0    0  502  501  0.00000000000E+00  0.00000000000E+00 -1.06729821908E+02  1.06729821908E+02  0.00000000000E+00  0.00000000000E+00  1.
       25    2    1    2    0    0  7.10542735760E-15  0.00000000000E+00 -7.01296012653E+01  1.43330042551E+02  1.25001360489E+02  0.00000000000E+00  1.
       23    2    3    3    0    0  4.63536505589E+01 -3.39458390930E+01 -5.99020649566E+01  8.49726658897E+01  1.81965834837E+01  0.00000000000E+00  1.
       22    1    3    3    0    0 -4.63536505589E+01  3.39458390930E+01 -1.02275363087E+01  5.83573766614E+01  0.00000000000E+00  0.00000000000E+00  1.
       11    1    4    4    0    0  5.28923971793E-01  1.19118672554E+00  5.11810419475E-01  1.40022732071E+00  5.10999727811E-04  0.00000000000E+00  1.
      -11    1    4    4    0    0  4.58247265871E+01 -3.51370258185E+01 -6.04138753761E+01  8.35724385690E+01  5.11000377541E-04  0.00000000000E+00  1.
</event>
<event>
 7   0   1.0000000E+00   6.2498611E+01   7.8125000E-03   1.3828990E-01
       21   -1    0    0  501  502  0.00000000000E+00  0.00000000000E+00  4.18828177719E+01  4.18828177719E+01  0.00000000000E+00  0.00000000000E+00  1.
       21   -1    0    0  502  501  0.00000000000E+00  0.00000000000E+00 -9.32620254499E+01  9.32620254499E+01  0.00000000000E+00  0.00000000000E+00  1.
       25    2    1    2    0    0  1.77635683940E-15 -1.77635683940E-14 -5.13792076780E+01  1.35144843222E+02  1.24997222641E+02  0.00000000000E+00  1.
       23    2    3    3    0    0  1.30909663104E+01  2.07855440041E+01 -2.70733036602E+01  1.00587800400E+02  9.37098158129E+01  0.00000000000E+00  1.
       22    1    3    3    0    0 -1.30909663104E+01 -2.07855440041E+01 -2.43059040179E+01  3.45570428222E+01  0.00000000000E+00  0.00000000000E+00  1.
       13    1    4    4    0    0  4.84625473672E-01 -3.59222905993E+01 -2.23350884213E+01  4.23026377733E+01  1.05660000016E-01  0.00000000000E+00  1.
      -13    1    4    4    0    0  1.26063408368E+01  5.67078346034E+01 -4.73821523888E+00  5.82851626264E+01  1.05660000012E-01  0.00000000000E+00  1.
</event>
<event>
 7   0   1.0000000E+00   6.2500085E+01   7.8125000E-03   1.3828935E-01
       21   -1    0    0  501  502  0.00000000000E+00  0.00000000000E+00  1.47569276418E+01  1.47569276418E+01  0.00000000000E+00  0.00000000000E+00  1.
       21   -1    0    0  502  501  0.00000000000E+00  0.00000000000E+00 -2.64706904832E+02  2.64706904832E+02  0.00000000000E+00  0.00000000000E+00  1.
       25    2    1    2    0    0  4.44089209850E-15  0.00000000000E+00 -2.49949977190E+02  2.79463832474E+02  1.25000170254E+02  0.00000000000E+00  1.
       23    2    3    3    0    0  4.78589513922E+00 -2.75248725320E+01 -1.70591876005E+02  1.95331605451E+02  9.09523200844E+01  0.00000000000E+00  1.
       22    1    3    3    0    0 -4.78589513922E+00  2.75248725320E+01 -7.93581011849E+01  8.41322270231E+01  0.00000000000E+00  0.00000000000E+00  1.
       12    1    4    4    0    0 -2.54426394669E+01 -5.09194615558E+01 -1.01764235635E+02  1.16602226062E+02  0.00000000000E+00  0.00000000000E+00  1.
      -12    1    4    4    0    0  3.02285346061E+01  2.33945890238E+01 -6.88276403698E+01  7.87293793885E+01  2.52318507296E-06  0.00000000000E+00  1.
</event>
<event>
 7   0   1.0000000E+00   6.2493706E+01   7.8125000E-03   1.3829174E-01
       21   -1    0    0  501  502  0.00000000000E+00  0.00000000000E+00  2.75907596386E+01  2.75907596386E+01  0.00000000000E+00  0.00000000000E+00  1.
       21   -1    0    0  502  501  0.00000000000E+00  0.00000000000E+00 -1.41549681371E+02  1.41549681371E+02  0.00000000000E+00  0.00000000000E+00  1.
       25    2    1    2    0    0  3.55271367880E-15  0.00000000000E+00 -1.13958921733E+02  1.69140441010E+02  1.24987411136E+02  0.00000000000E+00  1.
       23    2    3    3    0    0  2.80979961640E+01 -3.19045873039E+00 -1.09266493090E+02  1.40475212912E+02  8.36327837342E+01  0.00000000000E+00  1.
       22    1    3    3    0    0 -2.80979961640E+01  3.19045873039E+00 -4.69242864295E+00  2.86652280980E+01  0.00000000000E+00  0.00000000000E+00  1.
       16    1    4    4    0    0 -1.58389557934E+01 -4.01626962693E+00  5.77142882116E+00  1.73295220066E+01  1.70473452164E-06  0.00000000000E+00  1.
      -16    1    4    4    0    0  4.39369519573E+01  8.25810896543E-01 -1.15037921911E+02  1.23145690905E+02  2.33601545599E-06  0.00000000000E+00  1.
</event>
<event>
 7   0   1.0000000E+00   6.2500058E+01   7.8125000E-03   1.3828936E-01
       21   -1    0    0  501  502  0.00000000000E+00  0.00000000000E+00  6.16736197421E+00  6.16736197421E+00  0.00000000000E+00  0.00000000000E+00  1.
       21   -1    0    0  502  501  0.00000000000E+00  0.00000000000E+00 -6.33375716157E+02  6.33375716157E+02  0.00000000000E+00  0.00000000000E+00  1.
       25    2    1    2    0    0 -8.88178419700E-15 -7.10542735760E-15 -6.27208354182E+02  6.39543078131E+02  1.25000116915E+02  0.00000000000E+00  1.
       23    2    3    3    0    0 -1.30994939643E+01 -2.62765574899E+01 -4.88017130402E+02  4.97288900712E+02  9.09586553872E+01  0.00000000000E+00  1.
       22    1    3    3    0    0  1.30994939643E+01  2.62765574899E+01 -1.39191223780E+02  1.42254177419E+02  0.00000000000E+00  0.00000000000E+00  1.
       14    1    4    4    0    0  2.05885829556E+01  2.60407994107E+01 -1.56404580112E+02  1.59888729103E+02  3.81469726562E-06  0.00000000000E+00  1.
      -14    1    4    4    0    0 -3.36880769200E+01 -5.23173569005E+01 -3.31612550290E+02  3.37400171809E+02  5.39479660939E-06  0.00000000000E+00  1.
</event>
<event>
 7   0   1.0000000E+00   6.2501129E+01   7.8125000E-03   1.3828896E-01
       21   -1    0    0  501  502  0.00000000000E+00  0.00000000000E+00  7.64763222268E+01  7.64763222268E+01  0.00000000000E+00  0.00000000000E+00  1.
       21   -1    0    0  502  501  0.00000000000E+00  0.00000000000E+00 -5.10797460770E+01  5.10797460770E+01  0.00000000000E+00  0.00000000000E+00  1.
       25    2    1    2    0    0 -2.13162820728E-14  0.00000000000E+00  2.53965761498E+01  1.27556068304E+02  1.25002257904E+02  0.00000000000E+00  1.
       23    2    3    3    0    0  1.96125243924E+01 -1.57308726874E+01  3.03545692984E+01  1.01930043161E+02  9.40011827214E+01  0.00000000000E+00  1.
       22    1    3    3    0    0 -1.96125243924E+01  1.57308726874E+01 -4.95799314860E+00  2.56260251426E+01  0.00000000000E+00  0.00000000000E+00  1.
        1    1    4    4  803    0 -3.63821412118E+01 -1.41040914634E+01  2.33560685814E+01  4.54762745158E+01  1.65181236989E-06  0.00000000000E+00  1.
       -1    1    4    4    0  803  5.59946656042E+01 -1.62678122402E+00  6.99850071701E+00  5.64537688454E+01  0.00000000000E+00  0.00000000000E+00  1.
</event>
<event>
 7   0   1.0000000E+00   6.2500197E+01   7.8125000E-03   1.3828931E-01
       21   -1    0    0  501  502  0.00000000000E+00  0.00000000000E+00  3.66000940548E+02  3.66000940548E+02  0.00000000000E+00  0.00000000000E+00  1.
       21   -1    0    0  502  501  0.00000000000E+00  0.00000000000E+00 -1.06728541728E+01  1.06728541728E+01  0.00000000000E+00  0.00000000000E+00  1.
       25    2    1    2    0    0 -7.10542735760E-15  3.99680288865E-15  3.55328086376E+02  3.76673794721E+02  1.25000394649E+02  0.00000000000E+00  1.
       23    2    3    3    0    0  2.37932127158E+01  3.83750258378E+00  2.31591761763E+02  2.50612216808E+02  9.26870848574E+01  0.00000000000E+00  1.
       22    1    3    3    0    0 -2.37932127158E+01 -3.83750258378E+00  1.23736324612E+02  1.26061577913E+02  0.00000000000E+00  0.00000000000E+00  1.
        3    1    4    4  803    0 -1.83355192070E+01 -2.83722873936E+01  4.28658576137E+01  5.45770988274E+01  2.13248059988E-06  0.00000000000E+00  1.
       -3    1    4    4    0  803  4.21287319228E+01  3.22097899774E+01  1.88725904150E+02  1.96035118181E+02  4.67203091199E-06  0.00000000000E+00  1.
</event>
<event>
 7   0   1.0000000E+00   6.2503871E+01   7.8125000E-03   1.3828794E-01
       21   -1    0    0  501  502  0.00000000000E+00  0.00000000000E+00  2.19607652558E+01  2.19607652558E+01  0.00000000000E+00  0.00000000000E+00  1.
       21   -1    0    0  502  501  0.00000000000E+00  0.00000000000E+00 -1.77896073874E+02  1.77896073874E+02  0.00000000000E+00  0.00000000000E+00  1.
       25    2    1    2    0    0  0.00000000000E+00  3.55271367880E-15 -1.55935308618E+02  1.99856839130E+02  1.25007742453E+02  0.00000000000E+00  1.
       23    2    3    3    0    0  4.94945489743E+00  8.74389389933E+00 -7.75559798643E+01  1.20836133234E+02  9.21167101998E+01  0.00000000000E+00  1.
       22    1    3    3    0    0 -4.94945489743E+00 -8.74389389933E+00 -7.83793287537E+01  7.90207058953E+01  0.00000000000E+00  0.00000000000E+00  1.
        5    1    4    4  803    0  1.28653394829E-02 -2.68774912133E+01  7.55264221348E+00  2.83196858006E+01  4.75000000000E+00  0.00000000000E+00  1.
       -5    1    4    4    0  803  4.93658955795E+00  3.56213851126E+01 -8.51086220778E+01  9.25164474338E+01  4.75000000000E+00  0.00000000000E+00  1.
</event>
<event>
 7   0   1.0000000E+00   6.2500641E+01   7.8125000E-03   1.3828915E-01
       21   -1    0    0  501  502  0.00000000000E+00  0.00000000000E+00  1.11792417191E+01  1.11792417191E+01  0.00000000000E+00  0.00000000000E+00  1.
       21   -1    0    0  502  501  0.00000000000E+00  0.00000000000E+00 -3.49427110864E+02  3.49427110864E+02  0.00000000000E+00  0.00000000000E+00  1.
       25    2    1    2    0    0 -3.55271367880E-15 -1.77635683940E-15 -3.38247869145E+02  3.60606352584E+02  1.25001282162E+02  0.00000000000E+00  1.
       23    2    3    3    0    0  2.18002762995E+01  1.18072265357E+01 -1.73657437701E+02  1.94159145433E+02  8.32238273644E+01  0.00000000000E+00  1.
       22    1    3    3    0    0 -2.18002762995E+01 -1.18072265357E+01 -1.64590431445E+02  1.66447207151E+02  0.00000000000E+00  0.00000000000E+00  1.
        4    1    4    4  803    0  3.51384750473E+01 -1.94864559514E+01 -4.18632040328E+01  5.80395371371E+01  1.27500000000E+00  0.00000000000E+00  1.
       -4    1    4    4    0  803 -1.33381987479E+01  3.12936824871E+01 -1.31794233668E+02  1.36119608296E+02  1.27500000000E+00  0.00000000000E+00  1.
</event>
<event>
 7   0   1.0000000E+00   6.2498104E+01   7.8125000E-03   1.3829009E-01
       21   -1    0    0  501  502  0.00000000000E+00  0.00000000000E+00  1.03434927636E+02  1.03434927636E+02  0.00000000000E+00  0.00000000000E+00  1.
       21   -1    0    0  502  501  0.00000000000E+00  0.00000000000E+00 -3.77629980611E+01  3.77629980611E+01  0.00000000000E+00  0.00000000000E+00  1.
       25    2    1    2    0    0  0.00000000000E+00 -4.44089209850E-16  6.56719295752E+01  1.41197925697E+02  1.24996207491E+02  0.00000000000E+00  1.
       23    2    3    3    0    0 -2.60139994302E+01  3.65029230355E+00  3.27530239097E+01  9.90825229276E+01  8.97470499471E+01  0.00000000000E+00  1.
       22    1    3    3    0    0  2.60139994302E+01 -3.65029230355E+00  3.29189056654E+01  4.21154027698E+01  0.00000000000E+00  0.00000000000E+00  1.
        1    1    4    4  803    0 -3.51223431757E+01  1.49408680224E+01 -2.08911790548E+01  4.35114915674E+01  0.00000000000E+00  0.00000000000E+00  1.
       -1    1    4    4    0  803  9.10834374552E+00 -1.12905757188E+01  5.36442029646E+01  5.55710314602E+01  1.50789149292E-06  0.00000000000E+00  1.
</event>
<event>
 7   0   1.0000000E+00   6.2500537E+01   7.8125000E-03   1.3828919E-01
       21   -1    0    0  501  502  0.00000000000E+00  0.00000000000E+00  3.48234869532E+02  3.48234869532E+02  0.00000000000E+00  0.00000000000E+00  1.
       21   -1    0    0  502  501  0.00000000000E+00  0.00000000000E+00 -1.12174785239E+01  1.12174785239E+01  0.00000000000E+00  0.00000000000E+00  1.
       25    2    1    2    0    0 -2.22044604925E-15 -3.55271367880E-15  3.37017391008E+02  3.59452348056E+02  1.25001074719E+02  0.00000000000E+00  1.
       23    2    3    3    0    0  7.59799927807E-01  3.05410535861E+01  2.38386177232E+02  2.56198052354E+02  8.87476156542E+01  0.00000000000E+00  1.
       22    1    3    3    0    0 -7.59799927807E-01 -3.05410535861E+01  9.86312137758E+01  1.03254295702E+02  0.00000000000E+00  0.00000000000E+00  1.
       12    1    4    4    0    0 -3.40602587354E+01 -1.99190659753E+00  4.19929189082E+01  5.41061378722E+01  1.16800772800E-06  0.00000000000E+00  1.
      -12    1    4    4    0    0  3.48200586632E+01  3.25329601836E+01  1.96393258324E+02  2.02091914581E+02  3.81469726562E-06  0.00000000000E+00  1.
</event>
<event>
 7   0   1.0000000E+00   6.2500740E+01   7.8125000E-03   1.3828911E-01
       21   -1    0    0  501  502  0.00000000000E+00  0.00000000000E+00  2.86352930456E+02  2.86352930456E+02  0.00000000000E+00  0.00000000000E+00  1.
       21   -1    0    0  502  501  0.00000000000E+00  0.00000000000E+00 -1.36417061244E+01  1.36417061244E+01  0.00000000000E+00  0.00000000000E+00  1.
       25    2    1    2    0    0  0.00000000000E+00 -7.10542735760E-15  2.72711224332E+02  2.99994636580E+02  1.25001480393E+02  0.00000000000E+00  1.
       23    2    3    3    0    0 -1.67653981116E+01  1.86270592058E+01  1.67450648861E+02  1.91791888663E+02  9.00908588282E+01  0.00000000000E+00  1.
       22    1    3    3    0    0  1.67653981116E+01 -1.86270592058E+01  1.05260575471E+02  1.08202747917E+02  0.00000000000E+00  0.00000000000E+00  1.
       13    1    4    4    0    0 -1.60848494366E+01  5.22083508004E+01  1.32488538854E+02  1.43309659013E+02  1.05659999969E-01  0.00000000000E+00  1.
      -13    1    4    4    0    0 -6.80548674957E-01 -3.35812915946E+01  3.49621100074E+01  4.84822296503E+01  1.05659999979E-01  0.00000000000E+00  1.
</event>
<event>
 7   0   1.0000000E+00   6.2501297E+01   7.8125000E-03   1.3828890E-01
       21   -1    0    0  501  502  0.00000000000E+00  0.00000000000E+00  1.18271358497E+02  1.18271358497E+02  0.00000000000E+00  0.00000000000E+00  1.
       21   -1    0    0  502  501  0.00000000000E+00  0.00000000000E+00 -3.30292319718E+01  3.30292319718E+01  0.00000000000E+00  0.00000000000E+00  1.
       25    2    1    2    0    0 -4.44089209850E-16  0.00000000000E+00  8.52421265249E+01  1.51300590468E+02  1.25002594139E+02  0.00000000000E+00  1.
       23    2    3    3    0    0  2.02140922530E+00 -3.04969522701E+01  6.45672942619E+01  1.14400741117E+02  8.93557154685E+01  0.00000000000E+00  1.
       22    1    3    3    0    0 -2.02140922530E+00  3.04969522701E+01  2.06748322630E+01  3.68998493510E+01  0.00000000000E+00  0.00000000000E+00  1.
        4    1    4    4  803    0 -1.55831317547E+01 -3.54601869636E+01  8.09909403151E+01  8.97853935387E+01  1.27500000000E+00  0.00000000000E+00  1.
       -4    1    4    4    0  803  1.76045409800E+01  4.96323469344E+00 -1.64236460532E+01  2.46153475787E+01  1.27500000000E+00  0.00000000000E+00  1.
</event>
<event>
 7   0   1.0000000E+00   6.2499497E+01   7.8125000E-03   1.3828957E-01
       21   -1    0    0  501  502  0.00000000000E+00  0.00000000000E+00  2.19143056050E+02  2.19143056050E+02  0.00000000000E+00  0.00000000000E+00  1.
       21   -1    0    0  502  501  0.00000000000E+00  0.00000000000E+00 -1.78248274888E+01  1.78248274888E+01  0.00000000000E+00  0.00000000000E+00  1.
       25    2    1    2    0    0  0.00000000000E+00  0.00000000000E+00  2.01318228561E+02  2.36967883539E+02  1.24998994707E+02  0.00000000000E+00  1.
       23    2    3    3    0    0 -2.55740920760E+01 -6.51860164208E+00  1.32149505838E+02  1.62935197811E+02  9.15852632233E+01  0.00000000000E+00  1.
       22    1    3    3    0    0  2.55740920760E+01  6.51860164208E+00  6.91687227235E+01  7.40326857278E+01  0.00000000000E+00  0.00000000000E+00  1.
        1    1    4    4  803    0 -4.72875731948E+01 -1.18929919329E+01  2.76207751437E+01  5.60398524848E+01  1.54512898884E-06  0.00000000000E+00  1.
       -1    1    4    4    0  803  2.17134811188E+01  5.37439029081E+00  1.04528730694E+02  1.06895345426E+02  1.90734863281E-06  0.00000000000E+00  1.
</event>
<event>
 7   0   1.0000000E+00   6.2501655E+01   7.8125000E-03   1.3828877E-01
       21   -1    0    0  501  502  0.00000000000E+00  0.00000000000E+00  1.02337300253E+01  1.02337300253E+01  0.00000000000E+00  0.00000000000E+00  1.
       21   -1    0    0  502  501  0.00000000000E+00  0.00000000000E+00 -3.81723656847E+02  3.81723656847E+02  0.00000000000E+00  0.00000000000E+00  1.
       25    2    1    2    0    0 -1.77635683940E-15 -2.22044604925E-15 -3.71489926822E+02  3.91957386872E+02  1.25003309531E+02  0.00000000000E+00  1.
       23    2    3    3    0    0  6.83666496960E+00 -2.18223800395E+00 -1.93179194409E+02  2.13502296039E+02  9.06285115788E+01  0.00000000000E+00  1.
       22    1    3    3    0    0 -6.83666496960E+00  2.18223800395E+00 -1.78310732413E+02  1.78455090833E+02  0.00000000000E+00  0.00000000000E+00  1.
       16    1    4    4    0    0 -1.62706737744E+01  1.36560615296E+01 -3.21543873880E+00  2.14839914321E+01  1.96197993644E-06  0.00000000000E+00  1.
      -16    1    4    4    0    0  2.31073387440E+01 -1.58382995335E+01 -1.89963755670E+02  1.92018304607E+02  3.81469726562E-06  0.00000000000E+00  1.
</event>
<event>
 7   0   1.0000000E+00   6.2500879E+01   7.8125000E-03   1.3828906E-01
       21   -1    0    0  501  502  0.00000000000E+00  0.00000000000E+00  4.41387325254E+01  4.41387325254E+01  0.00000000000E+00  0.00000000000E+00  1.
       21   -1    0    0  502  501  0.00000000000E+00  0.00000000000E+00 -8.85018599628E+01  8.85018599628E+01  0.00000000000E+00  0.00000000000E+00  1.
       25    2    1    2    0    0  1.77635683940E-15  7.10542735760E-15 -4.43631274374E+01  1.32640592488E+02  1.25001758786E+02  0.00000000000E+00  1.
       23    2    3    3    0    0  1.50090159314E+01  3.71842715938E+01 -7.23130648140E+01  8.37617666783E+01  1.33758588913E+01  0.00000000000E+00  1.
       22    1    3    3    0    0 -1.50090159314E+01 -3.71842715938E+01  2.79499373766E+01  4.88788258099E+01  0.00000000000E+00  0.00000000000E+00  1.
       11    1    4    4    0    0  2.37055289357E+00  9.14030015504E+00 -2.99885990186E+01  3.14401125841E+01  5.11000043823E-04  0.00000000000E+00  1.
      -11    1    4    4    0    0  1.26384630379E+01  2.80439714388E+01 -4.23244657955E+01  5.23216540942E+01  5.11000377541E-04  0.00000000000E+00  1.
</event>
<event>
 7   0   1.0000000E+00   6.2500606E+01   7.8125000E-03   1.3828916E-01
       21   -1    0    0  501  502  0.00000000000E+00  0.00000000000E+00  7.59220084387E+02  7.59220084387E+02  0.00000000000E+00  0.00000000000E+00  1.
       21   -1    0    0  502  501  0.00000000000E+00  0.00000000000E+00 -5.14518223753E+00  5.14518223753E+00  0.00000000000E+00  0.00000000000E+00  1.
       25    2    1    2    0    0  1.77635683940E-15  3.55271367880E-15  7.54074902149E+02  7.64365266624E+02  1.25001211075E+02  0.00000000000E+00  1.
       23    2    3    3    0    0  1.39917260060E+01 -1.09287555191E+01  4.50044754945E+02  4.59817180925E+02  9.26085974781E+01  0.00000000000E+00  1.
       22    1    3    3    0    0 -1.39917260060E+01  1.09287555191E+01  3.04030147204E+02  3.04548085699E+02  0.00000000000E+00  0.00000000000E+00  1.
        3    1    4    4  803    0 -2.23832235179E+00 -5.06156830219E+01  2.72348319367E+02  2.77020873793E+02  0.00000000000E+00  0.00000000000E+00  1.
       -3    1    4    4    0  803  1.62300483578E+01  3.96869275028E+01  1.77696435577E+02  1.82796307232E+02  4.67203091199E-06  0.00000000000E+00  1.
</event>
<event>
 7   0   1.0000000E+00   6.2497832E+01   7.8125000E-03   1.3829020E-01
       21   -1    0    0  501  502  0.00000000000E+00  0.00000000000E+00  6.03181233276E+00  6.03181233276E+00  0.00000000000E+00  0.00000000000E+00  1.
       21   -1    0    0  502  501  0.00000000000E+00  0.00000000000E+00 -6.47563083273E+02  6.47563083273E+02  0.00000000000E+00  0.00000000000E+00  1.
       25    2    1    2    0    0 -5.32907051820E-15  3.55271367880E-15 -6.41531270940E+02  6.53594895606E+02  1.24995663796E+02  0.00000000000E+00  1.
       23    2    3    3    0    0  7.68864309313E+00 -1.87486993114E+01 -6.03580452955E+02  6.10572883284E+02  8.98846686244E+01  0.00000000000E+00  1.
       22    1    3    3    0    0 -7.68864309313E+00  1.87486993114E+01 -3.79508179856E+01  4.30220123223E+01  0.00000000000E+00  0.00000000000E+00  1.
       16    1    4    4    0    0  3.54103001763E+01 -1.39248060592E-01 -5.09758714626E+02  5.10987138670E+02  9.34406182397E-06  0.00000000000E+00  1.
      -16    1    4    4    0    0 -2.77216570832E+01 -1.86094512508E+01 -9.38217383284E+01  9.95857446136E+01  7.50923907663E-06  0.00000000000E+00  1.
</event>
<event>
 7   0   1.0000000E+00   6.2500102E+01   7.8125000E-03   1.3828935E-01
       21   -1    0    0  501  502  0.00000000000E+00  0.00000000000E+00  2.60848445886E+02  2.60848445886E+02  0.00000000000E+00  0.00000000000E+00  1.
       21   -1    0    0  502  501  0.00000000000E+00  0.00000000000E+00 -1.49752193295E+01  1.49752193295E+01  0.00000000000E+00  0.00000000000E+00  1.
       25    2    1    2    0    0 -7.10542735760E-15  0.00000000000E+00  2.45873226556E+02  2.75823665215E+02  1.25000203022E+02  0.00000000000E+00  1.
       23    2    3    3    0    0 -5.39906181019E+01 -9.45519669762E+00  1.63288848887E+02  1.76704711313E+02  3.94578159789E+01  0.00000000000E+00  1.
       22    1    3    3    0    0  5.39906181019E+01  9.45519669762E+00  8.25843776697E+01  9.91189539024E+01  0.00000000000E+00  0.00000000000E+00  1.
        4    1    4    4  803    0 -3.64468508764E+00 -1.61479252435E+01  3.56632324805E+01  3.93386704785E+01  1.27500000000E+00  0.00000000000E+00  1.
       -4    1    4    4    0  803 -5.03459330142E+01  6.69272854585E+00  1.27625616406E+02  1.37366040834E+02  1.27500000000E+00  0.00000000000E+00  1.
</event>
<event>
 7   0   1.0000000E+00   6.2495455E+01   7.8125000E-03   1.3829108E-01
       21   -1    0    0  501  502  0.00000000000E+00  0.00000000000E+00  6.53116908161E+00  6.53116908161E+00  0.00000000000E+00  0.00000000000E+00  1.
       21   -1    0    0  502  501  0.00000000000E+00  0.00000000000E+00 -5.98006545697E+02  5.98006545697E+02  0.00000000000E+00  0.00000000000E+00  1.
       25    2    1    2    0    0  8.88178419700E-15  2.66453525910E-15 -5.91475376615E+02  6.04537714778E+02  1.24990909459E+02  0.00000000000E+00  1.
       23    2    3    3    0    0 -1.49807843038E+01 -6.63296769905E+00 -5.70523618100E+02  5.77940791202E+02  9.08291757433E+01  0.00000000000E+00  1.
       22    1    3    3    0    0  1.49807843038E+01  6.63296769905E+00 -2.09517585147E+01  2.65969235761E+01  0.00000000000E+00  0.00000000000E+00  1.
        3    1    4    4  803    0 -4.37571503106E+01 -2.77805956785E+01 -2.42391153462E+02  2.47870774852E+02  7.13664510112E-06  0.00000000000E+00  1.
       -3    1    4    4    0  803  2.87763660068E+01  2.11476279794E+01 -3.28132464638E+02  3.30070016550E+02  5.39479660939E-06  0.00000000000E+00  1.
</event>
<event>
 7   0   1.0000000E+00   6.2498165E+01   7.8125000E-03   1.3829007E-01
       21   -1    0    0  501  502  0.00000000000E+00  0.00000000000E+00  4.09794094084E+01  4.09794094084E+01  0.00000000000E+00  0.00000000000E+00  1.
       21   -1    0    0  502  501  0.00000000000E+00  0.00000000000E+00 -9.53166633306E+01  9.53166633306E+01  0.00000000000E+00  0.00000000000E+00  1.
       25    2    1    2    0    0  3.55271367880E-15 -7.10542735760E-15 -5.43372539222E+01  1.36296072739E+02  1.24996329067E+02  0.00000000000E+00  1.
       23    2    3    3    0    0  2.74453477938E+01 -5.72062857749E+00 -3.26900627381E+01  1.00876112364E+02  9.12215826267E+01  0.00000000000E+00  1.
       22    1    3    3    0    0 -2.74453477938E+01  5.72062857749E+00 -2.16471911841E+01  3.54199603755E+01  0.00000000000E+00  0.00000000000E+00  1.
        3    1    4    4  803    0  4.17802620918E+01 -3.53257867920E+01 -3.92497606959E+01  6.73353194177E+01  1.26159253648E-06  0.00000000000E+00  1.
       -3    1    4    4    0  803 -1.43349142980E+01  2.96051582145E+01  6.55969795785E+00  3.35407931458E+01  1.17407534144E-06  0.00000000000E+00  1.
</event>
<event>
 7   0   1.0000000E+00   6.2498857E+01   7.8125000E-03   1.3828981E-01
       21   -1    0    0  501  502  0.00000000000E+00  0.00000000000E+00  4.00224930418E+02  4.00224930418E+02  0.00000000000E+00  0.00000000000E+00  1.
       21   -1    0    0  502  501  0.00000000000E+00  0.00000000000E+00 -9.75977973875E+00  9.75977973875E+00  0.00000000000E+00  0.00000000000E+00  1.
       25    2    1    2    0    0 -3.55271367880E-15 -3.55271367880E-15  3.90465150679E+02  4.09984710157E+02  1.24997714649E+02  0.00000000000E+00  1.
       23    2    3    3    0    0  1.16031636599E+01 -2.47821724855E+01  3.29579738625E+02  3.43232759765E+02  9.18538719059E+01  0.00000000000E+00  1.
       22    1    3    3    0    0 -1.16031636599E+01  2.47821724855E+01  6.08854120549E+01  6.67519503918E+01  0.00000000000E+00  0.00000000000E+00  1.
        2    1    4    4  803    0 -2.61777101298E+01  6.75936181187E+00  3.33021338302E+01  4.28951466482E+01  6.19888305664E-06  0.00000000000E+00  1.
       -2    1    4    4    0  803  3.77808737897E+01 -3.15415342974E+01  2.96277604794E+02  3.00337613317E+02  6.60724947956E-06  0.00000000000E+00  1.
</event>
<event>
 7   0   1.0000000E+00   6.2500482E+01   7.8125000E-03   1.3828921E-01
       21   -1    0    0  501  502  0.00000000000E+00  0.00000000000E+00  3.58641889883E+02  3.58641889883E+02  0.00000000000E+00  0.00000000000E+00  1.
       21   -1    0    0  502  501  0.00000000000E+00  0.00000000000E+00 -1.08919521343E+01  1.08919521343E+01  0.00000000000E+00  0.00000000000E+00  1.
       25    2    1    2    0    0 -7.10542735760E-15  1.77635683940E-15  3.47749937749E+02  3.69533842017E+02  1.25000964763E+02  0.00000000000E+00  1.
       23    2    3    3    0    0  2.47872045543E+01  9.49532737011E+00  2.94744616550E+02  3.10253737202E+02  9.31580684178E+01  0.00000000000E+00  1.
       22    1    3    3    0    0 -2.47872045543E+01 -9.49532737011E+00  5.30053211988E+01  5.92801048150E+01  0.00000000000E+00  0.00000000000E+00  1.
       14    1    4    4    0    0 -1.19736680508E+01  1.59729764019E+01  8.68667549243E+00  2.17706921615E+01  3.35060818733E-06  0.00000000000E+00  1.
      -14    1    4    4    0    0  3.67608726051E+01 -6.47764903176E+00  2.86057941058E+02  2.88483045241E+02  3.81469726562E-06  0.00000000000E+00  1.
</event>
<event>
 7   0   1.0000000E+00   6.2500568E+01   7.8125000E-03   1.3828917E-01
       21   -1    0    0  501  502  0.00000000000E+00  0.00000000000E+00  2.38425449349E+02  2.38425449349E+02  0.00000000000E+00  0.00000000000E+00  1.
       21   -1    0    0  502  501  0.00000000000E+00  0.00000000000E+00 -1.63838257119E+01  1.63838257119E+01  0.00000000000E+00  0.00000000000E+00  1.
       25    2    1    2    0    0  0.00000000000E+00  7.10542735760E-15  2.22041623637E+02  2.54809275061E+02  1.25001136113E+02  0.00000000000E+00  1.
       23    2    3    3    0    0 -1.03360068586E+01 -4.66938348915E+01  3.41210708995E+01  6.08987766451E+01  1.60395219029E+01  0.00000000000E+00  1.
       22    1    3    3    0    0  1.03360068586E+01  4.66938348915E+01  1.87920552738E+02  1.93910498416E+02  0.00000000000E+00  0.00000000000E+00  1.
       15    1    4    4    0    0 -9.79596195156E+00 -2.86711833709E+01  2.92181639090E+01  4.21290368617E+01  1.77680000000E+00  0.00000000000E+00  1.
      -15    1    4    4    0    0 -5.40044907026E-01 -1.80226515207E+01  4.90290699058E+00  1.87697397834E+01  1.77680000000E+00  0.00000000000E+00  1.
</event>
<event>
 7   0   1.0000000E+00   6.2498559E+01   7.8125000E-03   1.3828992E-01
       21   -1    0    0  501  502  0.00000000000E+00  0.00000000000E+00  1.66946370816E+01  1.66946370816E+01  0.00000000000E+00  0.00000000000E+00  1.
       21   -1    0    0  502  501  0.00000000000E+00  0.00000000000E+00 -2.33971537946E+02  2.33971537946E+02  0.00000000000E+00  0.00000000000E+00  1.
       25    2    1    2    0    0  0.00000000000E+00  0.00000000000E+00 -2.17276900864E+02  2.50666175027E+02  1.24997118582E+02  0.00000000000E+00  1.
       23    2    3    3    0    0  2.78540087506E+01 -1.41304776631E+01 -1.76322032842E+02  1.99160666417E+02  8.71779535192E+01  0.00000000000E+00  1.
       22    1    3    3    0    0 -2.78540087506E+01  1.41304776631E+01 -4.09548680220E+01  5.15055086099E+01  0.00000000000E+00  0.00000000000E+00  1.
        5    1    4    4  803    0  3.14548254890E+01 -4.01150057918E+01 -1.59789443180E+02  1.67791085544E+02  4.75000000000E+00  0.00000000000E+00  1.
       -5    1    4    4    0  803 -3.60081673834E+00  2.59845281287E+01 -1.65325896625E+01  3.13695808739E+01  4.75000000000E+00  0.00000000000E+00  1.
</event>
<event>
 7   0   1.0000000E+00   6.2500196E+01   7.8125000E-03   1.3828931E-01
       21   -1    0    0  501  502  0.00000000000E+00  0.00000000000E+00  1.17516044725E+01  1.17516044725E+01  0.00000000000E+00  0.00000000000E+00  1.
       21   -1    0    0  502  501  0.00000000000E+00  0.00000000000E+00 -3.32403506315E+02  3.32403506315E+02  0.00000000000E+00  0.00000000000E+00  1.
       25    2    1    2    0    0 -4.44089209850E-16  1.42108547152E-14 -3.20651901842E+02  3.44155110787E+02  1.25000392503E+02  0.00000000000E+00  1.
       23    2    3    3    0    0  3.25458670163E+00  2.73021507700E+01 -2.73672456821E+02  2.89721040337E+02  9.10256437513E+01  0.00000000000E+00  1.
       22    1    3    3    0    0 -3.25458670163E+00 -2.73021507700E+01 -4.69794450214E+01  5.44340704503E+01  0.00000000000E+00  0.00000000000E+00  1.
        4    1    4    4  803    0 -5.89452104691E+00 -3.18819997152E+01 -6.54159197393E+01  7.30210617873E+01  1.27500000000E+00  0.00000000000E+00  1.
       -4    1    4    4    0  803  9.14910774855E+00  5.91841504851E+01 -2.08256537081E+02  2.16699978549E+02  1.27500000001E+00  0.00000000000E+00  1.
</event>
<event>
 7   0   1.0000000E+00   6.2496355E+01   7.8125000E-03   1.3829075E-01
       21   -1    0    0  501  502  0.00000000000E+00  0.00000000000E+00  3.78389919409E+02  3.78389919409E+02  0.00000000000E+00  0.00000000000E+00  1.
       21   -1    0    0  502  501  0.00000000000E+00  0.00000000000E+00 -1.03221417514E+01  1.03221417514E+01  0.00000000000E+00  0.00000000000E+00  1.
       25    2    1    2    0    0  0.00000000000E+00  1.06581410364E-14  3.68067777658E+02  3.88712061160E+02  1.24992709954E+02  0.00000000000E+00  1.
       23    2    3    3    0    0 -6.86560451302E+00 -2.14759752850E+01  2.19595329904E+02  2.38537423549E+02  9.03860579844E+01  0.00000000000E+00  1.
       22    1    3    3    0    0  6.86560451302E+00  2.14759752850E+01  1.48472447754E+02  1.50174637612E+02  0.00000000000E+00  0.00000000000E+00  1.
       12    1    4    4    0    0  3.62956624288E+01 -3.23659404635E+01  1.12791516998E+02  1.22828561499E+02  2.33601545599E-06  0.00000000000E+00  1.
      -12    1    4    4    0    0 -4.31612669418E+01  1.08899651785E+01  1.06803812906E+02  1.15708862050E+02  2.33601545599E-06  0.00000000000E+00  1.
</event>
<event>
 7   0   1.0000000E+00   6.2500250E+01   7.8125000E-03   1.3828929E-01
       21   -1    0    0  501  502  0.00000000000E+00  0.00000000000E+00  2.26361097701E+01  2.26361097701E+01  0.00000000000E+00  0.00000000000E+00  1.
       21   -1    0    0  502  501  0.00000000000E+00  0.00000000000E+00 -1.72568578460E+02  1.72568578460E+02  0.00000000000E+00  0.00000000000E+00  1.
       25    2    1    2    0    0  0.00000000000E+00  0.00000000000E+00 -1.49932468690E+02  1.95204688230E+02  1.25000500557E+02  0.00000000000E+00  1.
       23    2    3    3    0    0  9.90123480366E+00  1.85005354772E+01 -1.49391832884E+02  1.74214296365E+02  8.71343621185E+01  0.00000000000E+00  1.
       22    1    3    3    0    0 -9.90123480366E+00 -1.85005354772E+01 -5.40635805652E-01  2.09903918652E+01  0.00000000000E+00  0.00000000000E+00  1.
        5    1    4    4  803    0  1.55258993957E+00  5.31201271467E+01 -8.16935651666E+01  9.75733546274E+01  4.75000000000E+00  0.00000000000E+00  1.
       -5    1    4    4    0  803  8.34864486408E+00 -3.46195916696E+01 -6.76982677174E+01  7.66409417372E+01  4.75000000000E+00  0.00000000000E+00  1.
</event>
<event>
 7   0   1.0000000E+00   6.2501162E+01   7.8125000E-03   1.3828895E-01
       21   -1    0    0  501  502  0.00000000000E+00  0.00000000000E+00  2.26777509848E+02  2.26777509848E+02  0.00000000000E+00  0.00000000000E+00  1.
       21   -1    0    0  502  501  0.00000000000E+00  0.00000000000E+00 -1.72256730248E+01  1.72256730248E+01  0.00000000000E+00  0.00000000000E+00  1.
       25    2    1    2    0    0  0.00000000000E+00  0.00000000000E+00  2.09551836824E+02  2.44003182873E+02  1.25002323723E+02  0.00000000000E+00  1.
       23    2    3    3    0    0  2.78752917874E+01  4.52656884200E+01  1.55531322604E+02  1.68212481617E+02  3.57691517988E+01  0.00000000000E+00  1.
       22    1    3    3    0    0 -2.78752917874E+01 -4.52656884200E+01  5.40205142193E+01  7.57907012561E+01  0.00000000000E+00  0.00000000000E+00  1.
       11    1    4    4    0    0 -8.25555931704E+00  5.35778137007E+00  3.15115043074E+01  3.30126488611E+01  5.11004604624E-04  0.00000000000E+00  1.
      -11    1    4    4    0    0  3.61308511044E+01  3.99079070500E+01  1.24019818297E+02  1.35199832756E+02  5.11002157370E-04  0.00000000000E+00  1.
</event>
<event>
 7   0   1.0000000E+00   6.2501211E+01   7.8125000E-03   1.3828893E-01
       21   -1    0    0  501  502  0.00000000000E+00  0.00000000000E+00  1.81874154924E+01  1.81874154924E+01  0.00000000000E+00  0.00000000000E+00  1.
       21   -1    0    0  502  501  0.00000000000E+00  0.00000000000E+00 -2.14785950595E+02  2.14785950595E+02  0.00000000000E+00  0.00000000000E+00  1.
       25    2    1    2    0    0  7.10542735760E-15  0.00000000000E+00 -1.96598535103E+02  2.32973366087E+02  1.25002421183E+02  0.00000000000E+00  1.
       23    2    3    3    0    0  1.95388194345E+01 -2.22571993838E+01 -1.43382824022E+02  1.72071311154E+02  9.04032826198E+01  0.00000000000E+00  1.
       22    1    3    3    0    0 -1.95388194345E+01  2.22571993838E+01 -5.32157110802E+01  6.09020549331E+01  0.00000000000E+00  0.00000000000E+00  1.
       12    1    4    4    0    0  5.12784914866E+01  3.89031621103E+00 -9.90371531086E+01  1.11592902755E+02  0.00000000000E+00  0.00000000000E+00  1.
      -12    1    4    4    0    0 -3.17396720522E+01 -2.61475155948E+01 -4.43456709138E+01  6.04784083997E+01  1.84678237257E-06  0.00000000000E+00  1.
</event>
<event>
 7   0   1.0000000E+00   6.2499547E+01   7.8125000E-03   1.3828956E-01
       21   -1    0    0  501  502  0.00000000000E+00  0.00000000000E+00  5.50835938702E+00  5.50835938702E+00  0.00000000000E+00  0.00000000000E+00  1.
       21   -1    0    0  502  501  0.00000000000E+00  0.00000000000E+00 -7.09139169597E+02  7.09139169597E+02  0.00000000000E+00  0.00000000000E+00  1.
       25    2    1    2    0    0 -3.55271367880E-15  0.00000000000E+00 -7.03630810210E+02  7.14647528984E+02  1.24999094422E+02  0.00000000000E+00  1.
       23    2    3    3    0    0 -1.46320325159E+01 -1.93910664988E+01 -6.17816907381E+02  6.25461567341E+02  9.44157367122E+01  0.00000000000E+00  1.
       22    1    3    3    0    0  1.46320325159E+01  1.93910664988E+01 -8.58139028286E+01  8.91859616429E+01  0.00000000000E+00  0.00000000000E+00  1.
        4    1    4    4  803    0  1.10268158785E+01 -2.53102648136E+01 -5.71494419627E+02  5.72162299931E+02  1.27500000006E+00  0.00000000000E+00  1.
       -4    1    4    4    0  803 -2.56588483944E+01  5.91919831485E+00 -4.63224877544E+01  5.32992674094E+01  1.27500000000E+00  0.00000000000E+00  1.
</event>
<event>
 7   0   1.0000000E+00   6.2498798E+01   7.8125000E-03   1.3828983E-01
       21   -1    0    0  501  502  0.00000000000E+00  0.00000000000E+00  2.55107470563E+02  2.55107470563E+02  0.00000000000E+00  0.00000000000E+00  1.
       21   -1    0    0  502  501  0.00000000000E+00  0.00000000000E+00 -1.53115850232E+01  1.53115850232E+01  0.00000000000E+00  0.00000000000E+00  1.
       25    2    1    2    0    0  0.00000000000E+00 -8.88178419700E-16  2.39795885540E+02  2.70419055587E+02  1.24997595586E+02  0.00000000000E+00  1.
       23    2    3    3    0    0  3.41882345434E+01  4.65145863078E+00  2.28685837779E+02  2.34171233447E+02  3.67216928407E+01  0.00000000000E+00  1.
       22    1    3    3    0    0 -3.41882345434E+01 -4.65145863078E+00  1.11100477615E+01  3.62478221394E+01  0.00000000000E+00  0.00000000000E+00  1.
       13    1    4    4    0    0 -6.83434748403E-01 -1.18007194660E+01  5.55648680003E+01  5.68083601497E+01  1.05659999984E-01  0.00000000000E+00  1.
      -13    1    4    4    0    0  3.48716692918E+01  1.64521780968E+01  1.73120969778E+02  1.77362873298E+02  1.05660000004E-01  0.00000000000E+00  1.
</event>
<event>
 7   0   1.0000000E+00   6.2501104E+01   7.8125000E-03   1.3828897E-01
       21   -1    0    0  501  502  0.00000000000E+00  0.00000000000E+00  1.13999247676E+02  1.13999247676E+02  0.00000000000E+00  0.00000000000E+00  1.
       21   -1    0    0  502  501  0.00000000000E+00  0.00000000000E+00 -3.42667878787E+01  3.42667878787E+01  0.00000000000E+00  0.00000000000E+00  1.
       25    2    1    2    0    0  0.00000000000E+00 -1.06581410364E-14  7.97324597975E+01  1.48266035555E+02  1.25002208596E+02  0.00000000000E+00  1.
       23    2    3    3    0    0 -3.07598978517E+00 -1.73080180496E+01  8.82985327750E+01  1.28710810979E+02  9.19826764703E+01  0.00000000000E+00  1.
       22    1    3    3    0    0  3.07598978517E+00  1.73080180496E+01 -8.56607297754E+00  1.95552245761E+01  0.00000000000E+00  0.00000000000E+00  1.
       13    1    4    4    0    0  4.70768941115E+00 -5.44827661290E+01  4.28027193850E+01  6.94450725066E+01  1.05660000006E-01  0.00000000000E+00  1.
      -13    1    4    4    0    0 -7.78367919632E+00  3.71747480794E+01  4.54958133901E+01  5.92657384722E+01  1.05660000019E-01  0.00000000000E+00  1.
</event>
<event>
 7   0   1.0000000E+00   6.2525901E+01   7.8125000E-03   1.3827972E-01
       21   -1    0    0  501  502  0.00000000000E+00  0.00000000000E+00  2.02832680679E+01  2.02832680679E+01  0.00000000000E+00  0.00000000000E+00  1.
       21   -1    0    0  502  501  0.00000000000E+00  0.00000000000E+00 -1.92744497420E+02  1.92744497420E+02  0.00000000000E+00  0.00000000000E+00  1.
       25    2    1    2    0    0  0.00000000000E+00  0.00000000000E+00 -1.72461229352E+02  2.13027765488E+02  1.25051802223E+02  0.00000000000E+00  1.
       23    2    3    3    0    0 -1.64679090997E+01  1.85927047664E+01 -1.62162932815E+02  1.86140303499E+02  8.79460920500E+01  0.00000000000E+00  1.
       22    1    3    3    0    0  1.64679090997E+01 -1.85927047664E+01 -1.02982965373E+01  2.68874619891E+01  0.00000000000E+00  0.00000000000E+00  1.
       16    1    4    4    0    0 -1.66426080216E+01  5.14826282125E+01 -1.26720792504E+02  1.37788231219E+02  2.69739830470E-06  0.00000000000E+00  1.
      -16    1    4    4    0    0  1.74698921982E-01 -3.28899234461E+01 -3.54421403107E+01  4.83520722803E+01  1.90734863281E-06  0.00000000000E+00  1.
</event>
<event>
 7   0   1.0000000E+00   6.2499513E+01   7.8125000E-03   1.3828957E-01
       21   -1    0    0  501  502  0.00000000000E+00  0.00000000000E+00  1.11730186857E+02  1.11730186857E+02  0.00000000000E+00  0.00000000000E+00  1.
       21   -1    0    0  502  501  0.00000000000E+00  0.00000000000E+00 -3.49609112080E+01  3.49609112080E+01  0.00000000000E+00  0.00000000000E+00  1.
       25    2    1    2    0    0  0.00000000000E+00 -1.22124532709E-15  7.67692756493E+01  1.46691098065E+02  1.24999026268E+02  0.00000000000E+00  1.
       23    2    3    3    0    0  3.61503171447E+01 -9.28330205158E-01  5.50402874658E+01  1.04502756618E+02  8.11399141589E+01  0.00000000000E+00  1.
       22    1    3    3    0    0 -3.61503171447E+01  9.28330205158E-01  2.17289881836E+01  4.21883414477E+01  0.00000000000E+00  0.00000000000E+00  1.
        1    1    4    4  803    0  5.92576694740E+01 -1.58286357867E+01  3.75843600795E+01  7.19347012181E+01  1.26159253648E-06  0.00000000000E+00  1.
       -1    1    4    4    0  803 -2.31073523294E+01  1.49003055816E+01  1.74559273863E+01  3.25680554994E+01  0.00000000000E+00  0.00000000000E+00  1.
</event>
<event>
 7   0   1.0000000E+00   6.2499519E+01   7.8125000E-03   1.3828957E-01
       21   -1    0    0  501  502  0.00000000000E+00  0.00000000000E+00  1.30133894970E+02  1.30133894970E+02  0.00000000000E+00  0.00000000000E+00  1.
       21   -1    0    0  502  501  0.00000000000E+00  0.00000000000E+00 -3.00166988178E+01  3.00166988178E+01  0.00000000000E+00  0.00000000000E+00  1.
       25    2    1    2    0    0  0.00000000000E+00  0.00000000000E+00  1.00117196153E+02  1.60150593788E+02  1.24999038897E+02  0.00000000000E+00  1.
       23    2    3    3    0    0 -1.35213688622E+01  4.89665324421E+01  8.90061655309E+01  1.08150558050E+02  3.45528144826E+01  0.00000000000E+00  1.
       22    1    3    3    0    0  1.35213688622E+01 -4.89665324421E+01  1.11110306218E+01  5.20000357383E+01  0.00000000000E+00  0.00000000000E+00  1.
       11    1    4    4    0    0 -2.91964369876E+00  3.46238256259E+01  8.18735155025E+01  8.89415884798E+01  5.10999487625E-04  0.00000000000E+00  1.
      -11    1    4    4    0    0 -1.06017251634E+01  1.43427068162E+01  7.13265002840E+00  1.92089695701E+01  5.10999828296E-04  0.00000000000E+00  1.
</event>
<event>
 7   0   1.0000000E+00   6.2499151E+01   7.8125000E-03   1.3828970E-01
       21   -1    0    0  501  502  0.00000000000E+00  0.00000000000E+00  2.12151468970E+02  2.12151468970E+02  0.00000000000E+00  0.00000000000E+00  1.
       21   -1    0    0  502  501  0.00000000000E+00  0.00000000000E+00 -1.84120521352E+01  1.84120521352E+01  0.00000000000E+00  0.00000000000E+00  1.
       25    2    1    2    0    0 -3.33066907388E-16  7.10542735760E-15  1.93739416835E+02  2.30563521105E+02  1.24998302504E+02  0.00000000000E+00  1.
       23    2    3    3    0    0  7.01689866044E-01 -2.27267253900E+01  1.81329811743E+02  2.04659955440E+02  9.21314295910E+01  0.00000000000E+00  1.
       22    1    3    3    0    0 -7.01689866044E-01  2.27267253900E+01  1.24096050919E+01  2.59035656650E+01  0.00000000000E+00  0.00000000000E+00  1.
        3    1    4    4  803    0  1.14936719098E+01 -4.85441154146E+01  1.64744440927E+02  1.72131828700E+02  3.30362473978E-06  0.00000000000E+00  1.
       -3    1    4    4    0  803 -1.07919820437E+01  2.58173900246E+01  1.65853708158E+01  3.25281267400E+01  3.06254209963E-06  0.00000000000E+00  1.
</event>
<event>
 7   0   1.0000000E+00   6.2501510E+01   7.8125000E-03   1.3828882E-01
       21   -1    0    0  501  502  0.00000000000E+00  0.00000000000E+00  5.13118716850E+00  5.13118716850E+00  0.00000000000E+00  0.00000000000E+00  1.
       21   -1    0    0  502  501  0.00000000000E+00  0.00000000000E+00 -7.61312851349E+02  7.61312851349E+02  0.00000000000E+00  0.00000000000E+00  1.
       25    2    1    2    0    0  0.00000000000E+00  0.00000000000E+00 -7.56181664180E+02  7.66444038517E+02  1.25003019708E+02  0.00000000000E+00  1.
       23    2    3    3    0    0 -9.16753469098E+00  5.60020828911E+01 -2.61295796324E+02  2.68315240731E+02  2.23001850065E+01  0.00000000000E+00  1.
       22    1    3    3    0    0  9.16753469098E+00 -5.60020828911E+01 -4.94885867856E+02  4.98128797786E+02  0.00000000000E+00  0.00000000000E+00  1.
        4    1    4    4  803    0 -1.42261240636E+01  2.15304947873E+01 -1.23874269480E+02  1.26540132274E+02  1.27500000000E+00  0.00000000000E+00  1.
       -4    1    4    4    0  803  5.05858937261E+00  3.44715881038E+01 -1.37421526845E+02  1.41775108457E+02  1.27500000000E+00  0.00000000000E+00  1.
</event>
<event>
 7   0   1.0000000E+00   6.2500417E+01   7.8125000E-03   1.3828923E-01
       21   -1    0    0  501  502  0.00000000000E+00  0.00000000000E+00  5.15622373297E+02  5.15622373297E+02  0.00000000000E+00  0.00000000000E+00  1.
       21   -1    0    0  502  501  0.00000000000E+00  0.00000000000E+00 -7.57589714569E+00  7.57589714569E+00  0.00000000000E+00  0.00000000000E+00  1.
       25    2    1    2    0    0  3.55271367880E-15  3.55271367880E-15  5.08046476151E+02  5.23198270443E+02  1.25000833055E+02  0.00000000000E+00  1.
       23    2    3    3    0    0 -1.66895920091E+01  1.60071894411E+01  4.61733154397E+02  4.71432486694E+02  9.22838612407E+01  0.00000000000E+00  1.
       22    1    3    3    0    0  1.66895920091E+01 -1.60071894411E+01  4.63133217540E+01  5.17657837488E+01  0.00000000000E+00  0.00000000000E+00  1.
       12    1    4    4    0    0  2.69555974763E-01  6.69651597218E+00  4.47162073068E+02  4.47212293633E+02  1.20631319434E-05  0.00000000000E+00  1.
      -12    1    4    4    0    0 -1.69591479839E+01  9.31067346892E+00  1.45710813299E+01  2.42201930609E+01  7.51869536935E-06  0.00000000000E+00  1.
</event>
<event>
 7   0   1.0000000E+00   6.2500026E+01   7.8125000E-03   1.3828938E-01
       21   -1    0    0  501  502  0.00000000000E+00  0.00000000000E+00  1.47990003567E+03  1.47990003567E+03  0.00000000000E+00  0.00000000000E+00  1.
       21   -1    0    0  502  501  0.00000000000E+00  0.00000000000E+00 -2.63953855277E+00  2.63953855277E+00  0.00000000000E+00  0.00000000000E+00  1.
       25    2    1    2    0    0 -1.77635683940E-15  0.00000000000E+00  1.47726049712E+03  1.48253957422E+03  1.25000051174E+02  0.00000000000E+00  1.
       23    2    3    3    0    0  1.41478374498E+01 -5.79992247804E+01  7.22582306278E+02  7.25503747390E+02  2.58152426212E+01  0.00000000000E+00  1.
       22    1    3    3    0    0 -1.41478374498E+01  5.79992247804E+01  7.54678190838E+02  7.57035826831E+02  1.52587890625E-05  0.00000000000E+00  1.
       13    1    4    4    0    0  1.71542111586E+01 -5.88803242829E+01  7.03238063791E+02  7.05907178797E+02  1.05659999677E-01  0.00000000000E+00  1.
      -13    1    4    4    0    0 -3.00637370880E+00  8.81099502466E-01  1.93442424867E+01  1.95965685933E+01  1.05659999604E-01  0.00000000000E+00  1.
</event>
<event>
 7   0   1.0000000E+00   6.2500252E+01   7.8125000E-03   1.3828929E-01
       21   -1    0    0  501  502  0.00000000000E+00  0.00000000000E+00  6.36698215259E+01  6.36698215259E+01  0.00000000000E+00  0.00000000000E+00  1.
       21   -1    0    0  502  501  0.00000000000E+00  0.00000000000E+00 -6.13521672159E+01  6.13521672159E+01  0.00000000000E+00  0.00000000000E+00  1.
       25    2    1    2    0    0  9.32587340685E-15  0.00000000000E+00  2.31765431002E+00  1.25021988742E+02  1.25000504589E+02  0.00000000000E+00  1.
       23    2    3    3    0    0  2.76501962647E+00 -2.95058902540E+01  3.53219234451E+00  9.53619483532E+01  9.05714188790E+01  0.00000000000E+00  1.
       22    1    3    3    0    0 -2.76501962647E+00  2.95058902540E+01 -1.21453803449E+00  2.96600403886E+01  0.00000000000E+00  0.00000000000E+00  1.
        2    1    4    4  803    0  3.98163459452E+01  6.05785511590E-04  2.08317640544E+01  4.49366644000E+01  1.63451542864E-06  0.00000000000E+00  1.
       -2    1    4    4    0  803 -3.70513263187E+01 -2.95064960395E+01 -1.72995717099E+01  5.04252841532E+01  1.34869915235E-06  0.00000000000E+00  1.
</event>
<event>
 7   0   1.0000000E+00   6.2483092E+01   7.8125000E-03   1.3829570E-01
       21   -1    0    0  501  502  0.00000000000E+00  0.00000000000E+00  4.26408344968E+02  4.26408344968E+02  0.00000000000E+00  0.00000000000E+00  1.
       21   -1    0    0  502  501  0.00000000000E+00  0.00000000000E+00 -9.15586389263E+00  9.15586389263E+00  0.00000000000E+00  0.00000000000E+00  1.
       25    2    1    2    0    0 -8.88178419700E-16  7.10542735760E-15  4.17252481075E+02  4.35564208860E+02  1.24966183733E+02  0.00000000000E+00  1.
       23    2    3    3    0    0 -6.49393399313E+00 -2.91814701850E+01  3.20802710070E+02  3.34587539734E+02  9.02259030229E+01  0.00000000000E+00  1.
       22    1    3    3    0    0  6.49393399313E+00  2.91814701850E+01  9.64497710053E+01  1.00976669126E+02  0.00000000000E+00  0.00000000000E+00  1.
       14    1    4    4    0    0  1.78896005966E+01  1.04754156765E+01  1.58341599403E+01  2.60862563303E+01  2.46045201308E-06  0.00000000000E+00  1.
      -14    1    4    4    0    0 -2.43835345897E+01 -3.96568858616E+01  3.04968550129E+02  3.08501283604E+02  5.39479660939E-06  0.00000000000E+00  1.
</event>
<event>
 7   0   1.0000000E+00   6.2502962E+01   7.8125000E-03   1.3828828E-01
       21   -1    0    0  501  502  0.00000000000E+00  0.00000000000E+00  1.25201236902E+01  1.25201236902E+01  0.00000000000E+00  0.00000000000E+00  1.
       21   -1    0    0  502  501  0.00000000000E+00  0.00000000000E+00 -3.12027286643E+02  3.12027286643E+02  0.00000000000E+00  0.00000000000E+00  1.
       25    2    1    2    0    0  7.10542735760E-15  7.10542735760E-15 -2.99507162953E+02  3.24547410334E+02  1.25005923436E+02  0.00000000000E+00  1.
       23    2    3    3    0    0  3.96788363312E+01  2.84274504905E+01 -2.48781219757E+02  2.54151023302E+02  1.78358444618E+01  0.00000000000E+00  1.
       22    1    3    3    0    0 -3.96788363312E+01 -2.84274504905E+01 -5.07259431967E+01  7.03963870322E+01  0.00000000000E+00  0.00000000000E+00  1.
        5    1    4    4  803    0  4.76674672368E+00  8.12464794614E-01 -2.31564106811E+01  2.41280713901E+01  4.75000000000E+00  0.00000000000E+00  1.
       -5    1    4    4    0  803  3.49120896075E+01  2.76149856959E+01 -2.25624809075E+02  2.30022951911E+02  4.75000000000E+00  0.00000000000E+00  1.
</event>
<event>
 7   0   1.0000000E+00   6.2498450E+01   7.8125000E-03   1.3828996E-01
       21   -1    0    0  501  502  0.00000000000E+00  0.00000000000E+00  9.68259749342E+00  9.68259749342E+00  0.00000000000E+00  0.00000000000E+00  1.
       21   -1    0    0  502  501  0.00000000000E+00  0.00000000000E+00 -4.03409955239E+02  4.03409955239E+02  0.00000000000E+00  0.00000000000E+00  1.
       25    2    1    2    0    0  0.00000000000E+00  0.00000000000E+00 -3.93727357746E+02  4.13092552733E+02  1.24996899504E+02  0.00000000000E+00  1.
       23    2    3    3    0    0  3.71988092472E+01  4.95001112512E+01 -1.72987386902E+02  1.83832553711E+02  5.97991249294E+00  0.00000000000E+00  1.
       22    1    3    3    0    0 -3.71988092472E+01 -4.95001112512E+01 -2.20739970844E+02  2.29259999022E+02  0.00000000000E+00  0.00000000000E+00  1.
        2    1    4    4  803    0  3.91669563770E+00  3.38316509512E+00 -1.11393711014E+01  1.22829922785E+01  2.55675442094E-06  0.00000000000E+00  1.
       -2    1    4    4    0  803  3.32821136095E+01  4.61169461561E+01 -1.61848015800E+02  1.71549561432E+02  1.90734863281E-06  0.00000000000E+00  1.
</event>
<event>
 7   0   1.0000000E+00   6.2500127E+01   7.8125000E-03   1.3828934E-01
       21   -1    0    0  501  502  0.00000000000E+00  0.00000000000E+00  1.92996917537E+02  1.92996917537E+02  0.00000000000E+00  0.00000000000E+00  1.
       21   -1    0    0  502  501  0.00000000000E+00  0.00000000000E+00 -2.02400428013E+01  2.02400428013E+01  0.00000000000E+00  0.00000000000E+00  1.
       25    2    1    2    0    0  0.00000000000E+00  3.55271367880E-15  1.72756874736E+02  2.13236960339E+02  1.25000253943E+02  0.00000000000E+00  1.
       23    2    3    3    0    0 -2.23494208949E+01  1.25172572224E+01  1.60366274040E+02  1.84781638722E+02  8.81517658164E+01  0.00000000000E+00  1.
       22    1    3    3    0    0  2.23494208949E+01 -1.25172572224E+01  1.23906006960E+01  2.84553216168E+01  0.00000000000E+00  0.00000000000E+00  1.
        1    1    4    4  803    0 -2.20260232356E+01 -1.86181177301E+01  8.95054447145E+00  3.01975537705E+01  1.31130218506E-06  0.00000000000E+00  1.
       -1    1    4    4    0  803 -3.23397659317E-01  3.11353749525E+01  1.51415729568E+02  1.54584085051E+02  1.90734863281E-06  0.00000000000E+00  1.
</event>
<event>
 7   0   1.0000000E+00   6.2499891E+01   7.8125000E-03   1.3828943E-01
       21   -1    0    0  501  502  0.00000000000E+00  0.00000000000E+00  5.48299564268E+01  5.48299564268E+01  0.00000000000E+00  0.00000000000E+00  1.
       21   -1    0    0  502  501  0.00000000000E+00  0.00000000000E+00 -7.12427406672E+01  7.12427406672E+01  0.00000000000E+00  0.00000000000E+00  1.
       25    2    1    2    0    0  1.77635683940E-15 -7.10542735760E-15 -1.64127842404E+01  1.26072697094E+02  1.24999781864E+02  0.00000000000E+00  1.
       23    2    3    3    0    0 -1.07591303842E+01  3.74450870746E+01 -5.49404382897E+01  7.12796906133E+01  2.33334331338E+01  0.00000000000E+00  1.
       22    1    3    3    0    0  1.07591303842E+01 -3.74450870746E+01  3.85276540493E+01  5.47930064807E+01  0.00000000000E+00  0.00000000000E+00  1.
       15    1    4    4    0    0 -1.34193862045E+01  3.65635452652E+01 -5.55886655171E+01  6.78986709787E+01  1.77680000000E+00  0.00000000000E+00  1.
      -15    1    4    4    0    0  2.66025582023E+00  8.81541809393E-01  6.48227227384E-01  3.38101963454E+00  1.77680000000E+00  0.00000000000E+00  1.
</event>
</LesHouchesEvents>
