<LesHouchesEvents version="1.0">
<!--
Output from the JHUGenerator v7.4.1 described in arXiv:1001.3396 [hep-ph], arXiv:1208.4018 [hep-ph], arXiv:1309.4819 [hep-ph], arXiv:1606.03107 [hep-ph]
   
   Command line: ./JHUGen Seed=765543533 PDFSet=3 Process=0 VegasNc0=100000 VegasNc1=100 VegasNc2=100 DataFile=compare_to_reference/ggH_ZZ_contact Unweighted=0 WriteWeightedLHE DecayMode1=9 DecayMode2=9 ghg2=0.383432074687728,0.918260989345657 ghg3=6294.49296087723,2253.12941717723 ghg4=0.335495485382528,0.17285803562226 ghz1=0.154934976270359,0.453918144016304 ghz2=0.469297059144414,0.745302300947002 ghz3=3947.40921062637,3597.4885961919 ghz4=0.177791270766536,0.920170534486048 ghzgs2=0.0240331049939919,0.232175381101053 ghzgs3=0.331962910170583,0.0450183240308457 ghzgs4=0.808286540247172,0.133184346613754 ghgsgs2=0.530394804029869,0.211218112389125 ghgsgs3=0.914978695198138,0.055650585081425 ghgsgs4=0.694524307167701,0.511424456076726 ghz1_prime=0.143354267833606,0.0910761280837012 ghz1_prime2=7416.7007267243,4861.35525489789 ghz1_prime3=4431.44656075298,4436.48625894176 ghz1_prime4=2441.69123517064,6946.16318931911 ghz1_prime5=78314042.889773,69465359.939181 ghz1_prime6=51233058.8130761,29537873.585
   
   Input Parameter:
    Collider: P-P, sqrt(s)=13000.00
    Resonance: spin=0, mass= 125.00 width=   0.00407
    DecayMode1: 9  DecayMode2: 9
    Z boson: mass=91.188, width=2.4952
      m(gammastar) >=     4.00 GeV
    Random seed:   765543533
    To reproduce results using this seed, JHUGen should be compiled with the same compiler:
      GNU Fortran (GCC) 6.3.0
    
    OffXVV: TTT
    WidthScheme:   2
    PChannel: 0
    PDFSet:   3
    Unweighted: F
    Interference: T
    Intermediate off-shell photons: T
    
    Spin-0-VV couplings: 
      generate_as=F
      kappa_top=  0.10000000E+01  0.00000000E+00i
      kappa_bot=  0.10000000E+01  0.00000000E+00i
      ghg2=  0.38343207E+00  0.91826099E+00i
      ghg3=  0.62944930E+04  0.22531294E+04i
      ghg4=  0.33549549E+00  0.17285804E+00i
      ghz1=  0.15493498E+00  0.45391814E+00i
      ghz2=  0.46929706E+00  0.74530230E+00i
      ghz3=  0.39474092E+04  0.35974886E+04i
      ghz4=  0.17779127E+00  0.92017053E+00i
      ghz1_prime=   0.14335427E+00  0.91076128E-01i,    Lambda_z1=  1.0000E+04
      ghz1_prime2=  0.74167007E+04  0.48613553E+04i,    Lambda_z1=  1.0000E+04
      ghz1_prime3=  0.44314466E+04  0.44364863E+04i,    Lambda_z1=  1.0000E+04
      ghz1_prime4=  0.24416912E+04  0.69461632E+04i,    Lambda_z1=  1.0000E+04
      ghz1_prime5=  0.78314043E+08  0.69465360E+08i,    Lambda_z1=  1.0000E+04
      ghz1_prime6=  0.51233059E+08  0.29537874E+08i,    Lambda_z1=  1.0000E+04
      ghz1_prime7=  0.47832193E+08  0.59559650E+08i,    Lambda_z1=  1.0000E+04
      ghz2_prime=   0.57465793E+00  0.41992191E+00i,    Lambda_z2=  1.0000E+04
      ghz2_prime2=  0.43854587E+04  0.61761246E+04i,    Lambda_z2=  1.0000E+04
      ghz2_prime3=  0.45921696E+04  0.75499391E+04i,    Lambda_z2=  1.0000E+04
      ghz2_prime4=  0.84715906E+04  0.71997238E+04i,    Lambda_z2=  1.0000E+04
      ghz2_prime5=  0.19558280E+08  0.94843889E+08i,    Lambda_z2=  1.0000E+04
      ghz2_prime6=  0.23209661E+08  0.67617823E+08i,    Lambda_z2=  1.0000E+04
      ghz2_prime7=  0.70059904E+07  0.53660191E+08i,    Lambda_z2=  1.0000E+04
      ghz3_prime=   0.40457065E+04  0.19693161E+04i,    Lambda_z3=  1.0000E+04
      ghz3_prime2=  0.33402456E+08  0.37615919E+07i,    Lambda_z3=  1.0000E+04
      ghz3_prime3=  0.44855080E+08  0.12184926E+08i,    Lambda_z3=  1.0000E+04
      ghz3_prime4=  0.27878602E+08  0.78237524E+08i,    Lambda_z3=  1.0000E+04
      ghz3_prime5=  0.93246434E+12  0.63158085E+12i,    Lambda_z3=  1.0000E+04
      ghz3_prime6=  0.35811562E+12  0.41077746E+12i,    Lambda_z3=  1.0000E+04
      ghz3_prime7=  0.62298148E+12  0.61827857E+12i,    Lambda_z3=  1.0000E+04
      ghz4_prime=   0.41653395E+00  0.33115593E+00i,    Lambda_z4=  1.0000E+04
      ghz4_prime2=  0.75883756E+04  0.39234327E+04i,    Lambda_z4=  1.0000E+04
      ghz4_prime3=  0.89560755E+04  0.93020315E+04i,    Lambda_z4=  1.0000E+04
      ghz4_prime4=  0.32034411E+04  0.28637675E+04i,    Lambda_z4=  1.0000E+04
      ghz4_prime5=  0.49012574E+08  0.74595801E+08i,    Lambda_z4=  1.0000E+04
      ghz4_prime6=  0.73323810E+08  0.53968832E+08i,    Lambda_z4=  1.0000E+04
      ghz4_prime7=  0.68563876E+08  0.43025214E+08i,    Lambda_z4=  1.0000E+04
      ghzgs2=  0.24033105E-01  0.23217538E+00i
      ghzgs3=  0.33196291E+00  0.45018324E-01i
      ghzgs4=  0.80828654E+00  0.13318435E+00i
      ghzgs1_prime2=  0.56689643E+04  0.70176759E+04i,  Lambda_zgs1=  1.0000E+04
      ghgsgs2=  0.53039480E+00  0.21121811E+00i
      ghgsgs3=  0.91497870E+00  0.55650585E-01i
      ghgsgs4=  0.69452431E+00  0.51142446E+00i
      ghzzp2=  0.15493498E+00  0.45391814E+00i
      ghzzp4=  0.39474092E+04  0.35974886E+04i
      ghzzp1_prime2=  0.75883756E+04  0.39234327E+04i,    Lambda_z1=  1.0000E+04
      ghzzp1_prime4=  0.32034411E+04  0.28637675E+04i,    Lambda_z1=  1.0000E+04
      ghzzp1_prime6=  0.73323810E+08  0.53968832E+08i,    Lambda_z1=  1.0000E+04
      ghzzp2_prime=   0.14335427E+00  0.91076128E-01i,    Lambda_z2=  1.0000E+04
      ghzzp2_prime3=  0.44314466E+04  0.44364863E+04i,    Lambda_z2=  1.0000E+04
      ghzzp2_prime5=  0.78314043E+08  0.69465360E+08i,    Lambda_z2=  1.0000E+04
      ghzzp2_prime7=  0.47832193E+08  0.59559650E+08i,    Lambda_z2=  1.0000E+04
      ghzzp3_prime2=  0.43854587E+04  0.61761246E+04i,    Lambda_z3=  1.0000E+04
      ghzzp3_prime4=  0.84715906E+04  0.71997238E+04i,    Lambda_z3=  1.0000E+04
      ghzzp3_prime6=  0.23209661E+08  0.67617823E+08i,    Lambda_z3=  1.0000E+04
      ghzzp4_prime=   0.40457065E+04  0.19693161E+04i,    Lambda_z4=  1.0000E+04
      ghzzp4_prime3=  0.44855080E+08  0.12184926E+08i,    Lambda_z4=  1.0000E+04
      ghzzp4_prime5=  0.93246434E+12  0.63158085E+12i,    Lambda_z4=  1.0000E+04
      ghzzp4_prime7=  0.62298148E+12  0.61827857E+12i,    Lambda_z4=  1.0000E+04
      ghzpgs2=  0.24033105E-01  0.23217538E+00i
      ghzpgs3=  0.33196291E+00  0.45018324E-01i
      ghzpgs4=  0.80828654E+00  0.13318435E+00i
      ghzpgs1_prime2=  0.56689643E+04  0.70176759E+04i,  Lambda_zgs1=  1.0000E+04
      ghzpzp1=  0.17779127E+00  0.92017053E+00i
      ghzpzp3=  0.46929706E+00  0.74530230E+00i
      ghzpzp1_prime=   0.41653395E+00  0.33115593E+00i,    Lambda_z1=  1.0000E+04
      ghzpzp1_prime3=  0.89560755E+04  0.93020315E+04i,    Lambda_z1=  1.0000E+04
      ghzpzp1_prime5=  0.49012574E+08  0.74595801E+08i,    Lambda_z1=  1.0000E+04
      ghzpzp1_prime7=  0.68563876E+08  0.43025214E+08i,    Lambda_z1=  1.0000E+04
      ghzpzp2_prime2=  0.74167007E+04  0.48613553E+04i,    Lambda_z2=  1.0000E+04
      ghzpzp2_prime4=  0.24416912E+04  0.69461632E+04i,    Lambda_z2=  1.0000E+04
      ghzpzp2_prime6=  0.51233059E+08  0.29537874E+08i,    Lambda_z2=  1.0000E+04
      ghzpzp3_prime=   0.57465793E+00  0.41992191E+00i,    Lambda_z3=  1.0000E+04
      ghzpzp3_prime3=  0.45921696E+04  0.75499391E+04i,    Lambda_z3=  1.0000E+04
      ghzpzp3_prime5=  0.19558280E+08  0.94843889E+08i,    Lambda_z3=  1.0000E+04
      ghzpzp3_prime7=  0.70059904E+07  0.53660191E+08i,    Lambda_z3=  1.0000E+04
      ghzpzp4_prime2=  0.33402456E+08  0.37615919E+07i,    Lambda_z4=  1.0000E+04
      ghzpzp4_prime4=  0.27878602E+08  0.78237524E+08i,    Lambda_z4=  1.0000E+04
      ghzpzp4_prime6=  0.35811562E+12  0.41077746E+12i,    Lambda_z4=  1.0000E+04
      Lambda=  1000.0
      Lambda_Q=  10000.0
      Lambda_z11=   1.3888E+02
      Lambda_z21=   1.5452E+02
      Lambda_z31=   1.1998E+02
      Lambda_z41=   1.8136E+02
      Lambda_z12=   1.3667E+02
      Lambda_z22=   1.6659E+02
      Lambda_z32=   1.3884E+02
      Lambda_z42=   4.9064E+01
      Lambda_z10=   9.6973E+00
      Lambda_z20=   1.9326E+02
      Lambda_z30=   8.9204E+01
      Lambda_z40=   1.6167E+02
    Z' boson: heavy mass limit (contact interaction)
      ezp_El_left=    0.10000000E+01  0.00000000E+00i
      ezp_El_right=   0.20000000E+01  0.00000000E+00i
      ezp_Mu_left=    0.30000000E+01  0.40000000E+01i
      ezp_Mu_right=   0.50000000E+01  0.60000000E+01i
      ezp_Ta_left=    0.20000000E+01  0.50000000E+01i
      ezp_Ta_right=   0.70000000E+01  0.30000000E+01i
      ezp_NuE_left=   0.10000000E+01  0.40000000E+01i
      ezp_NuE_right=  0.80000000E+01  0.20000000E+01i
      ezp_Up_left=    0.10000000E+01  0.10000000E+01i
      ezp_Up_right=   0.00000000E+00  0.40000000E+01i
      ezp_Dn_left=    0.90000000E+01  0.10000000E+01i
      ezp_Dn_right=   0.50000000E+01  0.40000000E+01i
      ezp_Str_left=   0.10000000E+01  0.30000000E+01i
      ezp_Str_right=  0.50000000E+01  0.30000000E+01i
      ezp_Chm_left=   0.10000000E+02  0.20000000E+01i
      ezp_Chm_right=  0.80000000E+01  0.30000000E+01i
      ezp_Bot_left=   0.10000000E+01  0.30000000E+01i
      ezp_Bot_right=  0.40000000E+01  0.40000000E+01i
    
    LHE output: compare_to_reference/ggH_ZZ_contact.lhe
    Histogram output: compare_to_reference/ggH_ZZ_contact.dat
    Log file: compare_to_reference/ggH_ZZ_contact.log
    
-->
<init>
2212 2212   6500.0000000000000000    6500.0000000000000000 0 0  263000  263000  4  1
 1.0000000E+00  1.0000000E+14  1.0000000E+00   0
</init>
<event>
 9   0   1.7236128E-09   6.2499589E+01   7.8125000E-03   1.3828954E-01
       21   -1    0    0  501  502  0.00000000000E+00  0.00000000000E+00  8.15963467810E+02  8.15963467810E+02  0.00000000000E+00  0.00000000000E+00  1.
       21   -1    0    0  502  501  0.00000000000E+00  0.00000000000E+00 -4.78722239170E+00  4.78722239170E+00  0.00000000000E+00  0.00000000000E+00  1.
       25    2    1    2    0    0  3.55271367880E-15  2.66453525910E-15  8.11176245418E+02  8.20750690202E+02  1.24999177340E+02  0.00000000000E+00  1.
       23    2    3    3    0    0 -1.94097445989E+01  6.43090057237E+00  3.31323583719E+02  3.37045736410E+02  5.83645152141E+01  0.00000000000E+00  1.
       23    2    3    3    0    0  1.94097445989E+01 -6.43090057237E+00  4.79852661699E+02  4.83704953792E+02  5.73917303727E+01  0.00000000000E+00  1.
        4    1    4    4  804    0  1.49426516106E+01  1.17001647528E+01  2.09313044244E+02  2.10175528566E+02  1.27500000000E+00  0.00000000000E+00  1.
       -4    1    4    4    0  804 -3.43523962095E+01 -5.26926418043E+00  1.22010539475E+02  1.26870207844E+02  1.27500000000E+00  0.00000000000E+00  1.
        1    1    5    5  803    0 -6.36441043613E+00 -2.31127187630E+01  3.22202969298E+02  3.23093573099E+02  5.39479660939E-06  0.00000000000E+00  1.
       -1    1    5    5    0  803  2.57741550350E+01  1.66818181906E+01  1.57649692401E+02  1.60611380892E+02  2.69739830470E-06  0.00000000000E+00  1.
</event>
<event>
 9   0   2.4949184E-12   6.2499586E+01   7.8125000E-03   1.3828954E-01
       21   -1    0    0  501  502  0.00000000000E+00  0.00000000000E+00  8.15319464669E+02  8.15319464669E+02  0.00000000000E+00  0.00000000000E+00  1.
       21   -1    0    0  502  501  0.00000000000E+00  0.00000000000E+00 -4.79100335414E+00  4.79100335414E+00  0.00000000000E+00  0.00000000000E+00  1.
       25    2    1    2    0    0  0.00000000000E+00 -1.77635683940E-15  8.10528461315E+02  8.20110468024E+02  1.24999172636E+02  0.00000000000E+00  1.
       23    2    3    3    0    0 -2.98239615224E+01  1.00649646611E+01  5.62222240012E+02  5.66021551591E+02  5.74088626164E+01  0.00000000000E+00  1.
       23    2    3    3    0    0  2.98239615224E+01 -1.00649646611E+01  2.48306221303E+02  2.54088916432E+02  4.37541509050E+01  0.00000000000E+00  1.
        3    1    4    4  803    0 -2.92668187050E+01  1.83044488157E+01  5.51041195475E+02  5.52121362333E+02  1.07895932188E-05  0.00000000000E+00  1.
       -3    1    4    4    0  803 -5.57142817391E-01 -8.23948415459E+00  1.11810445375E+01  1.39001893585E+01  5.48103520039E-06  0.00000000000E+00  1.
       11    1    5    5    0    0 -9.07255762554E+00 -7.06929548079E+00  1.02882709962E+02  1.03523612040E+02  5.11007496819E-04  0.00000000000E+00  1.
      -11    1    5    5    0    0  3.88965191479E+01 -2.99566918034E+00  1.45423511341E+02  1.50565304392E+02  5.11005717009E-04  0.00000000000E+00  1.
</event>
<event>
 9   0   1.2924636E-12   6.2497663E+01   7.8125000E-03   1.3829026E-01
       21   -1    0    0  501  502  0.00000000000E+00  0.00000000000E+00  8.04140883349E+02  8.04140883349E+02  0.00000000000E+00  0.00000000000E+00  1.
       21   -1    0    0  502  501  0.00000000000E+00  0.00000000000E+00 -4.85730544007E+00  4.85730544007E+00  0.00000000000E+00  0.00000000000E+00  1.
       25    2    1    2    0    0  5.32907051820E-15 -1.77635683940E-15  7.99283577909E+02  8.08998188789E+02  1.24995326109E+02  0.00000000000E+00  1.
       23    2    3    3    0    0  5.27833093619E+00  9.01545470738E+00  2.58776311748E+02  2.65350237783E+02  5.77618383405E+01  0.00000000000E+00  1.
       23    2    3    3    0    0 -5.27833093619E+00 -9.01545470738E+00  5.40507266161E+02  5.43647951006E+02  5.74094997316E+01  0.00000000000E+00  1.
        4    1    4    4  804    0  1.73899770131E+01  9.99567501346E+00  2.48706760861E+02  2.49517541152E+02  1.27499999999E+00  0.00000000000E+00  1.
       -4    1    4    4    0  804 -1.21116460769E+01 -9.80220306081E-01  1.00695508868E+01  1.58326966308E+01  1.27500000000E+00  0.00000000000E+00  1.
       15    1    5    5    0    0 -2.69758282654E+01 -1.05176850857E+01  4.31728904780E+02  4.32702347176E+02  1.77679999997E+00  0.00000000000E+00  1.
      -15    1    5    5    0    0  2.16974973292E+01  1.50223037831E+00  1.08778361381E+02  1.10945603831E+02  1.77680000000E+00  0.00000000000E+00  1.
</event>
<event>
 9   0   1.8754169E-14   6.2499587E+01   7.8125000E-03   1.3828954E-01
       21   -1    0    0  501  502  0.00000000000E+00  0.00000000000E+00  8.16028658088E+02  8.16028658088E+02  0.00000000000E+00  0.00000000000E+00  1.
       21   -1    0    0  502  501  0.00000000000E+00  0.00000000000E+00 -4.78683973466E+00  4.78683973466E+00  0.00000000000E+00  0.00000000000E+00  1.
       25    2    1    2    0    0 -5.32907051820E-15  0.00000000000E+00  8.11241818354E+02  8.20815497823E+02  1.24999174480E+02  0.00000000000E+00  1.
       23    2    3    3    0    0 -1.06612959897E+01 -1.82391664245E+01  4.82812475698E+02  4.86668699854E+02  5.73777509479E+01  0.00000000000E+00  1.
       23    2    3    3    0    0  1.06612959897E+01  1.82391664245E+01  3.28429342656E+02  3.34146797969E+02  5.78093336036E+01  0.00000000000E+00  1.
        4    1    4    4  804    0  9.54846176563E+00 -3.09001694253E+00  3.98898030977E+02  3.99026297466E+02  1.27499999999E+00  0.00000000000E+00  1.
       -4    1    4    4    0  804 -2.02097577553E+01 -1.51491494820E+01  8.39144447207E+01  8.76424023880E+01  1.27499999999E+00  0.00000000000E+00  1.
        3    1    5    5  803    0 -2.03397552817E+01  7.82912766876E+00  2.14870988987E+02  2.15973477160E+02  3.81469726562E-06  0.00000000000E+00  1.
       -3    1    5    5    0  803  3.10010512714E+01  1.04100387558E+01  1.13558353669E+02  1.18173321010E+02  2.69739830470E-06  0.00000000000E+00  1.
</event>
<event>
 9   0   1.2232979E-16   6.2499587E+01   7.8125000E-03   1.3828954E-01
       21   -1    0    0  501  502  0.00000000000E+00  0.00000000000E+00  8.15189684601E+02  8.15189684601E+02  0.00000000000E+00  0.00000000000E+00  1.
       21   -1    0    0  502  501  0.00000000000E+00  0.00000000000E+00 -4.79176616964E+00  4.79176616964E+00  0.00000000000E+00  0.00000000000E+00  1.
       25    2    1    2    0    0  7.10542735760E-15  3.55271367880E-15  8.10397918431E+02  8.19981450770E+02  1.24999173637E+02  0.00000000000E+00  1.
       23    2    3    3    0    0 -1.63254095231E+01 -2.78973069348E+01  5.69124885381E+02  5.72924084057E+02  5.73941826601E+01  0.00000000000E+00  1.
       23    2    3    3    0    0  1.63254095231E+01  2.78973069348E+01  2.41273033050E+02  2.47057366713E+02  4.21887098576E+01  0.00000000000E+00  1.
       12    1    4    4    0    0  6.66658358918E+00 -7.98934326395E+00  4.45208524602E+02  4.45330106012E+02  0.00000000000E+00  0.00000000000E+00  1.
      -12    1    4    4    0    0 -2.29919931122E+01 -1.99079636708E+01  1.23916360779E+02  1.27593978146E+02  5.04637014592E-06  0.00000000000E+00  1.
        3    1    5    5  803    0 -6.69437146619E+00 -5.99064758128E+00  8.61067035621E+01  8.65740542316E+01  1.90734863281E-06  0.00000000000E+00  1.
       -3    1    5    5    0  803  2.30197809892E+01  3.38879545161E+01  1.55166329488E+02  1.60483312481E+02  0.00000000000E+00  0.00000000000E+00  1.
</event>
<event>
 9   0   1.0738812E-08   6.2499587E+01   7.8125000E-03   1.3828954E-01
       21   -1    0    0  501  502  0.00000000000E+00  0.00000000000E+00  6.91689281735E+02  6.91689281735E+02  0.00000000000E+00  0.00000000000E+00  1.
       21   -1    0    0  502  501  0.00000000000E+00  0.00000000000E+00 -5.64733112149E+00  5.64733112149E+00  0.00000000000E+00  0.00000000000E+00  1.
       25    2    1    2    0    0 -1.06581410364E-14 -1.77635683940E-15  6.86041950613E+02  6.97336612856E+02  1.24999174512E+02  0.00000000000E+00  1.
       23    2    3    3    0    0 -3.00027390436E+01  1.08959848231E+01  4.81340580783E+02  4.85801766844E+02  5.74083193079E+01  0.00000000000E+00  1.
       23    2    3    3    0    0  3.00027390436E+01 -1.08959848231E+01  2.04701369831E+02  2.11534846012E+02  4.27253254085E+01  0.00000000000E+00  1.
        3    1    4    4  804    0 -3.38658143955E-01  1.16677550211E+01  3.80667736457E+02  3.80846657824E+02  5.39479660939E-06  0.00000000000E+00  1.
       -3    1    4    4    0  804 -2.96640808997E+01 -7.71770198015E-01  1.00672844325E+02  1.04955109020E+02  1.34869915235E-06  0.00000000000E+00  1.
       11    1    5    5    0    0  4.14705633551E-01 -1.93777682902E+01  1.16871299933E+02  1.18467593176E+02  5.10998597706E-04  0.00000000000E+00  1.
      -11    1    5    5    0    0  2.95880334101E+01  8.48178346704E+00  8.78300698974E+01  9.30672528353E+01  5.11002157370E-04  0.00000000000E+00  1.
</event>
<event>
 9   0   1.1274615E-12   6.2499587E+01   7.8125000E-03   1.3828954E-01
       21   -1    0    0  501  502  0.00000000000E+00  0.00000000000E+00  8.15816217257E+02  8.15816217257E+02  0.00000000000E+00  0.00000000000E+00  1.
       21   -1    0    0  502  501  0.00000000000E+00  0.00000000000E+00 -4.78808619785E+00  4.78808619785E+00  0.00000000000E+00  0.00000000000E+00  1.
       25    2    1    2    0    0 -7.10542735760E-15 -7.10542735760E-15  8.11028131059E+02  8.20604303454E+02  1.24999173915E+02  0.00000000000E+00  1.
       23    2    3    3    0    0  2.05641593340E+01  3.51513514913E+01  1.75603438170E+02  1.81290975170E+02  1.92703923236E+01  0.00000000000E+00  1.
       23    2    3    3    0    0 -2.05641593340E+01 -3.51513514913E+01  6.35424692889E+02  6.39313328284E+02  5.74324753790E+01  0.00000000000E+00  1.
       12    1    4    4    0    0  1.51058584146E+01  1.93111410246E+01  1.37470940327E+02  1.39640132342E+02  0.00000000000E+00  0.00000000000E+00  1.
      -12    1    4    4    0    0  5.45830091943E+00  1.58402104667E+01  3.81324978422E+01  4.16508428275E+01  0.00000000000E+00  0.00000000000E+00  1.
        2    1    5    5  804    0 -2.99437440893E+01 -4.37544935926E+01  5.81272829704E+02  5.83685862491E+02  1.07895932188E-05  0.00000000000E+00  1.
       -2    1    5    5    0  804  9.37958475533E+00  8.60314210126E+00  5.41518631848E+01  5.56274658933E+01  5.39479660939E-06  0.00000000000E+00  1.
</event>
<event>
 9   0   2.1008126E-12   6.2499586E+01   7.8125000E-03   1.3828954E-01
       21   -1    0    0  501  502  0.00000000000E+00  0.00000000000E+00  8.16757328351E+02  8.16757328351E+02  0.00000000000E+00  0.00000000000E+00  1.
       21   -1    0    0  502  501  0.00000000000E+00  0.00000000000E+00 -4.78256900451E+00  4.78256900451E+00  0.00000000000E+00  0.00000000000E+00  1.
       25    2    1    2    0    0 -1.77635683940E-15 -3.55271367880E-15  8.11974759347E+02  8.21539897356E+02  1.24999172522E+02  0.00000000000E+00  1.
       23    2    3    3    0    0 -5.12605742119E+00 -8.75879754120E+00  5.49867293570E+02  5.52949199458E+02  5.74089160706E+01  0.00000000000E+00  1.
       23    2    3    3    0    0  5.12605742119E+00  8.75879754120E+00  2.62107465777E+02  2.68590697898E+02  5.77723669426E+01  0.00000000000E+00  1.
        1    1    4    4  803    0  2.40834982755E+01  6.63828391622E+00  2.64883592869E+02  2.66059015021E+02  0.00000000000E+00  0.00000000000E+00  1.
       -1    1    4    4    0  803 -2.92095556967E+01 -1.53970814574E+01  2.84983700701E+02  2.86890184438E+02  0.00000000000E+00  0.00000000000E+00  1.
        4    1    5    5  804    0 -1.40740344928E+01 -1.64938062380E+01  1.65039732752E+02  1.66462797955E+02  1.27500000000E+00  0.00000000000E+00  1.
       -4    1    5    5    0  804  1.92000919140E+01  2.52526037792E+01  9.70677330242E+01  1.02127899942E+02  1.27500000000E+00  0.00000000000E+00  1.
</event>
<event>
 9   0   5.6188035E-12   6.2499589E+01   7.8125000E-03   1.3828954E-01
       21   -1    0    0  501  502  0.00000000000E+00  0.00000000000E+00  8.14560387775E+02  8.14560387775E+02  0.00000000000E+00  0.00000000000E+00  1.
       21   -1    0    0  502  501  0.00000000000E+00  0.00000000000E+00 -4.79546840978E+00  4.79546840978E+00  0.00000000000E+00  0.00000000000E+00  1.
       25    2    1    2    0    0  7.10542735760E-15  0.00000000000E+00  8.09764919365E+02  8.19355856185E+02  1.24999177716E+02  0.00000000000E+00  1.
       23    2    3    3    0    0 -1.49725678367E+01 -2.56098484401E+01  5.58675207104E+02  5.62613143277E+02  5.94602373898E+01  0.00000000000E+00  1.
       23    2    3    3    0    0  1.49725678367E+01  2.56098484401E+01  2.51089712261E+02  2.56742712908E+02  4.46176523714E+01  0.00000000000E+00  1.
        2    1    4    4  803    0  8.06106303981E+00 -7.10703134592E+00  4.45979460926E+02  4.46108922001E+02  7.62939453125E-06  0.00000000000E+00  1.
       -2    1    4    4    0  803 -2.30336308765E+01 -1.85028170941E+01  1.12695746178E+02  1.16504221476E+02  6.87704329579E-06  0.00000000000E+00  1.
        5    1    5    5  804    0 -1.35184598037E+01  9.68000166684E+00  1.33459899773E+02  1.34575475236E+02  4.75000000000E+00  0.00000000000E+00  1.
       -5    1    5    5    0  804  2.84910276404E+01  1.59298467732E+01  1.17629812488E+02  1.22167237671E+02  4.75000000000E+00  0.00000000000E+00  1.
</event>
<event>
 9   0   1.5717876E-11   6.2499588E+01   7.8125000E-03   1.3828954E-01
       21   -1    0    0  501  502  0.00000000000E+00  0.00000000000E+00  1.08597834339E+02  1.08597834339E+02  0.00000000000E+00  0.00000000000E+00  1.
       21   -1    0    0  502  501  0.00000000000E+00  0.00000000000E+00 -3.59693953649E+01  3.59693953649E+01  0.00000000000E+00  0.00000000000E+00  1.
       25    2    1    2    0    0  0.00000000000E+00  3.55271367880E-15  7.26284389742E+01  1.44567229704E+02  1.24999175023E+02  0.00000000000E+00  1.
       23    2    3    3    0    0 -1.50466476106E+01 -2.57313521306E+01  5.87734509171E+01  8.73990427129E+01  5.74087976503E+01  0.00000000000E+00  1.
       23    2    3    3    0    0  1.50466476106E+01  2.57313521306E+01  1.38549880571E+01  5.71681869911E+01  4.67732490106E+01  0.00000000000E+00  1.
        2    1    4    4  804    0 -1.86864410480E+01 -1.88766781624E+00  6.03722460467E+01  6.32262166684E+01  0.00000000000E+00  0.00000000000E+00  1.
       -2    1    4    4    0  804  3.63979343742E+00 -2.38436843143E+01 -1.59879512963E+00  2.41728262446E+01  1.10328986409E-06  0.00000000000E+00  1.
        4    1    5    5  803    0 -1.06365580634E+01 -3.74690947183E+00  1.40353726419E+01  1.80497370680E+01  1.27500000000E+00  0.00000000000E+00  1.
       -4    1    5    5    0  803  2.56832056740E+01  2.94782616024E+01 -1.80384584799E-01  3.91184499232E+01  1.27500000000E+00  0.00000000000E+00  1.
</event>
<event>
 9   0   2.4893496E-09   6.2497556E+01   7.8125000E-03   1.3829030E-01
       21   -1    0    0  501  502  0.00000000000E+00  0.00000000000E+00  1.93109672344E+03  1.93109672344E+03  0.00000000000E+00  0.00000000000E+00  1.
       21   -1    0    0  502  501  0.00000000000E+00  0.00000000000E+00 -2.02265607740E+00  2.02265607740E+00  0.00000000000E+00  0.00000000000E+00  1.
       25    2    1    2    0    0  4.44089209850E-15 -5.32907051820E-15  1.92907406736E+03  1.93311937952E+03  1.24995112284E+02  0.00000000000E+00  1.
       23    2    3    3    0    0  7.53745400599E+00  1.28985107012E+01  4.09074692109E+02  4.11962903049E+02  4.63480848884E+01  0.00000000000E+00  1.
       23    2    3    3    0    0 -7.53745400599E+00 -1.28985107012E+01  1.51999937526E+03  1.52115647647E+03  5.74085389199E+01  0.00000000000E+00  1.
        3    1    4    4  803    0  1.51145596004E+01  1.02223670666E+01  3.97234214818E+02  3.97653075082E+02  7.62939453125E-06  0.00000000000E+00  1.
       -3    1    4    4    0  803 -7.57710559442E+00  2.67614363468E+00  1.18404772913E+01  1.43098280664E+01  4.41557387768E-06  0.00000000000E+00  1.
       16    1    5    5    0    0 -2.31889210905E+01 -2.65605332920E+01  6.93198732204E+02  6.94094856960E+02  1.07895932188E-05  0.00000000000E+00  1.
      -16    1    5    5    0    0  1.56514670845E+01  1.36620225907E+01  8.26800643051E+02  8.27061619611E+02  0.00000000000E+00  0.00000000000E+00  1.
</event>
<event>
 9   0   1.1065125E-11   6.2499588E+01   7.8125000E-03   1.3828954E-01
       21   -1    0    0  501  502  0.00000000000E+00  0.00000000000E+00  7.06570328075E+02  7.06570328075E+02  0.00000000000E+00  0.00000000000E+00  1.
       21   -1    0    0  502  501  0.00000000000E+00  0.00000000000E+00 -5.52839313424E+00  5.52839313424E+00  0.00000000000E+00  0.00000000000E+00  1.
       25    2    1    2    0    0  0.00000000000E+00 -1.06581410364E-14  7.01041934940E+02  7.12098721209E+02  1.24999176807E+02  0.00000000000E+00  1.
       23    2    3    3    0    0 -1.57318854853E+01 -2.67040266627E+01  4.81250810566E+02  4.85652807868E+02  5.74082734325E+01  0.00000000000E+00  1.
       23    2    3    3    0    0  1.57318854853E+01  2.67040266627E+01  2.19791124374E+02  2.26445913341E+02  4.48220487506E+01  0.00000000000E+00  1.
       14    1    4    4    0    0  6.91993509410E+00 -7.49759349570E+00  3.79985562459E+02  3.80122515890E+02  5.39479660939E-06  0.00000000000E+00  1.
      -14    1    4    4    0    0 -2.26518205794E+01 -1.92064331670E+01  1.01265248107E+02  1.05530291977E+02  4.47312904341E-06  0.00000000000E+00  1.
        3    1    5    5  803    0 -7.34725210823E+00 -6.86345366958E+00  8.61349026421E+01  8.67197242865E+01  1.90734863281E-06  0.00000000000E+00  1.
       -3    1    5    5    0  803  2.30791375936E+01  3.35674803323E+01  1.33656221732E+02  1.39726189255E+02  1.90734863281E-06  0.00000000000E+00  1.
</event>
<event>
 9   0   1.3630368E-13   6.2499589E+01   7.8125000E-03   1.3828954E-01
       21   -1    0    0  501  502  0.00000000000E+00  0.00000000000E+00  8.14622217239E+02  8.14622217239E+02  0.00000000000E+00  0.00000000000E+00  1.
       21   -1    0    0  502  501  0.00000000000E+00  0.00000000000E+00 -4.79510444900E+00  4.79510444900E+00  0.00000000000E+00  0.00000000000E+00  1.
       25    2    1    2    0    0  3.55271367880E-15  0.00000000000E+00  8.09827112790E+02  8.19417321688E+02  1.24999177888E+02  0.00000000000E+00  1.
       23    2    3    3    0    0 -1.20415765293E+01 -1.95835883125E+01  4.97991394063E+02  5.01816441831E+02  5.74090257224E+01  0.00000000000E+00  1.
       23    2    3    3    0    0  1.20415765293E+01  1.95835883125E+01  3.11835718727E+02  3.17600879857E+02  5.56802201467E+01  0.00000000000E+00  1.
        3    1    4    4  804    0 -1.71040746607E+01  1.65194398806E+00  4.31315871734E+02  4.31658035469E+02  5.39479660939E-06  0.00000000000E+00  1.
       -3    1    4    4    0  804  5.06249813135E+00 -2.12355323006E+01  6.66755223292E+01  7.01584064620E+01  6.87704329579E-06  0.00000000000E+00  1.
       15    1    5    5    0    0 -1.23539530511E+01 -9.21905482943E+00  1.73645275760E+02  1.74337173144E+02  1.77680000000E+00  0.00000000000E+00  1.
      -15    1    5    5    0    0  2.43955295804E+01  2.88026431419E+01  1.38190442967E+02  1.43263706713E+02  1.77680000000E+00  0.00000000000E+00  1.
</event>
<event>
 9   0   3.5517270E-09   6.2497544E+01   7.8125000E-03   1.3829030E-01
       21   -1    0    0  501  502  0.00000000000E+00  0.00000000000E+00  8.01491389698E+02  8.01491389698E+02  0.00000000000E+00  0.00000000000E+00  1.
       21   -1    0    0  502  501  0.00000000000E+00  0.00000000000E+00 -4.87334366587E+00  4.87334366587E+00  0.00000000000E+00  0.00000000000E+00  1.
       25    2    1    2    0    0  1.77635683940E-15  6.21724893790E-15  7.96618046032E+02  8.06364733364E+02  1.24995087699E+02  0.00000000000E+00  1.
       23    2    3    3    0    0 -3.92478141918E+00 -6.70708834805E+00  5.27247170482E+02  5.30420284285E+02  5.74082769012E+01  0.00000000000E+00  1.
       23    2    3    3    0    0  3.92478141918E+00  6.70708834805E+00  2.69370875550E+02  2.75944449079E+02  5.93656587542E+01  0.00000000000E+00  1.
        1    1    4    4  803    0 -1.81956851914E+01 -6.54613043932E+00  4.92185527211E+02  4.92565252609E+02  7.62939453125E-06  0.00000000000E+00  1.
       -1    1    4    4    0  803  1.42709037722E+01 -1.60957908737E-01  3.50616432712E+01  3.78550318765E+01  4.93244191780E-06  0.00000000000E+00  1.
       11    1    5    5    0    0 -1.12933539720E+01 -2.02370078818E+01  1.77397953217E+02  1.78905310536E+02  5.11002157370E-04  0.00000000000E+00  1.
      -11    1    5    5    0    0  1.52181353911E+01  2.69440962298E+01  9.19729223328E+01  9.70391385427E+01  5.11007496819E-04  0.00000000000E+00  1.
</event>
<event>
 9   0   1.8296778E-11   6.2499587E+01   7.8125000E-03   1.3828954E-01
       21   -1    0    0  501  502  0.00000000000E+00  0.00000000000E+00  8.16711164144E+02  8.16711164144E+02  0.00000000000E+00  0.00000000000E+00  1.
       21   -1    0    0  502  501  0.00000000000E+00  0.00000000000E+00 -4.78283947620E+00  4.78283947620E+00  0.00000000000E+00  0.00000000000E+00  1.
       25    2    1    2    0    0  0.00000000000E+00 -1.77635683940E-15  8.11928324668E+02  8.21494003620E+02  1.24999174342E+02  0.00000000000E+00  1.
       23    2    3    3    0    0 -7.71398644903E+00 -1.25432536229E+01  6.38520987295E+02  6.41265642084E+02  5.74084811073E+01  0.00000000000E+00  1.
       23    2    3    3    0    0  7.71398644903E+00  1.25432536229E+01  1.73407337372E+02  1.80228361536E+02  4.68542297861E+01  0.00000000000E+00  1.
       14    1    4    4    0    0  1.04587998231E+01 -1.08029773058E+00  5.52562643538E+02  5.52662671592E+02  7.62939453125E-06  0.00000000000E+00  1.
      -14    1    4    4    0    0 -1.81727862721E+01 -1.14629558923E+01  8.59583437570E+01  8.86029704927E+01  1.07049676517E-05  0.00000000000E+00  1.
       13    1    5    5    0    0 -1.65767669107E+01 -2.94910986851E+00  9.93041923410E+01  1.00721498354E+02  1.05659999995E-01  0.00000000000E+00  1.
      -13    1    5    5    0    0  2.42907533597E+01  1.54923634914E+01  7.41031450313E+01  7.95068631811E+01  1.05660000000E-01  0.00000000000E+00  1.
</event>
<event>
 9   0   1.1911239E-08   6.2499615E+01   7.8125000E-03   1.3828953E-01
       21   -1    0    0  501  502  0.00000000000E+00  0.00000000000E+00  8.16319244355E+02  8.16319244355E+02  0.00000000000E+00  0.00000000000E+00  1.
       21   -1    0    0  502  501  0.00000000000E+00  0.00000000000E+00 -4.78514008320E+00  4.78514008320E+00  0.00000000000E+00  0.00000000000E+00  1.
       25    2    1    2    0    0  0.00000000000E+00  0.00000000000E+00  8.11534104272E+02  8.21104384439E+02  1.24999230987E+02  0.00000000000E+00  1.
       23    2    3    3    0    0 -2.57980815157E+01 -1.88866120920E+01  5.65726513967E+02  5.69530044418E+02  5.74085164782E+01  0.00000000000E+00  1.
       23    2    3    3    0    0  2.57980815157E+01  1.88866120920E+01  2.45807590305E+02  2.51574340020E+02  4.29654742618E+01  0.00000000000E+00  1.
       15    1    4    4    0    0 -3.16176471757E+01 -1.64952706036E+01  5.59037621004E+02  5.60176747359E+02  1.77679999992E+00  0.00000000000E+00  1.
      -15    1    4    4    0    0  5.81956565994E+00 -2.39134148840E+00  6.68889296272E+00  9.35329705992E+00  1.77679999998E+00  0.00000000000E+00  1.
        1    1    5    5  804    0 -3.74049286394E+00 -8.88925280133E+00  9.22883678749E+01  9.27909099309E+01  1.34869915235E-06  0.00000000000E+00  1.
       -1    1    5    5    0  804  2.95385743797E+01  2.77758648933E+01  1.53519222431E+02  1.58783430189E+02  0.00000000000E+00  0.00000000000E+00  1.
</event>
<event>
 9   0   6.2755559E-13   6.2499552E+01   7.8125000E-03   1.3828955E-01
       21   -1    0    0  501  502  0.00000000000E+00  0.00000000000E+00  8.16715056374E+02  8.16715056374E+02  0.00000000000E+00  0.00000000000E+00  1.
       21   -1    0    0  502  501  0.00000000000E+00  0.00000000000E+00 -4.78281129369E+00  4.78281129369E+00  0.00000000000E+00  0.00000000000E+00  1.
       25    2    1    2    0    0 -7.10542735760E-15  0.00000000000E+00  8.11932245080E+02  8.21497867667E+02  1.24999103922E+02  0.00000000000E+00  1.
       23    2    3    3    0    0  1.62431673428E+01  2.77388817867E+01  2.42795950378E+02  2.48571036639E+02  4.24782378104E+01  0.00000000000E+00  1.
       23    2    3    3    0    0 -1.62431673428E+01 -2.77388817867E+01  5.69136294702E+02  5.72926831029E+02  5.74085857480E+01  0.00000000000E+00  1.
        2    1    4    4  804    0  1.90532357384E+01  1.81765202609E+01  2.33376773639E+02  2.34857680638E+02  2.69739830470E-06  0.00000000000E+00  1.
       -2    1    4    4    0  804 -2.81006839559E+00  9.56236152574E+00  9.41917673946E+00  1.37133560001E+01  4.74147362741E-06  0.00000000000E+00  1.
        3    1    5    5  803    0 -3.17425909715E+01 -3.20425960925E+01  4.95788099207E+02  4.97835474189E+02  0.00000000000E+00  0.00000000000E+00  1.
       -3    1    5    5    0  803  1.54994236287E+01  4.30371430582E+00  7.33481954952E+01  7.50913568398E+01  2.86102294922E-06  0.00000000000E+00  1.
</event>
<event>
 9   0   2.5373364E-07   6.2499681E+01   7.8125000E-03   1.3828951E-01
       21   -1    0    0  501  502  0.00000000000E+00  0.00000000000E+00  1.35231701778E+02  1.35231701778E+02  0.00000000000E+00  0.00000000000E+00  1.
       21   -1    0    0  502  501  0.00000000000E+00  0.00000000000E+00 -2.88853138646E+01  2.88853138646E+01  0.00000000000E+00  0.00000000000E+00  1.
       25    2    1    2    0    0  0.00000000000E+00 -1.77635683940E-15  1.06346387913E+02  1.64117015643E+02  1.24999362403E+02  0.00000000000E+00  1.
       23    2    3    3    0    0  2.95331352750E+01 -1.12131359123E+01  2.37526360526E+01  5.86130029523E+01  4.32822815882E+01  0.00000000000E+00  1.
       23    2    3    3    0    0 -2.95331352750E+01  1.12131359123E+01  8.25937518608E+01  1.05504012690E+02  5.75450115229E+01  0.00000000000E+00  1.
       14    1    4    4    0    0  2.09194560256E+00  5.22415137880E+00  2.59470412105E+01  2.65502720687E+01  0.00000000000E+00  0.00000000000E+00  1.
      -14    1    4    4    0    0  2.74411896724E+01 -1.64372872911E+01 -2.19440515789E+00  3.20627310836E+01  0.00000000000E+00  0.00000000000E+00  1.
        4    1    5    5  803    0 -3.27710080166E+01 -1.35803819886E+01  6.75144735449E+01  7.62770968537E+01  1.27500000000E+00  0.00000000000E+00  1.
       -4    1    5    5    0  803  3.23787274160E+00  2.47935179010E+01  1.50792783159E+01  2.92269158367E+01  1.27500000000E+00  0.00000000000E+00  1.
</event>
<event>
 9   0   1.0062275E-08   6.2499587E+01   7.8125000E-03   1.3828954E-01
       21   -1    0    0  501  502  0.00000000000E+00  0.00000000000E+00  6.84330052306E+02  6.84330052306E+02  0.00000000000E+00  0.00000000000E+00  1.
       21   -1    0    0  502  501  0.00000000000E+00  0.00000000000E+00 -5.70806196148E+00  5.70806196148E+00  0.00000000000E+00  0.00000000000E+00  1.
       25    2    1    2    0    0 -5.32907051820E-15  3.55271367880E-15  6.78621990344E+02  6.90038114267E+02  1.24999173448E+02  0.00000000000E+00  1.
       23    2    3    3    0    0  5.06674970676E+00  9.03446247662E+00  2.18985720122E+02  2.26714777395E+02  5.77715432279E+01  0.00000000000E+00  1.
       23    2    3    3    0    0 -5.06674970676E+00 -9.03446247662E+00  4.59636270222E+02  4.63323336872E+02  5.74083628234E+01  0.00000000000E+00  1.
        3    1    4    4  804    0  2.28491296446E+01  1.32954951766E+01  4.83761223293E+01  5.51280521071E+01  2.52318507296E-06  0.00000000000E+00  1.
       -3    1    4    4    0  804 -1.77823799378E+01 -4.26103269994E+00  1.70609597793E+02  1.71586725388E+02  2.69739830470E-06  0.00000000000E+00  1.
        1    1    5    5  803    0 -1.66837892167E+01 -2.92523266190E+01  2.21066078822E+02  2.23616320158E+02  4.67203091199E-06  0.00000000000E+00  1.
       -1    1    5    5    0  803  1.16170395099E+01  2.02178641424E+01  2.38570191400E+02  2.39707016714E+02  2.69739830470E-06  0.00000000000E+00  1.
</event>
<event>
 9   0   3.7193106E-17   6.2499588E+01   7.8125000E-03   1.3828954E-01
       21   -1    0    0  501  502  0.00000000000E+00  0.00000000000E+00  8.15609406974E+02  8.15609406974E+02  0.00000000000E+00  0.00000000000E+00  1.
       21   -1    0    0  502  501  0.00000000000E+00  0.00000000000E+00 -4.78930050132E+00  4.78930050132E+00  0.00000000000E+00  0.00000000000E+00  1.
       25    2    1    2    0    0  1.77635683940E-15 -3.55271367880E-15  8.10820106473E+02  8.20398707475E+02  1.24999176664E+02  0.00000000000E+00  1.
       23    2    3    3    0    0 -4.10643178155E+00 -7.02190248983E+00  6.80127411901E+02  6.82594581412E+02  5.74098968638E+01  0.00000000000E+00  1.
       23    2    3    3    0    0  4.10643178155E+00  7.02190248983E+00  1.30692694572E+02  1.37804126063E+02  4.29328178553E+01  0.00000000000E+00  1.
        3    1    4    4  803    0 -1.29982158295E+01  7.46029473393E+00  6.18089695425E+02  6.18271365343E+02  0.00000000000E+00  0.00000000000E+00  1.
       -3    1    4    4    0  803  8.89178404798E+00 -1.44821972238E+01  6.20377164756E+01  6.43232160692E+01  1.50789149292E-06  0.00000000000E+00  1.
        2    1    5    5  804    0 -1.05115815915E+01 -1.23518028075E+01  7.96587190898E+01  8.12931234696E+01  0.00000000000E+00  0.00000000000E+00  1.
       -2    1    5    5    0  804  1.46180133730E+01  1.93737052973E+01  5.10339754819E+01  5.65110027934E+01  1.16800772800E-06  0.00000000000E+00  1.
</event>
<event>
 9   0   1.9010403E-04   6.2497535E+01   7.8125000E-03   1.3829031E-01
       21   -1    0    0  501  502  0.00000000000E+00  0.00000000000E+00  8.23084679566E+02  8.23084679566E+02  0.00000000000E+00  0.00000000000E+00  1.
       21   -1    0    0  502  501  0.00000000000E+00  0.00000000000E+00 -4.74549220655E+00  4.74549220655E+00  0.00000000000E+00  0.00000000000E+00  1.
       25    2    1    2    0    0  0.00000000000E+00  0.00000000000E+00  8.18339187359E+02  8.27830171772E+02  1.24995070818E+02  0.00000000000E+00  1.
       23    2    3    3    0    0 -1.18830950821E+01 -2.11254531127E+01  2.95177175071E+02  2.96474338383E+02  1.34155103892E+01  0.00000000000E+00  1.
       23    2    3    3    0    0  1.18830950821E+01  2.11254531127E+01  5.23162012288E+02  5.31355833389E+02  8.97387199434E+01  0.00000000000E+00  1.
       15    1    4    4    0    0 -2.71239120626E+00 -9.42101276337E+00  1.87041905407E+02  1.87307084608E+02  1.77680000000E+00  0.00000000000E+00  1.
      -15    1    4    4    0    0 -9.17070387589E+00 -1.17044403494E+01  1.08135269664E+02  1.09167253776E+02  1.77680000000E+00  0.00000000000E+00  1.
        5    1    5    5  804    0 -2.00254697064E+01 -2.22517139868E+01  3.08745642154E+02  3.10229902269E+02  4.75000000000E+00  0.00000000000E+00  1.
       -5    1    5    5    0  804  3.19085647886E+01  4.33771670995E+01  2.14416370134E+02  2.21125931120E+02  4.75000000000E+00  0.00000000000E+00  1.
</event>
<event>
 9   0   1.6968337E-15   6.2499588E+01   7.8125000E-03   1.3828954E-01
       21   -1    0    0  501  502  0.00000000000E+00  0.00000000000E+00  6.80314624602E+02  6.80314624602E+02  0.00000000000E+00  0.00000000000E+00  1.
       21   -1    0    0  502  501  0.00000000000E+00  0.00000000000E+00 -5.74175301608E+00  5.74175301608E+00  0.00000000000E+00  0.00000000000E+00  1.
       25    2    1    2    0    0 -3.55271367880E-15  0.00000000000E+00  6.74572871586E+02  6.86056377618E+02  1.24999176760E+02  0.00000000000E+00  1.
       23    2    3    3    0    0 -1.50260564889E+01 -2.56290816131E+01  4.56722724352E+02  4.61274458975E+02  5.74094710388E+01  0.00000000000E+00  1.
       23    2    3    3    0    0  1.50260564889E+01  2.56290816131E+01  2.17850147234E+02  2.24781918644E+02  4.67503165895E+01  0.00000000000E+00  1.
        2    1    4    4  804    0  7.37013309912E+00 -6.94260736826E+00  3.62475909004E+02  3.62617295874E+02  5.39479660939E-06  0.00000000000E+00  1.
       -2    1    4    4    0  804 -2.23961895880E+01 -1.86864742449E+01  9.42468153482E+01  9.86571631005E+01  1.90734863281E-06  0.00000000000E+00  1.
        5    1    5    5  803    0 -7.76939224907E+00 -7.32466257196E+00  8.89334543589E+01  8.96980264104E+01  4.75000000000E+00  0.00000000000E+00  1.
       -5    1    5    5    0  803  2.27954487380E+01  3.29537441851E+01  1.28916692875E+02  1.35083892233E+02  4.75000000000E+00  0.00000000000E+00  1.
</event>
<event>
 9   0   1.9330468E-10   6.2497446E+01   7.8125000E-03   1.3829034E-01
       21   -1    0    0  501  502  0.00000000000E+00  0.00000000000E+00  8.15694988002E+02  8.15694988002E+02  0.00000000000E+00  0.00000000000E+00  1.
       21   -1    0    0  502  501  0.00000000000E+00  0.00000000000E+00 -4.78846976251E+00  4.78846976251E+00  0.00000000000E+00  0.00000000000E+00  1.
       25    2    1    2    0    0  0.00000000000E+00  1.77635683940E-15  8.10906518239E+02  8.20483457764E+02  1.24994892463E+02  0.00000000000E+00  1.
       23    2    3    3    0    0 -4.20453683491E+00 -7.19622182423E+00  6.53014752895E+02  6.55586946778E+02  5.74152727833E+01  0.00000000000E+00  1.
       23    2    3    3    0    0  4.20453683491E+00  7.19622182423E+00  1.57891765344E+02  1.64896510986E+02  4.68143784894E+01  0.00000000000E+00  1.
        1    1    4    4  804    0  1.23959583935E+01  1.84563418857E+00  5.80920103423E+02  5.81055275091E+02  1.07895932188E-05  0.00000000000E+00  1.
       -1    1    4    4    0  804 -1.66004952284E+01 -9.04185601280E+00  7.20946494712E+01  7.45316716863E+01  1.07895932188E-05  0.00000000000E+00  1.
       15    1    5    5    0    0 -1.02938966613E+01 -1.35023564737E+01  1.03449053518E+02  1.04848183727E+02  1.77680000000E+00  0.00000000000E+00  1.
      -15    1    5    5    0    0  1.44984334962E+01  2.06985782979E+01  5.44427118260E+01  6.00483272591E+01  1.77680000000E+00  0.00000000000E+00  1.
</event>
<event>
 9   0   1.9572931E-16   6.2499555E+01   7.8125000E-03   1.3828955E-01
       21   -1    0    0  501  502  0.00000000000E+00  0.00000000000E+00  8.15192473821E+02  8.15192473821E+02  0.00000000000E+00  0.00000000000E+00  1.
       21   -1    0    0  502  501  0.00000000000E+00  0.00000000000E+00 -4.79174483924E+00  4.79174483924E+00  0.00000000000E+00  0.00000000000E+00  1.
       25    2    1    2    0    0 -3.55271367880E-15  3.55271367880E-15  8.10400728982E+02  8.19984218660E+02  1.24999109268E+02  0.00000000000E+00  1.
       23    2    3    3    0    0 -2.89643711419E+01 -2.76332954157E+01  5.21394888162E+02  5.27708295668E+02  7.08581830461E+01  0.00000000000E+00  1.
       23    2    3    3    0    0  2.89643711419E+01  2.76332954157E+01  2.89005840820E+02  2.92275922992E+02  1.72715176409E+01  0.00000000000E+00  1.
        4    1    5    5  804    0  1.91312307386E+01  1.79589691652E+01  2.37182269091E+02  2.38632736562E+02  1.27499999998E+00  0.00000000000E+00  1.
       -4    1    4    4    0  803 -3.27117511440E+00  9.14601345930E+00  8.85068829556E+00  1.32026685610E+01  1.27499999999E+00  0.00000000000E+00  1.
        4    1    4    4  803    0 -2.56931960275E+01 -3.67793088750E+01  5.12544199866E+02  5.14505627107E+02  1.27499999997E+00  0.00000000000E+00  1.
       -4    1    5    5    0  804  9.83314040326E+00  9.67432625047E+00  5.18235717291E+01  5.36431864299E+01  1.27500000001E+00  0.00000000000E+00  1.
</event>
<event>
 9   0   1.0917959E-10   6.2499588E+01   7.8125000E-03   1.3828954E-01
       21   -1    0    0  501  502  0.00000000000E+00  0.00000000000E+00  8.14815213052E+02  8.14815213052E+02  0.00000000000E+00  0.00000000000E+00  1.
       21   -1    0    0  502  501  0.00000000000E+00  0.00000000000E+00 -4.79396854308E+00  4.79396854308E+00  0.00000000000E+00  0.00000000000E+00  1.
       25    2    1    2    0    0  3.55271367880E-15 -3.55271367880E-15  8.10021244509E+02  8.19609181595E+02  1.24999175994E+02  0.00000000000E+00  1.
       23    2    3    3    0    0 -1.03890771672E+01 -1.74181668997E+01  6.92390798248E+02  6.98762520263E+02  9.19386576078E+01  0.00000000000E+00  1.
       23    2    3    3    0    0  1.03890771672E+01  1.74181668997E+01  1.17630446261E+02  1.20846661332E+02  1.88591676679E+01  0.00000000000E+00  1.
       14    1    4    4    0    0 -2.25311186066E+01  1.02786569892E+01  6.17499232103E+02  6.17995634181E+02  1.52587890625E-05  0.00000000000E+00  1.
      -14    1    4    4    0    0  1.21420414394E+01 -2.76968238889E+01  7.48915661449E+01  8.07668862817E+01  9.24621554836E-06  0.00000000000E+00  1.
        3    1    5    5  803    0 -4.89492581190E+00  3.00856930125E+00  4.05600649519E+01  4.09649930654E+01  1.34869915235E-06  0.00000000000E+00  1.
       -3    1    5    5    0  803  1.52840029791E+01  1.44095975984E+01  7.70703813089E+01  7.98816682669E+01  0.00000000000E+00  0.00000000000E+00  1.
</event>
<event>
 9   0   2.3128873E-18   6.2499588E+01   7.8125000E-03   1.3828954E-01
       21   -1    0    0  501  502  0.00000000000E+00  0.00000000000E+00  8.15727935671E+02  8.15727935671E+02  0.00000000000E+00  0.00000000000E+00  1.
       21   -1    0    0  502  501  0.00000000000E+00  0.00000000000E+00 -4.78860455958E+00  4.78860455958E+00  0.00000000000E+00  0.00000000000E+00  1.
       25    2    1    2    0    0  0.00000000000E+00  3.55271367880E-15  8.10939331112E+02  8.20516540231E+02  1.24999176191E+02  0.00000000000E+00  1.
       23    2    3    3    0    0  1.01729242544E+01  1.73787236224E+01  3.33297599282E+02  3.39014301653E+02  5.86335963022E+01  0.00000000000E+00  1.
       23    2    3    3    0    0 -1.01729242544E+01 -1.73787236224E+01  4.77641731830E+02  4.81502238578E+02  5.74218891002E+01  0.00000000000E+00  1.
        4    1    5    5  804    0  9.81898268203E+00 -2.67625155916E+00  3.96689701476E+02  3.96822277129E+02  1.27500000001E+00  0.00000000000E+00  1.
       -4    1    4    4    0  803  2.35812332583E+01 -8.57010832332E+00  7.56313373913E+01  7.96947058421E+01  1.27500000000E+00  0.00000000000E+00  1.
        4    1    4    4  803    0 -1.34083090039E+01  2.59488319457E+01  2.57666261891E+02  2.59319595811E+02  1.27500000000E+00  0.00000000000E+00  1.
       -4    1    5    5    0  804 -1.99919069364E+01 -1.47024720632E+01  8.09520303536E+01  8.46799614495E+01  1.27500000000E+00  0.00000000000E+00  1.
</event>
<event>
 9   0   5.5170137E-12   6.2499588E+01   7.8125000E-03   1.3828954E-01
       21   -1    0    0  501  502  0.00000000000E+00  0.00000000000E+00  8.15244908070E+02  8.15244908070E+02  0.00000000000E+00  0.00000000000E+00  1.
       21   -1    0    0  502  501  0.00000000000E+00  0.00000000000E+00 -4.79144171566E+00  4.79144171566E+00  0.00000000000E+00  0.00000000000E+00  1.
       25    2    1    2    0    0  1.77635683940E-15  0.00000000000E+00  8.10453466354E+02  8.20036349786E+02  1.24999175373E+02  0.00000000000E+00  1.
       23    2    3    3    0    0  1.54741045391E+01  2.59478906337E+01  2.70299910546E+02  2.76021224751E+02  4.70418317263E+01  0.00000000000E+00  1.
       23    2    3    3    0    0 -1.54741045391E+01 -2.59478906337E+01  5.40153555809E+02  5.44015125035E+02  5.72175801183E+01  0.00000000000E+00  1.
       15    1    4    4    0    0  1.99286287789E+01  1.79627106404E+01  2.62496039938E+02  2.63869545837E+02  1.77680000000E+00  0.00000000000E+00  1.
      -15    1    4    4    0    0 -4.45452423980E+00  7.98517999331E+00  7.80387060747E+00  1.21516789139E+01  1.77680000000E+00  0.00000000000E+00  1.
       14    1    5    5    0    0 -2.55481551154E+01  4.10698685840E+00  3.72072228189E+02  3.72970935276E+02  5.39479660939E-06  0.00000000000E+00  1.
      -14    1    5    5    0    0  1.00740505763E+01 -3.00548774921E+01  1.68081327619E+02  1.71044189759E+02  4.26496119976E-06  0.00000000000E+00  1.
</event>
<event>
 9   0   2.1741246E-11   6.2499586E+01   7.8125000E-03   1.3828954E-01
       21   -1    0    0  501  502  0.00000000000E+00  0.00000000000E+00  1.93673894547E+03  1.93673894547E+03  0.00000000000E+00  0.00000000000E+00  1.
       21   -1    0    0  502  501  0.00000000000E+00  0.00000000000E+00 -2.01689458212E+00  2.01689458212E+00  0.00000000000E+00  0.00000000000E+00  1.
       25    2    1    2    0    0 -1.77635683940E-15 -1.77635683940E-15  1.93472205089E+03  1.93875584005E+03  1.24999172575E+02  0.00000000000E+00  1.
       23    2    3    3    0    0 -4.82659047484E+00 -8.25185845161E+00  1.26695338479E+03  1.26829240950E+03  5.74749303764E+01  0.00000000000E+00  1.
       23    2    3    3    0    0  4.82659047484E+00  8.25185845161E+00  6.67768666094E+02  6.70463430548E+02  5.92860113485E+01  0.00000000000E+00  1.
        1    1    4    4  804    0  1.22750592578E+01  1.57980916583E+00  1.11442515676E+03  1.11449387746E+03  1.52587890625E-05  0.00000000000E+00  1.
       -1    1    4    4    0  804 -1.71016497326E+01 -9.83166761744E+00  1.52528228032E+02  1.53798532142E+02  3.30362473978E-06  0.00000000000E+00  1.
       16    1    5    5    0    0 -1.39201789817E+01 -1.64492499144E+01  4.47985613293E+02  4.48503577380E+02  0.00000000000E+00  0.00000000000E+00  1.
      -16    1    5    5    0    0  1.87467694565E+01  2.47011083660E+01  2.19783052801E+02  2.21959853167E+02  2.69739830470E-06  0.00000000000E+00  1.
</event>
<event>
 9   0   1.3802763E-15   6.2499588E+01   7.8125000E-03   1.3828954E-01
       21   -1    0    0  501  502  0.00000000000E+00  0.00000000000E+00  6.70265974663E+02  6.70265974663E+02  0.00000000000E+00  0.00000000000E+00  1.
       21   -1    0    0  502  501  0.00000000000E+00  0.00000000000E+00 -5.82783343925E+00  5.82783343925E+00  0.00000000000E+00  0.00000000000E+00  1.
       25    2    1    2    0    0  3.55271367880E-15 -7.10542735760E-15  6.64438141224E+02  6.76093808102E+02  1.24999175363E+02  0.00000000000E+00  1.
       23    2    3    3    0    0 -1.50038487561E+01 -2.56526869944E+01  4.48353494647E+02  4.52989910706E+02  5.74092955159E+01  0.00000000000E+00  1.
       23    2    3    3    0    0  1.50038487561E+01  2.56526869944E+01  2.16084646577E+02  2.23103897396E+02  4.68998797409E+01  0.00000000000E+00  1.
        4    1    4    4  803    0  7.35865421116E+00 -6.86660205856E+00  3.55464974778E+02  3.55609721372E+02  1.27499999999E+00  0.00000000000E+00  1.
       -4    1    4    4    0  803 -2.23625029673E+01 -1.87860849358E+01  9.28885198694E+01  9.73801893339E+01  1.27499999999E+00  0.00000000000E+00  1.
       11    1    5    5    0    0 -7.48985206267E+00 -7.01527438432E+00  9.80047057022E+01  9.85405210999E+01  5.10993258165E-04  0.00000000000E+00  1.
      -11    1    5    5    0    0  2.24937008188E+01  3.26679613787E+01  1.18079940874E+02  1.24563376296E+02  5.11002157370E-04  0.00000000000E+00  1.
</event>
<event>
 9   0   2.6675429E-14   6.2499587E+01   7.8125000E-03   1.3828954E-01
       21   -1    0    0  501  502  0.00000000000E+00  0.00000000000E+00  8.16177555139E+02  8.16177555139E+02  0.00000000000E+00  0.00000000000E+00  1.
       21   -1    0    0  502  501  0.00000000000E+00  0.00000000000E+00 -4.78596642594E+00  4.78596642594E+00  0.00000000000E+00  0.00000000000E+00  1.
       25    2    1    2    0    0 -3.55271367880E-15 -3.55271367880E-15  8.11391588713E+02  8.20963521565E+02  1.24999174021E+02  0.00000000000E+00  1.
       23    2    3    3    0    0 -1.50358349378E+01 -2.57237343051E+01  5.48062582636E+02  5.51896994130E+02  5.77053793401E+01  0.00000000000E+00  1.
       23    2    3    3    0    0  1.50358349378E+01  2.57237343051E+01  2.63329006077E+02  2.69066527435E+02  4.65493706261E+01  0.00000000000E+00  1.
       13    1    4    4    0    0 -1.88237609809E+01 -1.68035446109E+00  4.63916578902E+02  4.64301368631E+02  1.05660000090E-01  0.00000000000E+00  1.
      -13    1    4    4    0    0  3.78792604315E+00 -2.40433798440E+01  8.41460037341E+01  8.75956254986E+01  1.05660000206E-01  0.00000000000E+00  1.
        2    1    5    5  804    0 -4.46257770889E+00 -9.17436920471E+00  1.14783318713E+02  1.15235818772E+02  1.90734863281E-06  0.00000000000E+00  1.
       -2    1    5    5    0  804  1.94984126467E+01  3.48981035098E+01  1.48545687363E+02  1.53830708863E+02  2.69739830470E-06  0.00000000000E+00  1.
</event>
<event>
 9   0   5.2773204E-12   6.2499588E+01   7.8125000E-03   1.3828954E-01
       21   -1    0    0  501  502  0.00000000000E+00  0.00000000000E+00  1.95363984182E+03  1.95363984182E+03  0.00000000000E+00  0.00000000000E+00  1.
       21   -1    0    0  502  501  0.00000000000E+00  0.00000000000E+00 -1.99944658713E+00  1.99944658713E+00  0.00000000000E+00  0.00000000000E+00  1.
       25    2    1    2    0    0 -1.06581410364E-14 -3.55271367880E-15  1.95164039523E+03  1.95563928840E+03  1.24999176225E+02  0.00000000000E+00  1.
       23    2    3    3    0    0  1.54480933089E+01  2.54226360615E+01  6.35311428548E+02  6.37724105707E+02  4.67597021488E+01  0.00000000000E+00  1.
       23    2    3    3    0    0 -1.54480933089E+01 -2.54226360615E+01  1.31632896668E+03  1.31791518270E+03  5.73892520107E+01  0.00000000000E+00  1.
        2    1    4    4  803    0  7.51933457398E+00  2.58131557589E+01  6.18999139278E+02  6.19582757953E+02  7.62939453125E-06  0.00000000000E+00  1.
       -2    1    4    4    0  803  7.92875873492E+00 -3.90519697376E-01  1.63122892698E+01  1.81413478532E+01  1.61703347757E-06  0.00000000000E+00  1.
       14    1    5    5    0    0 -2.58113202612E+01 -3.61695537957E+01  1.16607454683E+03  1.16692086701E+03  3.05175781250E-05  0.00000000000E+00  1.
      -14    1    5    5    0    0  1.03632269523E+01  1.07469177341E+01  1.50254419853E+02  1.50994315884E+02  2.00951647813E-05  0.00000000000E+00  1.
</event>
<event>
 9   0   1.8341403E-13   6.2499586E+01   7.8125000E-03   1.3828954E-01
       21   -1    0    0  501  502  0.00000000000E+00  0.00000000000E+00  8.14917028098E+02  8.14917028098E+02  0.00000000000E+00  0.00000000000E+00  1.
       21   -1    0    0  502  501  0.00000000000E+00  0.00000000000E+00 -4.79336932133E+00  4.79336932133E+00  0.00000000000E+00  0.00000000000E+00  1.
       25    2    1    2    0    0 -1.77635683940E-15 -3.55271367880E-15  8.10123658777E+02  8.19710397420E+02  1.24999172508E+02  0.00000000000E+00  1.
       23    2    3    3    0    0 -1.50022122565E+01 -2.55863736096E+01  5.48196105987E+02  5.51991468846E+02  5.74097741842E+01  0.00000000000E+00  1.
       23    2    3    3    0    0  1.50022122565E+01  2.55863736096E+01  2.61927552790E+02  2.67718928574E+02  4.67723520815E+01  0.00000000000E+00  1.
       13    1    4    4    0    0  6.75272964704E+00 -7.12989915313E+00  4.39621177106E+02  4.39730855574E+02  1.05660000090E-01  0.00000000000E+00  1.
      -13    1    4    4    0    0 -2.17549419035E+01 -1.84564744564E+01  1.08574928881E+02  1.12260613272E+02  1.05659999978E-01  0.00000000000E+00  1.
        3    1    5    5  803    0 -1.40712991494E+01  6.04718614834E+00  1.40722845187E+02  1.41553838188E+02  3.30362473978E-06  0.00000000000E+00  1.
       -3    1    5    5    0  803  2.90735114058E+01  1.95391874612E+01  1.21204707603E+02  1.26165090485E+02  1.90734863281E-06  0.00000000000E+00  1.
</event>
<event>
 9   0   1.1912627E-11   6.2499549E+01   7.8125000E-03   1.3828955E-01
       21   -1    0    0  501  502  0.00000000000E+00  0.00000000000E+00  7.17886438338E+02  7.17886438338E+02  0.00000000000E+00  0.00000000000E+00  1.
       21   -1    0    0  502  501  0.00000000000E+00  0.00000000000E+00 -5.44124166703E+00  5.44124166703E+00  0.00000000000E+00  0.00000000000E+00  1.
       25    2    1    2    0    0  3.55271367880E-15  1.77635683940E-15  7.12445196671E+02  7.23327680005E+02  1.24999097604E+02  0.00000000000E+00  1.
       23    2    3    3    0    0 -6.81600864804E+00 -7.85468930512E+00  4.82234995502E+02  4.85751421616E+02  5.74081753537E+01  0.00000000000E+00  1.
       23    2    3    3    0    0  6.81600864804E+00  7.85468930512E+00  2.30210201169E+02  2.37576258389E+02  5.77718591512E+01  0.00000000000E+00  1.
        5    1    4    4  804    0  1.09204334426E+01  1.71958124341E+00  4.19791063026E+02  4.19963464985E+02  4.75000000000E+00  0.00000000000E+00  1.
       -5    1    4    4    0  804 -1.77364420906E+01 -9.57427054853E+00  6.24439324762E+01  6.57879566308E+01  4.75000000000E+00  0.00000000000E+00  1.
        1    1    5    5  803    0 -1.33029989751E+01 -1.69221101473E+01  1.44920981726E+02  1.46510813824E+02  2.69739830470E-06  0.00000000000E+00  1.
       -1    1    5    5    0  803  2.01190076232E+01  2.47767994525E+01  8.52892194432E+01  9.10654447653E+01  1.65181236989E-06  0.00000000000E+00  1.
</event>
<event>
 9   0   7.1479870E-12   6.2499664E+01   7.8125000E-03   1.3828951E-01
       21   -1    0    0  501  502  0.00000000000E+00  0.00000000000E+00  1.52422883841E+02  1.52422883841E+02  0.00000000000E+00  0.00000000000E+00  1.
       21   -1    0    0  502  501  0.00000000000E+00  0.00000000000E+00 -2.56274380262E+01  2.56274380262E+01  0.00000000000E+00  0.00000000000E+00  1.
       25    2    1    2    0    0 -1.77635683940E-15 -3.55271367880E-15  1.26795445815E+02  1.78050321868E+02  1.24999328149E+02  0.00000000000E+00  1.
       23    2    3    3    0    0  1.55145893316E+01  2.64683635189E+01  3.31171772065E+01  6.39767017073E+01  4.53320436967E+01  0.00000000000E+00  1.
       23    2    3    3    0    0 -1.55145893316E+01 -2.64683635189E+01  9.36782686087E+01  1.14073620160E+02  5.74098951179E+01  0.00000000000E+00  1.
        3    1    4    4  804    0 -1.40651618229E+00  2.15402406641E+01  3.96790358796E+01  4.51706336459E+01  0.00000000000E+00  0.00000000000E+00  1.
       -3    1    4    4    0  804  1.69211055138E+01  4.92812285486E+00 -6.56185867311E+00  1.88060681614E+01  0.00000000000E+00  0.00000000000E+00  1.
        5    1    5    5  803    0 -2.23969832366E+01 -3.91752622879E+01  8.55208355353E+01  9.68127153017E+01  4.75000000000E+00  0.00000000000E+00  1.
       -5    1    5    5    0  803  6.88239390508E+00  1.27068987690E+01  8.15743307336E+00  1.72609048585E+01  4.75000000000E+00  0.00000000000E+00  1.
</event>
<event>
 9   0   5.7050048E-13   6.2499585E+01   7.8125000E-03   1.3828954E-01
       21   -1    0    0  501  502  0.00000000000E+00  0.00000000000E+00  8.16452037631E+02  8.16452037631E+02  0.00000000000E+00  0.00000000000E+00  1.
       21   -1    0    0  502  501  0.00000000000E+00  0.00000000000E+00 -4.78435713992E+00  4.78435713992E+00  0.00000000000E+00  0.00000000000E+00  1.
       25    2    1    2    0    0  7.10542735760E-15  3.55271367880E-15  8.11667680491E+02  8.21236394771E+02  1.24999170168E+02  0.00000000000E+00  1.
       23    2    3    3    0    0 -7.32273921076E+00 -1.33452637490E+01  4.45798138616E+02  4.54700454355E+02  8.82315375792E+01  0.00000000000E+00  1.
       23    2    3    3    0    0  7.32273921076E+00  1.33452637490E+01  3.65869541875E+02  3.66535940415E+02  1.60111014678E+01  0.00000000000E+00  1.
        4    1    5    5  804    0 -3.97530354795E+00  2.13493540486E+00  1.51518048827E+02  1.51590585898E+02  1.27500000000E+00  0.00000000000E+00  1.
       -4    1    4    4    0  803  2.02170197444E+01  2.56470540695E+01  9.07579764865E+01  9.64631286591E+01  1.27500000000E+00  0.00000000000E+00  1.
        4    1    4    4  803    0 -2.75397589552E+01 -3.89923178185E+01  3.55040162129E+02  3.58237325696E+02  1.27499999999E+00  0.00000000000E+00  1.
       -4    1    5    5    0  804  1.12980427587E+01  1.12103283441E+01  2.14351493048E+02  2.14945354518E+02  1.27500000000E+00  0.00000000000E+00  1.
</event>
<event>
 9   0   2.4186558E-14   6.2497583E+01   7.8125000E-03   1.3829029E-01
       21   -1    0    0  501  502  0.00000000000E+00  0.00000000000E+00  8.16717757874E+02  8.16717757874E+02  0.00000000000E+00  0.00000000000E+00  1.
       21   -1    0    0  502  501  0.00000000000E+00  0.00000000000E+00 -4.78249413098E+00  4.78249413098E+00  0.00000000000E+00  0.00000000000E+00  1.
       25    2    1    2    0    0 -3.55271367880E-15 -3.55271367880E-15  8.11935263743E+02  8.21500252005E+02  1.24995166046E+02  0.00000000000E+00  1.
       23    2    3    3    0    0  1.65633747409E+01  2.76628607659E+01  2.45638796783E+02  2.51388744210E+02  4.26415640220E+01  0.00000000000E+00  1.
       23    2    3    3    0    0 -1.65633747409E+01 -2.76628607659E+01  5.66296466960E+02  5.70111507795E+02  5.74096122576E+01  0.00000000000E+00  1.
        5    1    4    4  803    0  1.90172359085E+01  1.81218179506E+01  2.33613656739E+02  2.35133916444E+02  4.75000000000E+00  0.00000000000E+00  1.
       -5    1    4    4    0  803 -2.45386116762E+00  9.54104281537E+00  1.20251400436E+01  1.62548277660E+01  4.75000000000E+00  0.00000000000E+00  1.
        4    1    5    5  804    0 -3.41104411512E+01 -2.73118978709E+01  4.83130993622E+02  4.85104776913E+02  1.27500000003E+00  0.00000000000E+00  1.
       -4    1    5    5    0  804  1.75470664103E+01 -3.50962895060E-01  8.31654733381E+01  8.50067308812E+01  1.27500000002E+00  0.00000000000E+00  1.
</event>
<event>
 9   0   1.3296136E-11   6.2499589E+01   7.8125000E-03   1.3828954E-01
       21   -1    0    0  501  502  0.00000000000E+00  0.00000000000E+00  8.15093664870E+02  8.15093664870E+02  0.00000000000E+00  0.00000000000E+00  1.
       21   -1    0    0  502  501  0.00000000000E+00  0.00000000000E+00 -4.79233097468E+00  4.79233097468E+00  0.00000000000E+00  0.00000000000E+00  1.
       25    2    1    2    0    0 -3.55271367880E-15  0.00000000000E+00  8.10301333895E+02  8.19885995844E+02  1.24999177876E+02  0.00000000000E+00  1.
       23    2    3    3    0    0 -2.13217430700E+01  2.65882447717E+01  4.28224690309E+02  4.32050158823E+02  4.61454533099E+01  0.00000000000E+00  1.
       23    2    3    3    0    0  2.13217430700E+01 -2.65882447717E+01  3.82076643586E+02  3.87835837021E+02  5.72059736088E+01  0.00000000000E+00  1.
        2    1    4    4  804    0  1.21069319645E+00  1.83366166593E+01  3.43547780534E+02  3.44038914657E+02  0.00000000000E+00  0.00000000000E+00  1.
       -2    1    4    4    0  804 -2.25324362665E+01  8.25162811238E+00  8.46769097749E+01  8.80112442660E+01  5.64201334295E-06  0.00000000000E+00  1.
        3    1    5    5  803    0 -4.58328681583E+00 -3.27897720040E+01  2.92918222832E+02  2.94783413699E+02  3.81469726562E-06  0.00000000000E+00  1.
       -3    1    5    5    0  803  2.59050298858E+01  6.20152723234E+00  8.91584207545E+01  9.30524235227E+01  4.67203091199E-06  0.00000000000E+00  1.
</event>
<event>
 9   0   9.2712555E-16   6.2499586E+01   7.8125000E-03   1.3828954E-01
       21   -1    0    0  501  502  0.00000000000E+00  0.00000000000E+00  1.53128603070E+02  1.53128603070E+02  0.00000000000E+00  0.00000000000E+00  1.
       21   -1    0    0  502  501  0.00000000000E+00  0.00000000000E+00 -2.55092655689E+01  2.55092655689E+01  0.00000000000E+00  0.00000000000E+00  1.
       25    2    1    2    0    0 -8.88178419700E-16  3.55271367880E-15  1.27619337501E+02  1.78637868639E+02  1.24999171228E+02  0.00000000000E+00  1.
       23    2    3    3    0    0 -2.70726724039E+01 -2.40930006372E+01  8.32377879726E+01  1.20687822566E+02  7.95211852173E+01  0.00000000000E+00  1.
       23    2    3    3    0    0  2.70726724039E+01  2.40930006372E+01  4.43815495288E+01  5.79500460733E+01  8.66508110301E+00  0.00000000000E+00  1.
        2    1    5    5  804    0  1.38226698870E+01  8.60683607057E+00  2.49292449666E+01  2.97760153565E+01  0.00000000000E+00  0.00000000000E+00  1.
       -2    1    4    4    0  803 -7.97523018601E+00  1.39773029677E+00 -1.52018041356E+01  1.72236115690E+01  0.00000000000E+00  0.00000000000E+00  1.
        2    1    4    4  803    0 -1.90974422179E+01 -2.54907309339E+01  9.84395921082E+01  1.03464210997E+02  1.90734863281E-06  0.00000000000E+00  1.
       -2    1    5    5    0  804  1.32500025169E+01  1.54861645666E+01  1.94523045622E+01  2.81740308167E+01  1.81574180266E-06  0.00000000000E+00  1.
</event>
<event>
 9   0   5.0145930E-13   6.2499586E+01   7.8125000E-03   1.3828954E-01
       21   -1    0    0  501  502  0.00000000000E+00  0.00000000000E+00  8.15427650838E+02  8.15427650838E+02  0.00000000000E+00  0.00000000000E+00  1.
       21   -1    0    0  502  501  0.00000000000E+00  0.00000000000E+00 -4.79036773147E+00  4.79036773147E+00  0.00000000000E+00  0.00000000000E+00  1.
       25    2    1    2    0    0  1.77635683940E-15  2.66453525910E-15  8.10637283107E+02  8.20218018570E+02  1.24999172892E+02  0.00000000000E+00  1.
       23    2    3    3    0    0  2.49702712430E+00  4.26775879254E+00  2.68445482213E+02  2.74974611341E+02  5.93600122296E+01  0.00000000000E+00  1.
       23    2    3    3    0    0 -2.49702712430E+00 -4.26775879254E+00  5.42191800893E+02  5.45243407228E+02  5.73931638836E+01  0.00000000000E+00  1.
       13    1    4    4    0    0 -1.00052259583E+01  1.42883750462E+01  2.49724903675E+02  2.50333379491E+02  1.05660000021E-01  0.00000000000E+00  1.
      -13    1    4    4    0    0  1.25022530826E+01 -1.00206162537E+01  1.87205785387E+01  2.46412318504E+01  1.05659999993E-01  0.00000000000E+00  1.
       11    1    5    5    0    0 -2.52112645538E+01 -9.15189371854E+00  4.20442301451E+02  4.21296918893E+02  5.11084022788E-04  0.00000000000E+00  1.
      -11    1    5    5    0    0  2.27142374295E+01  4.88413492600E+00  1.21749499442E+02  1.23946488335E+02  5.10993258165E-04  0.00000000000E+00  1.
</event>
<event>
 9   0   4.2775229E-15   6.2499589E+01   7.8125000E-03   1.3828954E-01
       21   -1    0    0  501  502  0.00000000000E+00  0.00000000000E+00  8.16094768233E+02  8.16094768233E+02  0.00000000000E+00  0.00000000000E+00  1.
       21   -1    0    0  502  501  0.00000000000E+00  0.00000000000E+00 -4.78645219862E+00  4.78645219862E+00  0.00000000000E+00  0.00000000000E+00  1.
       25    2    1    2    0    0 -3.55271367880E-15 -7.10542735760E-15  8.11308316034E+02  8.20881220432E+02  1.24999177560E+02  0.00000000000E+00  1.
       23    2    3    3    0    0  1.55475949105E+01  2.52771291818E+01  2.50372924727E+02  2.56012957789E+02  4.44451589344E+01  0.00000000000E+00  1.
       23    2    3    3    0    0 -1.55475949105E+01 -2.52771291818E+01  5.60935391308E+02  5.64868262642E+02  5.95565273647E+01  0.00000000000E+00  1.
       14    1    4    4    0    0  1.89091894295E+01  1.70665980390E+01  2.43398605281E+02  2.44727822929E+02  4.67203091199E-06  0.00000000000E+00  1.
      -14    1    4    4    0    0 -3.36159451892E+00  8.21053114283E+00  6.97431944515E+00  1.12851350606E+01  5.39084389429E-06  0.00000000000E+00  1.
        1    1    5    5  804    0 -2.63836348667E+01 -3.66432735850E+01  4.96413061744E+02  4.98462389311E+02  0.00000000000E+00  0.00000000000E+00  1.
       -1    1    5    5    0  804  1.08360399562E+01  1.13661444032E+01  6.45223295643E+01  6.64058734316E+01  2.86102294922E-06  0.00000000000E+00  1.
</event>
<event>
 9   0   4.5955056E-10   6.2499588E+01   7.8125000E-03   1.3828954E-01
       21   -1    0    0  501  502  0.00000000000E+00  0.00000000000E+00  7.99835348942E+02  7.99835348942E+02  0.00000000000E+00  0.00000000000E+00  1.
       21   -1    0    0  502  501  0.00000000000E+00  0.00000000000E+00 -4.88375324663E+00  4.88375324663E+00  0.00000000000E+00  0.00000000000E+00  1.
       25    2    1    2    0    0 -1.77635683940E-15  0.00000000000E+00  7.94951595695E+02  8.04719102188E+02  1.24999175712E+02  0.00000000000E+00  1.
       23    2    3    3    0    0 -7.61636145407E-02  1.74308084105E+01  5.85451700331E+02  5.91019437798E+02  7.90344453537E+01  0.00000000000E+00  1.
       23    2    3    3    0    0  7.61636145407E-02 -1.74308084105E+01  2.09499895364E+02  2.13699664390E+02  3.83862152349E+01  0.00000000000E+00  1.
        3    1    4    4  803    0 -2.21860313316E+01 -1.55872810025E+01  4.19545884202E+02  4.20421136798E+02  0.00000000000E+00  0.00000000000E+00  1.
       -3    1    4    4    0  803  2.21098677171E+01  3.30180894130E+01  1.65905816128E+02  1.70598301100E+02  5.04637014592E-06  0.00000000000E+00  1.
        3    1    5    5  804    0 -1.02523029689E+01 -1.27744428876E+01  1.92945877697E+02  1.93639892239E+02  4.67203091199E-06  0.00000000000E+00  1.
       -3    1    5    5    0  804  1.03284665834E+01 -4.65636552290E+00  1.65540176674E+01  2.00597723515E+01  3.17195289031E-06  0.00000000000E+00  1.
</event>
<event>
 9   0   5.4307605E-15   6.2499588E+01   7.8125000E-03   1.3828954E-01
       21   -1    0    0  501  502  0.00000000000E+00  0.00000000000E+00  7.83485631948E+02  7.83485631948E+02  0.00000000000E+00  0.00000000000E+00  1.
       21   -1    0    0  502  501  0.00000000000E+00  0.00000000000E+00 -4.98566712788E+00  4.98566712788E+00  0.00000000000E+00  0.00000000000E+00  1.
       25    2    1    2    0    0  1.77635683940E-15 -7.10542735760E-15  7.78499964821E+02  7.88471299076E+02  1.24999176963E+02  0.00000000000E+00  1.
       23    2    3    3    0    0 -1.04006310933E+01 -1.77628604593E+01  4.64542206868E+02  4.68528505644E+02  5.74091133884E+01  0.00000000000E+00  1.
       23    2    3    3    0    0  1.04006310933E+01  1.77628604593E+01  3.13957757952E+02  3.19942793432E+02  5.80536385773E+01  0.00000000000E+00  1.
        5    1    4    4  804    0 -1.45900447270E+01  3.72031310916E+00  3.98097674158E+02  3.98410630888E+02  4.74999999999E+00  0.00000000000E+00  1.
       -5    1    4    4    0  804  4.18941363376E+00 -2.14831735685E+01  6.64445327107E+01  7.01178747561E+01  4.75000000000E+00  0.00000000000E+00  1.
        1    1    5    5  803    0 -1.15770928884E+01 -1.25008308320E+01  1.81732040055E+02  1.82528995697E+02  3.81469726562E-06  0.00000000000E+00  1.
       -1    1    5    5    0  803  2.19777239817E+01  3.02636912913E+01  1.32225717897E+02  1.37413797835E+02  1.90734863281E-06  0.00000000000E+00  1.
</event>
<event>
 9   0   3.4667034E-15   6.2499587E+01   7.8125000E-03   1.3828954E-01
       21   -1    0    0  501  502  0.00000000000E+00  0.00000000000E+00  8.16807969825E+02  8.16807969825E+02  0.00000000000E+00  0.00000000000E+00  1.
       21   -1    0    0  502  501  0.00000000000E+00  0.00000000000E+00 -4.78227259959E+00  4.78227259959E+00  0.00000000000E+00  0.00000000000E+00  1.
       25    2    1    2    0    0  3.55271367880E-15  0.00000000000E+00  8.12025697226E+02  8.21590242425E+02  1.24999173969E+02  0.00000000000E+00  1.
       23    2    3    3    0    0  1.49483784382E+01  2.55738583791E+01  2.63561257367E+02  2.69334452541E+02  4.68938662304E+01  0.00000000000E+00  1.
       23    2    3    3    0    0 -1.49483784382E+01 -2.55738583791E+01  5.48464439858E+02  5.52255789884E+02  5.74085309086E+01  0.00000000000E+00  1.
        4    1    4    4  804    0  2.94012087711E+01  2.43919546777E+01  1.47844650065E+02  1.52705810984E+02  1.27500000000E+00  0.00000000000E+00  1.
       -4    1    4    4    0  804 -1.44528303328E+01  1.18190370139E+00  1.15716607302E+02  1.16628641557E+02  1.27500000000E+00  0.00000000000E+00  1.
       16    1    5    5    0    0 -2.54925476503E+01 -3.62626568835E+01  4.85785082062E+02  4.87803235251E+02  5.39479660939E-06  0.00000000000E+00  1.
      -16    1    5    5    0    0  1.05441692121E+01  1.06887985044E+01  6.26793577958E+01  6.44525548324E+01  5.64201334295E-06  0.00000000000E+00  1.
</event>
<event>
 9   0   1.0738851E-12   6.2499586E+01   7.8125000E-03   1.3828954E-01
       21   -1    0    0  501  502  0.00000000000E+00  0.00000000000E+00  1.62240622197E+03  1.62240622197E+03  0.00000000000E+00  0.00000000000E+00  1.
       21   -1    0    0  502  501  0.00000000000E+00  0.00000000000E+00 -2.40765736763E+00  2.40765736763E+00  0.00000000000E+00  0.00000000000E+00  1.
       25    2    1    2    0    0  1.77635683940E-15  7.10542735760E-15  1.61999856461E+03  1.62481387934E+03  1.24999172695E+02  0.00000000000E+00  1.
       23    2    3    3    0    0 -1.04974695454E+01 -1.79395097275E+01  9.63052303873E+02  9.64985775917E+02  5.74089265771E+01  0.00000000000E+00  1.
       23    2    3    3    0    0  1.04974695454E+01  1.79395097275E+01  6.56946260732E+02  6.59828103423E+02  5.79889101587E+01  0.00000000000E+00  1.
        1    1    4    4  803    0 -1.62306156252E+01  2.59992407998E+00  8.35612892487E+02  8.35774550191E+02  1.86881236479E-05  0.00000000000E+00  1.
       -1    1    4    4    0  803  5.73314607975E+00 -2.05394338075E+01  1.27439411386E+02  1.29211225926E+02  9.14732269919E-06  0.00000000000E+00  1.
       15    1    5    5    0    0 -2.28541650992E+01  4.72752228912E-01  1.94022779811E+02  1.95372803790E+02  1.77680000001E+00  0.00000000000E+00  1.
      -15    1    5    5    0    0  3.33516346447E+01  1.74667574986E+01  4.62923480921E+02  4.64455299633E+02  1.77680000003E+00  0.00000000000E+00  1.
</event>
<event>
 9   0   1.1241251E-11   6.2499588E+01   7.8125000E-03   1.3828954E-01
       21   -1    0    0  501  502  0.00000000000E+00  0.00000000000E+00  6.94998129887E+02  6.94998129887E+02  0.00000000000E+00  0.00000000000E+00  1.
       21   -1    0    0  502  501  0.00000000000E+00  0.00000000000E+00 -5.62044459599E+00  5.62044459599E+00  0.00000000000E+00  0.00000000000E+00  1.
       25    2    1    2    0    0 -7.10542735760E-15 -1.06581410364E-14  6.89377685291E+02  7.00618574483E+02  1.24999175731E+02  0.00000000000E+00  1.
       23    2    3    3    0    0  1.63014368279E+01  2.78705920939E+01  2.01305269526E+02  2.08013955462E+02  4.12733253024E+01  0.00000000000E+00  1.
       23    2    3    3    0    0 -1.63014368279E+01 -2.78705920939E+01  4.88072415765E+02  4.92604619021E+02  5.83277027168E+01  0.00000000000E+00  1.
        3    1    4    4  803    0 -3.93669099448E-01  2.11526665636E+01  1.74190903923E+02  1.75470969929E+02  3.30362473978E-06  0.00000000000E+00  1.
       -3    1    4    4    0  803  1.66951059273E+01  6.71792553038E+00  2.71143656029E+01  3.25429855331E+01  2.80078414070E-06  0.00000000000E+00  1.
        4    1    5    5  804    0 -3.34177289839E+01 -3.27413619085E+01  2.92556404615E+02  2.96276250982E+02  1.27500000001E+00  0.00000000000E+00  1.
       -4    1    5    5    0  804  1.71162921560E+01  4.87076981459E+00  1.95516011150E+02  1.96328368039E+02  1.27499999999E+00  0.00000000000E+00  1.
</event>
<event>
 9   0   2.1648831E-13   6.2499587E+01   7.8125000E-03   1.3828954E-01
       21   -1    0    0  501  502  0.00000000000E+00  0.00000000000E+00  8.03139001659E+02  8.03139001659E+02  0.00000000000E+00  0.00000000000E+00  1.
       21   -1    0    0  502  501  0.00000000000E+00  0.00000000000E+00 -4.86366418090E+00  4.86366418090E+00  0.00000000000E+00  0.00000000000E+00  1.
       25    2    1    2    0    0 -3.55271367880E-15  0.00000000000E+00  7.98275337479E+02  8.08002665840E+02  1.24999174312E+02  0.00000000000E+00  1.
       23    2    3    3    0    0 -3.83066221176E+00 -6.53489339807E+00  5.47141707674E+02  5.50197166926E+02  5.74064056706E+01  0.00000000000E+00  1.
       23    2    3    3    0    0  3.83066221176E+00  6.53489339807E+00  2.51133629804E+02  2.57805498915E+02  5.77771273696E+01  0.00000000000E+00  1.
        3    1    4    4  803    0  1.26217362455E+01  2.71646431274E+00  4.86823594806E+02  4.86994763792E+02  7.62939453125E-06  0.00000000000E+00  1.
       -3    1    4    4    0  803 -1.64523984572E+01 -9.25135771081E+00  6.03181128684E+01  6.32024033335E+01  8.14819693119E-06  0.00000000000E+00  1.
        5    1    5    5  804    0 -1.44536750104E+01 -1.72205846660E+01  1.62558154738E+02  1.64174216701E+02  4.75000000000E+00  0.00000000000E+00  1.
       -5    1    5    5    0  804  1.82843372222E+01  2.37554780640E+01  8.85754750665E+01  9.36312822136E+01  4.75000000000E+00  0.00000000000E+00  1.
</event>
<event>
 9   0   4.1976725E-06   6.2499555E+01   7.8125000E-03   1.3828955E-01
       21   -1    0    0  501  502  0.00000000000E+00  0.00000000000E+00  1.55870609834E+02  1.55870609834E+02  0.00000000000E+00  0.00000000000E+00  1.
       21   -1    0    0  502  501  0.00000000000E+00  0.00000000000E+00 -2.50604934058E+01  2.50604934058E+01  0.00000000000E+00  0.00000000000E+00  1.
       25    2    1    2    0    0  0.00000000000E+00  7.10542735760E-15  1.30810116428E+02  1.80931103240E+02  1.24999110235E+02  0.00000000000E+00  1.
       23    2    3    3    0    0  2.92275131258E+01  1.09353581174E+01  5.02831489628E+01  7.66620146718E+01  4.87323285227E+01  0.00000000000E+00  1.
       23    2    3    3    0    0 -2.92275131258E+01 -1.09353581174E+01  8.05269674653E+01  1.04269088568E+02  5.84261992683E+01  0.00000000000E+00  1.
        4    1    5    5  804    0 -1.03422327675E+00  2.13730758629E+01  3.93287744051E+01  4.47912503825E+01  1.27500000000E+00  0.00000000000E+00  1.
       -4    1    4    4    0  803  1.70240255883E+01  5.40663981932E+00 -5.92736428317E+00  1.88628861448E+01  1.27500000000E+00  0.00000000000E+00  1.
        4    1    4    4  803    0  1.22034875375E+01  5.52871829804E+00  5.62105132460E+01  5.77991285270E+01  1.27500000000E+00  0.00000000000E+00  1.
       -4    1    5    5    0  804 -2.81932898491E+01 -3.23084339803E+01  4.11981930602E+01  5.94778381853E+01  1.27500000000E+00  0.00000000000E+00  1.
</event>
<event>
 9   0   2.9910951E-12   6.2499674E+01   7.8125000E-03   1.3828951E-01
       21   -1    0    0  501  502  0.00000000000E+00  0.00000000000E+00  8.14689786371E+02  8.14689786371E+02  0.00000000000E+00  0.00000000000E+00  1.
       21   -1    0    0  502  501  0.00000000000E+00  0.00000000000E+00 -4.79471974770E+00  4.79471974770E+00  0.00000000000E+00  0.00000000000E+00  1.
       25    2    1    2    0    0  5.32907051820E-15  0.00000000000E+00  8.09895066623E+02  8.19484506119E+02  1.24999347310E+02  0.00000000000E+00  1.
       23    2    3    3    0    0  1.03030511272E+01  1.76037268304E+01  1.18015110964E+02  1.21243329986E+02  1.88768267858E+01  0.00000000000E+00  1.
       23    2    3    3    0    0 -1.03030511272E+01 -1.76037268304E+01  6.91879955660E+02  6.98241176133E+02  9.17977284175E+01  0.00000000000E+00  1.
        5    1    4    4  803    0  9.32331558982E+00  1.04363107564E+01  1.01764779541E+02  1.02832259777E+02  4.75000000000E+00  0.00000000000E+00  1.
       -5    1    4    4    0  803  9.79735537388E-01  7.16741607403E+00  1.62503314225E+01  1.84110702090E+01  4.75000000000E+00  0.00000000000E+00  1.
        5    1    5    5  804    0 -3.10268433090E+01 -4.12935389759E+01  5.67024315032E+02  5.69391743621E+02  4.75000000000E+00  0.00000000000E+00  1.
       -5    1    5    5    0  804  2.07237921818E+01  2.36898121455E+01  1.24855640628E+02  1.28849432511E+02  4.75000000000E+00  0.00000000000E+00  1.
</event>
<event>
 9   0   2.8206872E-15   6.2499587E+01   7.8125000E-03   1.3828954E-01
       21   -1    0    0  501  502  0.00000000000E+00  0.00000000000E+00  8.16039777951E+02  8.16039777951E+02  0.00000000000E+00  0.00000000000E+00  1.
       21   -1    0    0  502  501  0.00000000000E+00  0.00000000000E+00 -4.78677450737E+00  4.78677450737E+00  0.00000000000E+00  0.00000000000E+00  1.
       25    2    1    2    0    0  1.77635683940E-15  0.00000000000E+00  8.11253003444E+02  8.20826552459E+02  1.24999174495E+02  0.00000000000E+00  1.
       23    2    3    3    0    0 -8.27864609411E+00 -2.87592793140E+01  5.44377049564E+02  5.51647617785E+02  8.41016645967E+01  0.00000000000E+00  1.
       23    2    3    3    0    0  8.27864609411E+00  2.87592793140E+01  2.66875953880E+02  2.69178934674E+02  1.84090191203E+01  0.00000000000E+00  1.
        1    1    5    5  804    0 -4.97275275036E+00  1.40921816335E+01  1.36022116834E+02  1.36840542781E+02  1.90734863281E-06  0.00000000000E+00  1.
       -1    1    4    4    0  803  1.29890618936E+01 -3.70708860651E-01  1.08103870214E+01  1.69031838678E+01  1.50789149292E-06  0.00000000000E+00  1.
        1    1    4    4  803    0 -2.12677079877E+01 -2.83885704534E+01  5.33566662542E+02  5.34744434017E+02  0.00000000000E+00  0.00000000000E+00  1.
       -1    1    5    5    0  804  1.32513988445E+01  1.46670976805E+01  1.30853837046E+02  1.32338391993E+02  3.30362473978E-06  0.00000000000E+00  1.
</event>
<event>
 9   0   9.3848163E-08   6.2499586E+01   7.8125000E-03   1.3828954E-01
       21   -1    0    0  501  502  0.00000000000E+00  0.00000000000E+00  8.15611804545E+02  8.15611804545E+02  0.00000000000E+00  0.00000000000E+00  1.
       21   -1    0    0  502  501  0.00000000000E+00  0.00000000000E+00 -4.78928608599E+00  4.78928608599E+00  0.00000000000E+00  0.00000000000E+00  1.
       25    2    1    2    0    0  1.77635683940E-15  0.00000000000E+00  8.10822518459E+02  8.20401090631E+02  1.24999172271E+02  0.00000000000E+00  1.
       23    2    3    3    0    0  1.14976086786E+01 -1.61878743117E+01  4.77940081017E+02  4.81785037889E+02  5.74095759511E+01  0.00000000000E+00  1.
       23    2    3    3    0    0 -1.14976086786E+01  1.61878743117E+01  3.32882437443E+02  3.38616052743E+02  5.87866629206E+01  0.00000000000E+00  1.
        3    1    4    4  804    0  1.64582208992E+01  3.77515082925E+00  4.19333806239E+02  4.19673642177E+02  7.62939453125E-06  0.00000000000E+00  1.
       -3    1    4    4    0  804 -4.96061222064E+00 -1.99630251409E+01  5.86062747778E+01  6.21113958120E+01  1.34869915235E-06  0.00000000000E+00  1.
        5    1    5    5  803    0 -2.20592559670E+01 -1.25692362691E+01  2.21460908482E+02  2.22962088615E+02  4.75000000000E+00  0.00000000000E+00  1.
       -5    1    5    5    0  803  1.05616472885E+01  2.87571105807E+01  1.11421528961E+02  1.15653964127E+02  4.75000000000E+00  0.00000000000E+00  1.
</event>
<event>
 9   0   8.3704230E-08   6.2497583E+01   7.8125000E-03   1.3829029E-01
       21   -1    0    0  501  502  0.00000000000E+00  0.00000000000E+00  8.16772782890E+02  8.16772782890E+02  0.00000000000E+00  0.00000000000E+00  1.
       21   -1    0    0  502  501  0.00000000000E+00  0.00000000000E+00 -4.78217197359E+00  4.78217197359E+00  0.00000000000E+00  0.00000000000E+00  1.
       25    2    1    2    0    0  5.32907051820E-15  0.00000000000E+00  8.11990610917E+02  8.21554954864E+02  1.24995166485E+02  0.00000000000E+00  1.
       23    2    3    3    0    0 -5.75947870235E+00 -9.82536336114E+00  6.53028696462E+02  6.55647133872E+02  5.74193032988E+01  0.00000000000E+00  1.
       23    2    3    3    0    0  5.75947870235E+00  9.82536336114E+00  1.58961914455E+02  1.65907820992E+02  4.61173010826E+01  0.00000000000E+00  1.
        5    1    4    4  804    0  1.12815430267E+01  1.96128633798E-01  5.71170772838E+02  5.71301956870E+02  4.74999999999E+00  0.00000000000E+00  1.
       -5    1    4    4    0  804 -1.70410217291E+01 -1.00214919949E+01  8.18579236241E+01  8.43451770016E+01  4.74999999999E+00  0.00000000000E+00  1.
       14    1    5    5    0    0 -1.04520134215E+01 -1.24438299858E+01  9.32627024899E+01  9.46679733803E+01  1.90734863281E-06  0.00000000000E+00  1.
      -14    1    5    5    0    0  1.62114921239E+01  2.22691933469E+01  6.56992119647E+01  7.12398478117E+01  1.34869915235E-06  0.00000000000E+00  1.
</event>
<event>
 9   0   3.6621874E-13   6.2499589E+01   7.8125000E-03   1.3828954E-01
       21   -1    0    0  501  502  0.00000000000E+00  0.00000000000E+00  8.15621049805E+02  8.15621049805E+02  0.00000000000E+00  0.00000000000E+00  1.
       21   -1    0    0  502  501  0.00000000000E+00  0.00000000000E+00 -4.78923216551E+00  4.78923216551E+00  0.00000000000E+00  0.00000000000E+00  1.
       25    2    1    2    0    0 -1.77635683940E-15  0.00000000000E+00  8.10831817640E+02  8.20410281971E+02  1.24999177063E+02  0.00000000000E+00  1.
       23    2    3    3    0    0 -9.78768521736E+00 -1.66951422975E+01  4.74073528685E+02  4.77929004307E+02  5.74098946116E+01  0.00000000000E+00  1.
       23    2    3    3    0    0  9.78768521736E+00  1.66951422975E+01  3.36758288955E+02  3.42481277664E+02  5.92684892044E+01  0.00000000000E+00  1.
        4    1    4    4  804    0  1.00238294620E+01 -2.41778032611E+00  3.95540740971E+02  3.95677174236E+02  1.27500000002E+00  0.00000000000E+00  1.
       -4    1    4    4    0  804 -1.98115146794E+01 -1.42773619714E+01  7.85327877139E+01  8.22518300701E+01  1.27500000002E+00  0.00000000000E+00  1.
       12    1    5    5    0    0  3.15587908911E+01  9.73687916567E+00  2.67916274406E+02  2.69944242743E+02  3.81469726562E-06  0.00000000000E+00  1.
      -12    1    5    5    0    0 -2.17711056737E+01  6.95826313186E+00  6.88420145490E+01  7.25370349217E+01  2.52318507296E-06  0.00000000000E+00  1.
</event>
<event>
 9   0   6.7973120E-11   6.2499669E+01   7.8125000E-03   1.3828951E-01
       21   -1    0    0  501  502  0.00000000000E+00  0.00000000000E+00  3.44154809423E+02  3.44154809423E+02  0.00000000000E+00  0.00000000000E+00  1.
       21   -1    0    0  502  501  0.00000000000E+00  0.00000000000E+00 -1.13501497847E+01  1.13501497847E+01  0.00000000000E+00  0.00000000000E+00  1.
       25    2    1    2    0    0  0.00000000000E+00  0.00000000000E+00  3.32804659639E+02  3.55504959208E+02  1.24999338176E+02  0.00000000000E+00  1.
       23    2    3    3    0    0 -1.48865705665E+01 -2.53918426566E+01  2.28141833444E+02  2.37088078288E+02  5.74082314856E+01  0.00000000000E+00  1.
       23    2    3    3    0    0  1.48865705665E+01  2.53918426566E+01  1.04662826195E+02  1.18416880920E+02  4.69243523461E+01  0.00000000000E+00  1.
        2    1    4    4  804    0  7.38948126905E+00 -6.74591820543E+00  1.83834830312E+02  1.84106916442E+02  0.00000000000E+00  0.00000000000E+00  1.
       -2    1    4    4    0  804 -2.22760518355E+01 -1.86459244512E+01  4.43070031319E+01  5.29811618459E+01  2.93942165516E-06  0.00000000000E+00  1.
       13    1    5    5    0    0 -8.31830360068E+00 -7.71558285351E+00  4.45554011215E+01  4.59773784234E+01  1.05660000000E-01  0.00000000000E+00  1.
      -13    1    5    5    0    0  2.32048741672E+01  3.31074255101E+01  6.01074250734E+01  7.24395024969E+01  1.05660000004E-01  0.00000000000E+00  1.
</event>
<event>
 9   0   3.9858755E-18   6.2499584E+01   7.8125000E-03   1.3828954E-01
       21   -1    0    0  501  502  0.00000000000E+00  0.00000000000E+00  8.04150621861E+02  8.04150621861E+02  0.00000000000E+00  0.00000000000E+00  1.
       21   -1    0    0  502  501  0.00000000000E+00  0.00000000000E+00 -4.85754519707E+00  4.85754519707E+00  0.00000000000E+00  0.00000000000E+00  1.
       25    2    1    2    0    0  0.00000000000E+00  3.55271367880E-15  7.99293076664E+02  8.09008167058E+02  1.24999167852E+02  0.00000000000E+00  1.
       23    2    3    3    0    0 -1.64177034715E+01 -2.80026778233E+01  5.58876413330E+02  5.62754294046E+02  5.74095735745E+01  0.00000000000E+00  1.
       23    2    3    3    0    0  1.64177034715E+01  2.80026778233E+01  2.40416663334E+02  2.46253873012E+02  4.22741884877E+01  0.00000000000E+00  1.
        1    1    4    4  803    0  6.65575565661E+00 -8.01996800923E+00  4.36643878262E+02  4.36768240010E+02  7.62939453125E-06  0.00000000000E+00  1.
       -1    1    4    4    0  803 -2.30734591281E+01 -1.99827098141E+01  1.22232535068E+02  1.25986054236E+02  8.31393994053E-06  0.00000000000E+00  1.
       11    1    5    5    0    0 -6.36068552518E+00 -5.55537644632E+00  9.22674744927E+01  9.26531563269E+01  5.11000377541E-04  0.00000000000E+00  1.
      -11    1    5    5    0    0  2.27783889966E+01  3.35580542696E+01  1.48149188841E+02  1.53600716685E+02  5.11005717009E-04  0.00000000000E+00  1.
</event>
<event>
 9   0   8.0096188E-09   6.2499662E+01   7.8125000E-03   1.3828951E-01
       21   -1    0    0  501  502  0.00000000000E+00  0.00000000000E+00  6.98766709128E+02  6.98766709128E+02  0.00000000000E+00  0.00000000000E+00  1.
       21   -1    0    0  502  501  0.00000000000E+00  0.00000000000E+00 -5.59014581351E+00  5.59014581351E+00  0.00000000000E+00  0.00000000000E+00  1.
       25    2    1    2    0    0  0.00000000000E+00  0.00000000000E+00  6.93176563315E+02  7.04356854942E+02  1.24999324697E+02  0.00000000000E+00  1.
       23    2    3    3    0    0 -1.52794713410E+01 -2.61499178336E+01  4.72968346813E+02  4.77401497135E+02  5.74095108200E+01  0.00000000000E+00  1.
       23    2    3    3    0    0  1.52794713410E+01  2.61499178336E+01  2.20208216502E+02  2.26955357807E+02  4.58235242548E+01  0.00000000000E+00  1.
       15    1    4    4    0    0 -2.47051130982E+01  8.68219888180E+00  1.36616721350E+02  1.39115091781E+02  1.77680000000E+00  0.00000000000E+00  1.
      -15    1    4    4    0    0  9.42564175714E+00 -3.48321167154E+01  3.36351625463E+02  3.38286405354E+02  1.77680000000E+00  0.00000000000E+00  1.
        1    1    5    5  803    0 -7.67258430223E+00 -7.19782092392E+00  8.96397009341E+01  9.02549342666E+01  1.90734863281E-06  0.00000000000E+00  1.
       -1    1    5    5    0  803  2.29520556433E+01  3.33477387575E+01  1.30568515568E+02  1.36700423640E+02  2.69739830470E-06  0.00000000000E+00  1.
</event>
<event>
 9   0   3.9240833E-10   6.2497553E+01   7.8125000E-03   1.3829030E-01
       21   -1    0    0  501  502  0.00000000000E+00  0.00000000000E+00  6.56146225684E+02  6.56146225684E+02  0.00000000000E+00  0.00000000000E+00  1.
       21   -1    0    0  502  501  0.00000000000E+00  0.00000000000E+00 -5.95285621033E+00  5.95285621033E+00  0.00000000000E+00  0.00000000000E+00  1.
       25    2    1    2    0    0  0.00000000000E+00 -3.55271367880E-15  6.50193369474E+02  6.62099081895E+02  1.24995106055E+02  0.00000000000E+00  1.
       23    2    3    3    0    0  1.65653343447E+01  2.82740889793E+01  1.92325702765E+02  1.99479744267E+02  4.15831458549E+01  0.00000000000E+00  1.
       23    2    3    3    0    0 -1.65653343447E+01 -2.82740889793E+01  4.57867666709E+02  4.62619337627E+02  5.74457737352E+01  0.00000000000E+00  1.
       11    1    4    4    0    0 -3.18686510487E-01  2.14203212670E+01  1.66500511027E+02  1.67873023136E+02  5.11012836212E-04  0.00000000000E+00  1.
      -11    1    4    4    0    0  1.68840208552E+01  6.85376771230E+00  2.58251917384E+01  3.16067211314E+01  5.11002157370E-04  0.00000000000E+00  1.
        5    1    5    5  803    0 -3.15612253218E+01 -3.24526982721E+01  3.97445834504E+02  4.00043800643E+02  4.75000000000E+00  0.00000000000E+00  1.
       -5    1    5    5    0  803  1.49958909771E+01  4.17860929287E+00  6.04218322050E+01  6.25755369840E+01  4.75000000000E+00  0.00000000000E+00  1.
</event>
<event>
 9   0   2.2981940E-15   6.2499589E+01   7.8125000E-03   1.3828954E-01
       21   -1    0    0  501  502  0.00000000000E+00  0.00000000000E+00  7.06806658154E+02  7.06806658154E+02  0.00000000000E+00  0.00000000000E+00  1.
       21   -1    0    0  502  501  0.00000000000E+00  0.00000000000E+00 -5.52654471708E+00  5.52654471708E+00  0.00000000000E+00  0.00000000000E+00  1.
       25    2    1    2    0    0 -3.55271367880E-15 -3.55271367880E-15  7.01280113437E+02  7.12333202871E+02  1.24999177639E+02  0.00000000000E+00  1.
       23    2    3    3    0    0 -1.58245616335E+01 -2.59346763996E+01  4.80243278189E+02  4.84615839063E+02  5.74097642751E+01  0.00000000000E+00  1.
       23    2    3    3    0    0  1.58245616335E+01  2.59346763996E+01  2.21036835249E+02  2.27717363809E+02  4.55509720255E+01  0.00000000000E+00  1.
       13    1    4    4    0    0 -1.92498506252E+01 -1.94878177371E+00  4.07187256927E+02  4.07646694905E+02  1.05660000228E-01  0.00000000000E+00  1.
      -13    1    4    4    0    0  3.42528899171E+00 -2.39858946259E+01  7.30560212619E+01  7.69691441575E+01  1.05660000073E-01  0.00000000000E+00  1.
        2    1    5    5  804    0 -7.10515608423E+00 -6.84104330103E+00  9.43871144616E+01  9.49010564313E+01  1.90734863281E-06  0.00000000000E+00  1.
       -2    1    5    5    0  804  2.29297177177E+01  3.27757197006E+01  1.26649720787E+02  1.32816307577E+02  1.34869915235E-06  0.00000000000E+00  1.
</event>
<event>
 9   0   6.0314388E-13   6.2499655E+01   7.8125000E-03   1.3828951E-01
       21   -1    0    0  501  502  0.00000000000E+00  0.00000000000E+00  8.16477762505E+02  8.16477762505E+02  0.00000000000E+00  0.00000000000E+00  1.
       21   -1    0    0  502  501  0.00000000000E+00  0.00000000000E+00 -4.78421717422E+00  4.78421717422E+00  0.00000000000E+00  0.00000000000E+00  1.
       25    2    1    2    0    0  0.00000000000E+00 -3.55271367880E-15  8.11693545331E+02  8.21261979679E+02  1.24999310938E+02  0.00000000000E+00  1.
       23    2    3    3    0    0  1.12884556319E+01  1.92831537146E+01  4.52872565397E+02  4.57191204922E+02  5.85744664576E+01  0.00000000000E+00  1.
       23    2    3    3    0    0 -1.12884556319E+01 -1.92831537146E+01  3.58820979934E+02  3.64070774757E+02  5.74087462338E+01  0.00000000000E+00  1.
        3    1    4    4  803    0 -7.20119626495E+00 -1.48640235957E+00  3.63904257828E+02  3.63978537221E+02  7.62939453125E-06  0.00000000000E+00  1.
       -3    1    4    4    0  803  1.84896518968E+01  2.07695560742E+01  8.89683075696E+01  9.32126679011E+01  4.37028474327E-06  0.00000000000E+00  1.
       13    1    5    5    0    0 -2.23765143718E+01 -3.08780022137E+01  3.16874783708E+02  3.19161086491E+02  1.05659999952E-01  0.00000000000E+00  1.
      -13    1    5    5    0    0  1.10880587399E+01  1.15948484991E+01  4.19461962253E+01  4.49096882659E+01  1.05660000048E-01  0.00000000000E+00  1.
</event>
<event>
 9   0   6.7735789E-05   6.2499589E+01   7.8125000E-03   1.3828954E-01
       21   -1    0    0  501  502  0.00000000000E+00  0.00000000000E+00  8.29397088381E+02  8.29397088381E+02  0.00000000000E+00  0.00000000000E+00  1.
       21   -1    0    0  502  501  0.00000000000E+00  0.00000000000E+00 -4.70968447866E+00  4.70968447866E+00  0.00000000000E+00  0.00000000000E+00  1.
       25    2    1    2    0    0  8.88178419700E-16  3.55271367880E-15  8.24687403902E+02  8.34106772860E+02  1.24999177498E+02  0.00000000000E+00  1.
       23    2    3    3    0    0 -7.86327773189E+00  2.74322540495E+01  5.01597580872E+02  5.08861076556E+02  8.07781059353E+01  0.00000000000E+00  1.
       23    2    3    3    0    0  7.86327773189E+00 -2.74322540495E+01  3.23089823030E+02  3.25245696303E+02  2.41530436827E+01  0.00000000000E+00  1.
        1    1    5    5  804    0 -7.24553247951E+00 -4.17613941086E+00  1.16961847006E+02  1.17260443187E+02  1.34869915235E-06  0.00000000000E+00  1.
       -1    1    4    4    0  803  1.29995081265E+01  1.40074196932E+01  2.42764143333E+01  3.08956196066E+01  0.00000000000E+00  0.00000000000E+00  1.
        1    1    4    4  803    0 -2.08627858584E+01  1.34248343563E+01  4.77321166539E+02  4.77965456950E+02  0.00000000000E+00  0.00000000000E+00  1.
       -1    1    5    5    0  804  1.51088102114E+01 -2.32561146387E+01  2.06127976024E+02  2.07985253216E+02  5.39479660939E-06  0.00000000000E+00  1.
</event>
<event>
 9   0   2.6841407E-15   6.2499589E+01   7.8125000E-03   1.3828954E-01
       21   -1    0    0  501  502  0.00000000000E+00  0.00000000000E+00  1.38323566066E+03  1.38323566066E+03  0.00000000000E+00  0.00000000000E+00  1.
       21   -1    0    0  502  501  0.00000000000E+00  0.00000000000E+00 -2.82395740164E+00  2.82395740164E+00  0.00000000000E+00  0.00000000000E+00  1.
       25    2    1    2    0    0  3.55271367880E-15  0.00000000000E+00  1.38041170326E+03  1.38605961806E+03  1.24999177311E+02  0.00000000000E+00  1.
       23    2    3    3    0    0 -1.65117095420E+01 -2.82485624228E+01  9.68153556632E+02  9.70405937914E+02  5.74086865294E+01  0.00000000000E+00  1.
       23    2    3    3    0    0  1.65117095420E+01  2.82485624228E+01  4.12258146627E+02  4.15653680148E+02  4.17203131501E+01  0.00000000000E+00  1.
       15    1    4    4    0    0 -1.95939596819E+01 -3.21582977969E+00  8.09895915203E+02  8.10141231699E+02  1.77680000015E+00  0.00000000000E+00  1.
      -15    1    4    4    0    0  3.08225013984E+00 -2.50327326431E+01  1.58257641428E+02  1.60264706215E+02  1.77679999996E+00  0.00000000000E+00  1.
        3    1    5    5  803    0 -6.48183227315E+00 -5.74990824016E+00  1.45368055877E+02  1.45626052833E+02  1.90734863281E-06  0.00000000000E+00  1.
       -3    1    5    5    0  803  2.29935418152E+01  3.39984706629E+01  2.66890090751E+02  2.70027627315E+02  0.00000000000E+00  0.00000000000E+00  1.
</event>
<event>
 9   0   2.9177530E-13   6.2499042E+01   7.8125000E-03   1.3828974E-01
       21   -1    0    0  501  502  0.00000000000E+00  0.00000000000E+00  8.16089713870E+02  8.16089713870E+02  0.00000000000E+00  0.00000000000E+00  1.
       21   -1    0    0  502  501  0.00000000000E+00  0.00000000000E+00 -4.78639816281E+00  4.78639816281E+00  0.00000000000E+00  0.00000000000E+00  1.
       25    2    1    2    0    0 -1.77635683940E-15  0.00000000000E+00  8.11303315708E+02  8.20876112033E+02  1.24998084900E+02  0.00000000000E+00  1.
       23    2    3    3    0    0 -5.04809135738E+00 -8.62693551407E+00  5.50218296284E+02  5.53295558520E+02  5.74098795483E+01  0.00000000000E+00  1.
       23    2    3    3    0    0  5.04809135738E+00  8.62693551407E+00  2.61085019423E+02  2.67580553513E+02  5.77413024464E+01  0.00000000000E+00  1.
        3    1    4    4  804    0  1.21058651135E+01  1.27518806445E+00  4.84605174995E+02  4.84758036348E+02  7.62939453125E-06  0.00000000000E+00  1.
       -3    1    4    4    0  804 -1.71539564709E+01 -9.90212357852E+00  6.56131212889E+01  6.85375223724E+01  6.39744179964E-06  0.00000000000E+00  1.
        2    1    5    5  803    0 -1.89454844308E+01 -1.11686739462E+01  1.68057737763E+02  1.69490630656E+02  1.90734863281E-06  0.00000000000E+00  1.
       -2    1    5    5    0  803  2.39935757882E+01  1.97956094602E+01  9.30272816604E+01  9.80899228572E+01  2.69739830470E-06  0.00000000000E+00  1.
</event>
<event>
 9   0   6.6251890E-08   6.2499545E+01   7.8125000E-03   1.3828956E-01
       21   -1    0    0  501  502  0.00000000000E+00  0.00000000000E+00  7.30366256059E+02  7.30366256059E+02  0.00000000000E+00  0.00000000000E+00  1.
       21   -1    0    0  502  501  0.00000000000E+00  0.00000000000E+00 -5.34826614386E+00  5.34826614386E+00  0.00000000000E+00  0.00000000000E+00  1.
       25    2    1    2    0    0  0.00000000000E+00 -3.55271367880E-15  7.25017989915E+02  7.35714522203E+02  1.24999089915E+02  0.00000000000E+00  1.
       23    2    3    3    0    0 -1.62058099953E+01 -2.76987958473E+01  5.05339026773E+02  5.09601005582E+02  5.74090701956E+01  0.00000000000E+00  1.
       23    2    3    3    0    0  1.62058099953E+01  2.76987958473E+01  2.19678963142E+02  2.26113516621E+02  4.28791788950E+01  0.00000000000E+00  1.
       12    1    4    4    0    0  6.74355008087E+00 -7.83591976563E+00  3.95794803130E+02  3.95929796013E+02  7.62939453125E-06  0.00000000000E+00  1.
      -12    1    4    4    0    0 -2.29493600762E+01 -1.98628760817E+01  1.09544223643E+02  1.13671209669E+02  3.30362473978E-06  0.00000000000E+00  1.
        3    1    5    5  804    0 -1.02644080899E+01  2.02554765336E+01  1.39852309679E+02  1.41683841441E+02  3.30362473978E-06  0.00000000000E+00  1.
       -3    1    5    5    0  804  2.64702180852E+01  7.44331931366E+00  7.98266534634E+01  8.44296751803E+01  0.00000000000E+00  0.00000000000E+00  1.
</event>
<event>
 9   0   8.8737894E-14   6.2499588E+01   7.8125000E-03   1.3828954E-01
       21   -1    0    0  501  502  0.00000000000E+00  0.00000000000E+00  7.00379124043E+02  7.00379124043E+02  0.00000000000E+00  0.00000000000E+00  1.
       21   -1    0    0  502  501  0.00000000000E+00  0.00000000000E+00 -5.57726289641E+00  5.57726289641E+00  0.00000000000E+00  0.00000000000E+00  1.
       25    2    1    2    0    0  3.55271367880E-15 -5.32907051820E-15  6.94801861146E+02  7.05956386939E+02  1.24999176028E+02  0.00000000000E+00  1.
       23    2    3    3    0    0 -3.54484985396E+01 -1.14633153067E+01  4.51313839688E+02  4.59391992243E+02  7.72581192933E+01  0.00000000000E+00  1.
       23    2    3    3    0    0  3.54484985396E+01  1.14633153067E+01  2.43488021458E+02  2.46564394696E+02  1.09352865328E+01  0.00000000000E+00  1.
        3    1    5    5  804    0  1.39980003388E+01  9.96081688032E+00  1.18792687163E+02  1.20028598300E+02  1.34869915235E-06  0.00000000000E+00  1.
       -3    1    4    4    0  803 -5.75774843168E+00  4.10373050747E+00  2.40519915709E-01  7.07461100771E+00  1.33999681093E-06  0.00000000000E+00  1.
        3    1    4    4  803    0 -2.96907501079E+01 -1.55670458142E+01  4.51073319772E+02  4.52317381236E+02  5.39479660939E-06  0.00000000000E+00  1.
       -3    1    5    5    0  804  2.14504982007E+01  1.50249842640E+00  1.24695334295E+02  1.26535796396E+02  8.52992239952E-06  0.00000000000E+00  1.
</event>
<event>
 9   0   1.3430518E-09   6.2497541E+01   7.8125000E-03   1.3829030E-01
       21   -1    0    0  501  502  0.00000000000E+00  0.00000000000E+00  8.15533459065E+02  8.15533459065E+02  0.00000000000E+00  0.00000000000E+00  1.
       21   -1    0    0  502  501  0.00000000000E+00  0.00000000000E+00 -4.78943271396E+00  4.78943271396E+00  0.00000000000E+00  0.00000000000E+00  1.
       25    2    1    2    0    0 -3.55271367880E-15  1.77635683940E-15  8.10744026351E+02  8.20322891779E+02  1.24995081954E+02  0.00000000000E+00  1.
       23    2    3    3    0    0 -8.13119455512E+00 -1.38774513379E+01  6.65568844411E+02  6.68233795360E+02  5.74092207736E+01  0.00000000000E+00  1.
       23    2    3    3    0    0  8.13119455512E+00  1.38774513379E+01  1.45175181940E+02  1.52089096420E+02  4.23858445445E+01  0.00000000000E+00  1.
        2    1    4    4  803    0  1.67639767825E+01  2.90166848271E+00  7.51325240359E+01  7.70347115330E+01  1.65181236989E-06  0.00000000000E+00  1.
       -2    1    4    4    0  803 -2.48951713377E+01 -1.67791198206E+01  5.90436320375E+02  5.91199083927E+02  1.07895932188E-05  0.00000000000E+00  1.
        4    1    5    5  804    0 -8.49909777247E+00 -1.06905352522E+01  6.85995776217E+01  6.99574862456E+01  1.27500000000E+00  0.00000000000E+00  1.
       -4    1    5    5    0  804  1.66302923276E+01  2.45679865901E+01  7.65756043187E+01  8.21316101739E+01  1.27500000000E+00  0.00000000000E+00  1.
</event>
<event>
 9   0   5.1770388E-24   6.2499588E+01   7.8125000E-03   1.3828954E-01
       21   -1    0    0  501  502  0.00000000000E+00  0.00000000000E+00  7.23434601582E+02  7.23434601582E+02  0.00000000000E+00  0.00000000000E+00  1.
       21   -1    0    0  502  501  0.00000000000E+00  0.00000000000E+00 -5.39951846255E+00  5.39951846255E+00  0.00000000000E+00  0.00000000000E+00  1.
       25    2    1    2    0    0 -1.77635683940E-15  0.00000000000E+00  7.18035083120E+02  7.28834120045E+02  1.24999175800E+02  0.00000000000E+00  1.
       23    2    3    3    0    0  1.05455542747E+01  1.79885086561E+01  2.87427463908E+02  2.93916265418E+02  5.77704847669E+01  0.00000000000E+00  1.
       23    2    3    3    0    0 -1.05455542747E+01 -1.79885086561E+01  4.30607619212E+02  4.34917854627E+02  5.74092622418E+01  0.00000000000E+00  1.
        3    1    4    4  803    0 -5.79419405187E+00  2.06184617024E+01  2.65905895847E+02  2.66767012754E+02  3.81469726562E-06  0.00000000000E+00  1.
       -3    1    4    4    0  803  1.63397483266E+01 -2.62995304631E+00  2.15215680607E+01  2.71492526636E+01  3.37174788087E-06  0.00000000000E+00  1.
       15    1    5    5    0    0 -2.18940029867E+01 -3.01718275876E+01  3.74768499679E+02  3.76622187234E+02  1.77680000000E+00  0.00000000000E+00  1.
      -15    1    5    5    0    0  1.13484487120E+01  1.21833189315E+01  5.58391195329E+01  5.82956673931E+01  1.77680000000E+00  0.00000000000E+00  1.
</event>
<event>
 9   0   6.1767965E-17   6.2499547E+01   7.8125000E-03   1.3828956E-01
       21   -1    0    0  501  502  0.00000000000E+00  0.00000000000E+00  8.15161930306E+02  8.15161930306E+02  0.00000000000E+00  0.00000000000E+00  1.
       21   -1    0    0  502  501  0.00000000000E+00  0.00000000000E+00 -4.79192327960E+00  4.79192327960E+00  0.00000000000E+00  0.00000000000E+00  1.
       25    2    1    2    0    0 -2.66453525910E-15 -3.55271367880E-15  8.10370007027E+02  8.19953853586E+02  1.24999094884E+02  0.00000000000E+00  1.
       23    2    3    3    0    0 -7.47979433152E+00 -1.27615262375E+01  6.37941952877E+02  6.40690670404E+02  5.74090239143E+01  0.00000000000E+00  1.
       23    2    3    3    0    0  7.47979433152E+00  1.27615262375E+01  1.72428054150E+02  1.79263183182E+02  4.67445302851E+01  0.00000000000E+00  1.
        2    1    4    4  804    0 -1.51726353051E+01  4.50287620087E+00  5.68563120942E+02  5.68783357145E+02  7.62939453125E-06  0.00000000000E+00  1.
       -2    1    4    4    0  804  7.69284097357E+00 -1.72644024384E+01  6.93788319346E+01  7.19073134583E+01  3.30362473978E-06  0.00000000000E+00  1.
        4    1    5    5  803    0 -1.03166479317E+01 -1.16004590191E+01  9.28691626799E+01  9.41663999305E+01  1.27500000000E+00  0.00000000000E+00  1.
       -4    1    5    5    0  803  1.77964422632E+01  2.43619852566E+01  7.95588914700E+01  8.50967832518E+01  1.27500000000E+00  0.00000000000E+00  1.
</event>
<event>
 9   0   3.5590607E-14   6.2499589E+01   7.8125000E-03   1.3828954E-01
       21   -1    0    0  501  502  0.00000000000E+00  0.00000000000E+00  7.09187914695E+02  7.09187914695E+02  0.00000000000E+00  0.00000000000E+00  1.
       21   -1    0    0  502  501  0.00000000000E+00  0.00000000000E+00 -5.50798812118E+00  5.50798812118E+00  0.00000000000E+00  0.00000000000E+00  1.
       25    2    1    2    0    0  3.55271367880E-15 -7.10542735760E-15  7.03679926574E+02  7.14695902816E+02  1.24999177754E+02  0.00000000000E+00  1.
       23    2    3    3    0    0  2.98406674216E+01  2.60846109538E+01  5.18217608711E+02  5.24425251377E+02  7.00105845055E+01  0.00000000000E+00  1.
       23    2    3    3    0    0 -2.98406674216E+01 -2.60846109538E+01  1.85462317863E+02  1.90270651439E+02  1.53550347217E+01  0.00000000000E+00  1.
        5    1    4    4  803    0  7.12489523047E+00 -7.68718287764E+00  3.82107395188E+02  3.82280631042E+02  4.74999999999E+00  0.00000000000E+00  1.
       -5    1    4    4    0  803  2.27157721911E+01  3.37717938314E+01  1.36110213523E+02  1.42144620335E+02  4.75000000000E+00  0.00000000000E+00  1.
        5    1    5    5  804    0 -8.84147649441E+00 -7.75453697671E+00  8.35996572304E+01  8.45563110558E+01  4.75000000000E+00  0.00000000000E+00  1.
       -5    1    5    5    0  804 -2.09991909272E+01 -1.83300739771E+01  1.01862660633E+02  1.05714340384E+02  4.75000000000E+00  0.00000000000E+00  1.
</event>
<event>
 9   0   5.2981214E-17   6.2499740E+01   7.8125000E-03   1.3828948E-01
       21   -1    0    0  501  502  0.00000000000E+00  0.00000000000E+00  8.15472592666E+02  8.15472592666E+02  0.00000000000E+00  0.00000000000E+00  1.
       21   -1    0    0  502  501  0.00000000000E+00  0.00000000000E+00 -4.79012722350E+00  4.79012722350E+00  0.00000000000E+00  0.00000000000E+00  1.
       25    2    1    2    0    0  1.77635683940E-15  1.06581410364E-14  8.10682465442E+02  8.20262719889E+02  1.24999479457E+02  0.00000000000E+00  1.
       23    2    3    3    0    0  1.06172229849E+01  1.81503553384E+01  3.26810681664E+02  3.32543758579E+02  5.77751581356E+01  0.00000000000E+00  1.
       23    2    3    3    0    0 -1.06172229849E+01 -1.81503553384E+01  4.83871783778E+02  4.87718961310E+02  5.74083727484E+01  0.00000000000E+00  1.
        1    1    4    4  803    0  2.02230649275E+01  1.50659441013E+01  3.18432903236E+02  3.19429912329E+02  3.81469726562E-06  0.00000000000E+00  1.
       -1    1    4    4    0  803 -9.60584194265E+00  3.08441123701E+00  8.37777842764E+00  1.31138463508E+01  0.00000000000E+00  0.00000000000E+00  1.
       16    1    5    5    0    0 -2.18408012580E+01 -3.02468415985E+01  4.23261374234E+02  4.24902439326E+02  0.00000000000E+00  0.00000000000E+00  1.
      -16    1    5    5    0    0  1.12235782731E+01  1.20964862602E+01  6.06104095437E+01  6.28165220839E+01  4.15696997027E-06  0.00000000000E+00  1.
</event>
<event>
 9   0   1.2413869E-13   6.2499587E+01   7.8125000E-03   1.3828954E-01
       21   -1    0    0  501  502  0.00000000000E+00  0.00000000000E+00  8.16405381831E+02  8.16405381831E+02  0.00000000000E+00  0.00000000000E+00  1.
       21   -1    0    0  502  501  0.00000000000E+00  0.00000000000E+00 -4.78463081125E+00  4.78463081125E+00  0.00000000000E+00  0.00000000000E+00  1.
       25    2    1    2    0    0  1.77635683940E-15  0.00000000000E+00  8.11620751019E+02  8.21190012642E+02  1.24999173507E+02  0.00000000000E+00  1.
       23    2    3    3    0    0 -5.02115761646E+00 -8.59461983279E+00  5.51647589087E+02  5.54716063821E+02  5.74087920284E+01  0.00000000000E+00  1.
       23    2    3    3    0    0  5.02115761646E+00  8.59461983279E+00  2.59973161932E+02  2.66473948820E+02  5.76475581527E+01  0.00000000000E+00  1.
        2    1    4    4  804    0  1.17539548078E+01  1.44210111305E+00  4.87781228707E+02  4.87924955489E+02  7.62939453125E-06  0.00000000000E+00  1.
       -2    1    4    4    0  804 -1.67751124243E+01 -1.00367209458E+01  6.38663603796E+01  6.67911083328E+01  6.43288496172E-06  0.00000000000E+00  1.
        1    1    5    5  803    0 -1.33292797818E+01 -1.56986993929E+01  1.75071789942E+02  1.76278899746E+02  1.90734863281E-06  0.00000000000E+00  1.
       -1    1    5    5    0  803  1.83504373983E+01  2.42933192257E+01  8.49013719902E+01  9.01950490743E+01  0.00000000000E+00  0.00000000000E+00  1.
</event>
<event>
 9   0   3.5483150E-13   6.2499526E+01   7.8125000E-03   1.3828956E-01
       21   -1    0    0  501  502  0.00000000000E+00  0.00000000000E+00  1.09603864225E+02  1.09603864225E+02  0.00000000000E+00  0.00000000000E+00  1.
       21   -1    0    0  502  501  0.00000000000E+00  0.00000000000E+00 -3.56391704365E+01  3.56391704365E+01  0.00000000000E+00  0.00000000000E+00  1.
       25    2    1    2    0    0 -1.77635683940E-15  0.00000000000E+00  7.39646937881E+01  1.45243034661E+02  1.24999052758E+02  0.00000000000E+00  1.
       23    2    3    3    0    0  2.14742233973E+00  8.42382641136E+00 -8.68412426815E+00  4.42371794620E+01  4.24963734727E+01  0.00000000000E+00  1.
       23    2    3    3    0    0 -2.14742233973E+00 -8.42382641136E+00  8.26488180562E+01  1.01005855199E+02  5.74089138052E+01  0.00000000000E+00  1.
        3    1    4    4  804    0  1.18450518328E+01  7.51330581306E+00  1.38349896787E+01  1.97018263243E+01  0.00000000000E+00  0.00000000000E+00  1.
       -3    1    4    4    0  804 -9.69762949306E+00  9.10520598302E-01 -2.25191139469E+01  2.45353533377E+01  0.00000000000E+00  0.00000000000E+00  1.
       11    1    5    5    0    0 -1.72494025260E+01 -2.49604174074E+01  6.73945555044E+01  7.39093393053E+01  5.10998597706E-04  0.00000000000E+00  1.
      -11    1    5    5    0    0  1.51019801863E+01  1.65365909961E+01  1.52542625518E+01  2.70965158938E+01  5.10998820186E-04  0.00000000000E+00  1.
</event>
<event>
 9   0   4.9020578E-08   6.2499609E+01   7.8125000E-03   1.3828953E-01
       21   -1    0    0  501  502  0.00000000000E+00  0.00000000000E+00  8.15705270000E+02  8.15705270000E+02  0.00000000000E+00  0.00000000000E+00  1.
       21   -1    0    0  502  501  0.00000000000E+00  0.00000000000E+00 -4.78874076157E+00  4.78874076157E+00  0.00000000000E+00  0.00000000000E+00  1.
       25    2    1    2    0    0 -7.10542735760E-15  7.10542735760E-15  8.10916529238E+02  8.20494010761E+02  1.24999217212E+02  0.00000000000E+00  1.
       23    2    3    3    0    0  1.33544953142E+01  2.94611769160E+01  2.41789415048E+02  2.47557234867E+02  4.21445110934E+01  0.00000000000E+00  1.
       23    2    3    3    0    0 -1.33544953142E+01 -2.94611769160E+01  5.69127114190E+02  5.72936775894E+02  5.74854205473E+01  0.00000000000E+00  1.
        5    1    4    4  804    0 -1.48646644487E+00  2.20726289533E+01  2.11464503659E+02  2.12671599748E+02  4.75000000000E+00  0.00000000000E+00  1.
       -5    1    4    4    0  804  1.48409617591E+01  7.38854796278E+00  3.03249113890E+01  3.48856351194E+01  4.75000000000E+00  0.00000000000E+00  1.
        1    1    5    5  803    0 -2.45715778849E+01 -3.89595159883E+01  5.07289045291E+02  5.09375874870E+02  5.39479660939E-06  0.00000000000E+00  1.
       -1    1    5    5    0  803  1.12170825706E+01  9.49833907222E+00  6.18380688986E+01  6.35609012236E+01  7.07263802251E-06  0.00000000000E+00  1.
</event>
<event>
 9   0   1.1220027E-20   6.2499587E+01   7.8125000E-03   1.3828954E-01
       21   -1    0    0  501  502  0.00000000000E+00  0.00000000000E+00  8.15895861335E+02  8.15895861335E+02  0.00000000000E+00  0.00000000000E+00  1.
       21   -1    0    0  502  501  0.00000000000E+00  0.00000000000E+00 -4.78761886213E+00  4.78761886213E+00  0.00000000000E+00  0.00000000000E+00  1.
       25    2    1    2    0    0  0.00000000000E+00 -7.10542735760E-15  8.11108242473E+02  8.20683480198E+02  1.24999174642E+02  0.00000000000E+00  1.
       23    2    3    3    0    0  1.57052706887E+01  2.68641559470E+01  2.54930942286E+02  2.60685936897E+02  4.47105575763E+01  0.00000000000E+00  1.
       23    2    3    3    0    0 -1.57052706887E+01 -2.68641559470E+01  5.56177300187E+02  5.59997543300E+02  5.74083692254E+01  0.00000000000E+00  1.
       16    1    4    4    0    0  1.94040221216E+01  1.80617362948E+01  2.46581051203E+02  2.48001929941E+02  4.67203091199E-06  0.00000000000E+00  1.
      -16    1    4    4    0    0 -3.69875143282E+00  8.80241965219E+00  8.34989108315E+00  1.26840071560E+01  2.08190073926E-06  0.00000000000E+00  1.
        2    1    5    5  803    0 -2.56542896689E+01 -3.66787934885E+01  5.03913057390E+02  5.05897070439E+02  5.39479660939E-06  0.00000000000E+00  1.
       -2    1    5    5    0  803  9.94901898015E+00  9.81463754149E+00  5.22642427968E+01  5.41004729617E+01  5.60156828140E-06  0.00000000000E+00  1.
</event>
<event>
 9   0   3.5824490E-08   6.2499586E+01   7.8125000E-03   1.3828954E-01
       21   -1    0    0  501  502  0.00000000000E+00  0.00000000000E+00  1.05250132017E+02  1.05250132017E+02  0.00000000000E+00  0.00000000000E+00  1.
       21   -1    0    0  502  501  0.00000000000E+00  0.00000000000E+00 -3.71134756744E+01  3.71134756744E+01  0.00000000000E+00  0.00000000000E+00  1.
       25    2    1    2    0    0  1.77635683940E-15 -3.55271367880E-15  6.81366563426E+01  1.42363607691E+02  1.24999171427E+02  0.00000000000E+00  1.
       23    2    3    3    0    0  1.50613227900E+01  2.57458759321E+01  1.22640824771E+01  5.68810513290E+01  4.68545911260E+01  0.00000000000E+00  1.
       23    2    3    3    0    0 -1.50613227900E+01 -2.57458759321E+01  5.58725738655E+01  8.54825563624E+01  5.74093142286E+01  0.00000000000E+00  1.
        3    1    4    4  803    0  2.73970793192E+01  2.22131359000E+01  2.12851863583E+01  4.11956614225E+01  0.00000000000E+00  0.00000000000E+00  1.
       -3    1    4    4    0  803 -1.23357565292E+01  3.53274003219E+00 -9.02110388120E+00  1.56853899065E+01  0.00000000000E+00  0.00000000000E+00  1.
       14    1    5    5    0    0 -2.57307108301E+01 -3.65158449129E+01  5.41914479822E+01  7.02295482253E+01  0.00000000000E+00  0.00000000000E+00  1.
      -14    1    5    5    0    0  1.06693880401E+01  1.07699689807E+01  1.68112588329E+00  1.52530081371E+01  1.23365056728E-06  0.00000000000E+00  1.
</event>
<event>
 9   0   3.5781387E-12   6.2499639E+01   7.8125000E-03   1.3828952E-01
       21   -1    0    0  501  502  0.00000000000E+00  0.00000000000E+00  8.14518510057E+02  8.14518510057E+02  0.00000000000E+00  0.00000000000E+00  1.
       21   -1    0    0  502  501  0.00000000000E+00  0.00000000000E+00 -4.79572266390E+00  4.79572266390E+00  0.00000000000E+00  0.00000000000E+00  1.
       25    2    1    2    0    0  0.00000000000E+00  1.77635683940E-15  8.09722787393E+02  8.19314232721E+02  1.24999278060E+02  0.00000000000E+00  1.
       23    2    3    3    0    0 -7.49206747851E+00 -1.21867927846E+01  6.44179809456E+02  6.46891071379E+02  5.74089045868E+01  0.00000000000E+00  1.
       23    2    3    3    0    0  7.49206747851E+00  1.21867927846E+01  1.65542977937E+02  1.72423161342E+02  4.60501903287E+01  0.00000000000E+00  1.
        5    1    4    4  803    0  1.03697975413E+01 -1.01128673209E+00  5.55531725325E+02  5.55649723967E+02  4.75000000000E+00  0.00000000000E+00  1.
       -5    1    4    4    0  803 -1.78618650198E+01 -1.11755060525E+01  8.86480841315E+01  9.12413474128E+01  4.75000000000E+00  0.00000000000E+00  1.
        2    1    5    5  804    0 -8.84897769200E+00 -9.56823170594E+00  1.70637496272E+01  2.14715397632E+01  2.57889123592E-06  0.00000000000E+00  1.
       -2    1    5    5    0  804  1.63410451705E+01  2.17550244906E+01  1.48479228310E+02  1.50951621778E+02  1.90734863281E-06  0.00000000000E+00  1.
</event>
<event>
 9   0   1.3401235E-19   6.2499588E+01   7.8125000E-03   1.3828954E-01
       21   -1    0    0  501  502  0.00000000000E+00  0.00000000000E+00  7.67252780526E+02  7.67252780526E+02  0.00000000000E+00  0.00000000000E+00  1.
       21   -1    0    0  502  501  0.00000000000E+00  0.00000000000E+00 -5.09114929308E+00  5.09114929308E+00  0.00000000000E+00  0.00000000000E+00  1.
       25    2    1    2    0    0 -3.55271367880E-15  0.00000000000E+00  7.62161631233E+02  7.72343929819E+02  1.24999175216E+02  0.00000000000E+00  1.
       23    2    3    3    0    0  2.96235626975E+01  2.57985101374E+01  5.52790977580E+02  5.58604589391E+02  7.01291936546E+01  0.00000000000E+00  1.
       23    2    3    3    0    0 -2.96235626975E+01 -2.57985101374E+01  2.09370653653E+02  2.13739340428E+02  1.74733065954E+01  0.00000000000E+00  1.
        5    1    4    4  803    0  7.03668743814E+00 -7.22108123899E+00  4.12321927306E+02  4.12472536324E+02  4.74999999999E+00  0.00000000000E+00  1.
       -5    1    4    4    0  803  2.25868752593E+01  3.30195913764E+01  1.40469050274E+02  1.46132053067E+02  4.75000000000E+00  0.00000000000E+00  1.
        5    1    5    5  804    0 -8.20318895504E+00 -7.39009037296E+00  9.84423286133E+01  9.91733850767E+01  4.75000000000E+00  0.00000000000E+00  1.
       -5    1    5    5    0  804 -2.14203737424E+01 -1.84084197645E+01  1.10928325040E+02  1.14565955351E+02  4.75000000000E+00  0.00000000000E+00  1.
</event>
<event>
 9   0   1.5979916E-17   6.2499588E+01   7.8125000E-03   1.3828954E-01
       21   -1    0    0  501  502  0.00000000000E+00  0.00000000000E+00  8.16415966719E+02  8.16415966719E+02  0.00000000000E+00  0.00000000000E+00  1.
       21   -1    0    0  502  501  0.00000000000E+00  0.00000000000E+00 -4.78456898879E+00  4.78456898879E+00  0.00000000000E+00  0.00000000000E+00  1.
       25    2    1    2    0    0  3.55271367880E-15  0.00000000000E+00  8.11631397730E+02  8.21200535707E+02  1.24999176258E+02  0.00000000000E+00  1.
       23    2    3    3    0    0 -1.49600774227E+01 -2.55440924500E+01  5.48639582816E+02  5.52407001212E+02  5.71996379327E+01  0.00000000000E+00  1.
       23    2    3    3    0    0  1.49600774227E+01  2.55440924500E+01  2.62991814914E+02  2.68793534496E+02  4.69996265881E+01  0.00000000000E+00  1.
       15    1    4    4    0    0 -1.86920903507E+01 -1.75810946115E+00  4.64225596381E+02  4.64608487379E+02  1.77680000000E+00  0.00000000000E+00  1.
      -15    1    4    4    0    0  3.73201292809E+00 -2.37859829888E+01  8.44139864345E+01  8.77985138328E+01  1.77680000001E+00  0.00000000000E+00  1.
        5    1    5    5  803    0 -7.34313863534E+00 -6.78952521307E+00  1.17412181554E+02  1.17933041235E+02  4.75000000000E+00  0.00000000000E+00  1.
       -5    1    5    5    0  803  2.23032160580E+01  3.23336176631E+01  1.45579633360E+02  1.50860493261E+02  4.75000000000E+00  0.00000000000E+00  1.
</event>
<event>
 9   0   1.4661793E-09   6.2499588E+01   7.8125000E-03   1.3828954E-01
       21   -1    0    0  501  502  0.00000000000E+00  0.00000000000E+00  8.15113826859E+02  8.15113826859E+02  0.00000000000E+00  0.00000000000E+00  1.
       21   -1    0    0  502  501  0.00000000000E+00  0.00000000000E+00 -4.79221226824E+00  4.79221226824E+00  0.00000000000E+00  0.00000000000E+00  1.
       25    2    1    2    0    0  0.00000000000E+00 -8.88178419700E-15  8.10321614590E+02  8.19906039127E+02  1.24999175695E+02  0.00000000000E+00  1.
       23    2    3    3    0    0 -1.14121263384E+01  1.57592505402E+01  3.22771884064E+02  3.28359856218E+02  5.70956690883E+01  0.00000000000E+00  1.
       23    2    3    3    0    0  1.14121263384E+01 -1.57592505402E+01  4.87549730527E+02  4.91546182908E+02  5.94501437341E+01  0.00000000000E+00  1.
        5    1    4    4  803    0  9.50420868833E+00  1.30550826087E+01  2.79323157746E+02  2.79829866379E+02  4.75000000000E+00  0.00000000000E+00  1.
       -5    1    4    4    0  803 -2.09163350268E+01  2.70416793155E+00  4.34487263179E+01  4.85299898393E+01  4.75000000000E+00  0.00000000000E+00  1.
        2    1    5    5  804    0 -9.91031818195E+00 -2.86307826486E+01  3.77472615121E+02  3.78686560843E+02  5.39479660939E-06  0.00000000000E+00  1.
       -2    1    5    5    0  804  2.13224445204E+01  1.28715321083E+01  1.10077115406E+02  1.12859622165E+02  3.81469726562E-06  0.00000000000E+00  1.
</event>
<event>
 9   0   1.6608505E-17   6.2499587E+01   7.8125000E-03   1.3828954E-01
       21   -1    0    0  501  502  0.00000000000E+00  0.00000000000E+00  8.14612843094E+02  8.14612843094E+02  0.00000000000E+00  0.00000000000E+00  1.
       21   -1    0    0  502  501  0.00000000000E+00  0.00000000000E+00 -4.79515934220E+00  4.79515934220E+00  0.00000000000E+00  0.00000000000E+00  1.
       25    2    1    2    0    0  0.00000000000E+00  0.00000000000E+00  8.09817683752E+02  8.19408002436E+02  1.24999174155E+02  0.00000000000E+00  1.
       23    2    3    3    0    0 -1.05873363758E+01 -1.81127100226E+01  4.83910090721E+02  4.87754906622E+02  5.74082840413E+01  0.00000000000E+00  1.
       23    2    3    3    0    0  1.05873363758E+01  1.81127100226E+01  3.25907593031E+02  3.31653095814E+02  5.77741708029E+01  0.00000000000E+00  1.
        5    1    4    4  804    0  9.32761532795E+00 -3.23519091613E+00  3.99072190206E+02  3.99222552423E+02  4.75000000000E+00  0.00000000000E+00  1.
       -5    1    4    4    0  804 -1.99149517037E+01 -1.48775191065E+01  8.48379005154E+01  8.85323541989E+01  4.75000000000E+00  0.00000000000E+00  1.
        2    1    5    5  803    0 -2.06673141240E+01  2.62956931748E+00  1.97390918859E+02  1.98487348101E+02  3.81469726562E-06  0.00000000000E+00  1.
       -2    1    5    5    0  803  3.12546504997E+01  1.54831407051E+01  1.28516674172E+02  1.33165747713E+02  2.69739830470E-06  0.00000000000E+00  1.
</event>
<event>
 9   0   1.4400144E-20   6.2499588E+01   7.8125000E-03   1.3828954E-01
       21   -1    0    0  501  502  0.00000000000E+00  0.00000000000E+00  8.16230914676E+02  8.16230914676E+02  0.00000000000E+00  0.00000000000E+00  1.
       21   -1    0    0  502  501  0.00000000000E+00  0.00000000000E+00 -4.78565374111E+00  4.78565374111E+00  0.00000000000E+00  0.00000000000E+00  1.
       25    2    1    2    0    0  0.00000000000E+00  0.00000000000E+00  8.11445260935E+02  8.21016568417E+02  1.24999176484E+02  0.00000000000E+00  1.
       23    2    3    3    0    0 -1.05851021363E+01 -1.80917834158E+01  4.85098149180E+02  4.88932854595E+02  5.74087532537E+01  0.00000000000E+00  1.
       23    2    3    3    0    0  1.05851021363E+01  1.80917834158E+01  3.26347111755E+02  3.32083713822E+02  5.77736845003E+01  0.00000000000E+00  1.
       14    1    4    4    0    0  9.48842908532E+00 -2.75148816866E+00  4.01004426457E+02  4.01126103628E+02  5.39479660939E-06  0.00000000000E+00  1.
      -14    1    4    4    0    0 -2.00735312216E+01 -1.53402952471E+01  8.40937227233E+01  8.78067509673E+01  5.39479660939E-06  0.00000000000E+00  1.
        1    1    5    5  804    0 -1.14103410918E+01 -1.22284447626E+01  1.88413361883E+02  1.89154237809E+02  0.00000000000E+00  0.00000000000E+00  1.
       -1    1    5    5    0  804  2.19954432281E+01  3.03202281784E+01  1.37933749871E+02  1.42929476012E+02  0.00000000000E+00  0.00000000000E+00  1.
</event>
<event>
 9   0   2.9571705E-21   6.2499585E+01   7.8125000E-03   1.3828954E-01
       21   -1    0    0  501  502  0.00000000000E+00  0.00000000000E+00  8.16394150279E+02  8.16394150279E+02  0.00000000000E+00  0.00000000000E+00  1.
       21   -1    0    0  502  501  0.00000000000E+00  0.00000000000E+00 -4.78469634641E+00  4.78469634641E+00  0.00000000000E+00  0.00000000000E+00  1.
       25    2    1    2    0    0  7.10542735760E-15  0.00000000000E+00  8.11609453932E+02  8.21178846625E+02  1.24999169726E+02  0.00000000000E+00  1.
       23    2    3    3    0    0  3.92298247297E+00  6.69167956509E+00  2.55723861125E+02  2.62282762731E+02  5.77701143340E+01  0.00000000000E+00  1.
       23    2    3    3    0    0 -3.92298247297E+00 -6.69167956509E+00  5.55885592807E+02  5.58896083894E+02  5.74096850256E+01  0.00000000000E+00  1.
       12    1    4    4    0    0  1.67272593189E+01  9.03353699899E+00  2.44076695344E+02  2.44815929331E+02  6.03156597170E-06  0.00000000000E+00  1.
      -12    1    4    4    0    0 -1.28042768459E+01 -2.34185743390E+00  1.16471657805E+01  1.74668335997E+01  3.58421716174E-06  0.00000000000E+00  1.
       13    1    5    5    0    0 -2.62014077105E+01 -1.05193319610E+01  4.34985620109E+02  4.35900987584E+02  1.05660000228E-01  0.00000000000E+00  1.
      -13    1    5    5    0    0  2.22784252375E+01  3.82765239590E+00  1.20899972698E+02  1.22995096310E+02  1.05660000159E-01  0.00000000000E+00  1.
</event>
<event>
 9   0   4.2812370E-19   6.2499550E+01   7.8125000E-03   1.3828955E-01
       21   -1    0    0  501  502  0.00000000000E+00  0.00000000000E+00  8.15034765374E+02  8.15034765374E+02  0.00000000000E+00  0.00000000000E+00  1.
       21   -1    0    0  502  501  0.00000000000E+00  0.00000000000E+00 -4.79267138792E+00  4.79267138792E+00  0.00000000000E+00  0.00000000000E+00  1.
       25    2    1    2    0    0  0.00000000000E+00  7.10542735760E-15  8.10242093986E+02  8.19827436762E+02  1.24999100799E+02  0.00000000000E+00  1.
       23    2    3    3    0    0  1.61213234293E+01  2.75766604609E+01  2.42159241260E+02  2.47958263291E+02  4.26829349446E+01  0.00000000000E+00  1.
       23    2    3    3    0    0 -1.61213234293E+01 -2.75766604609E+01  5.68082852726E+02  5.71869173471E+02  5.74095352133E+01  0.00000000000E+00  1.
        4    1    4    4  804    0  1.90124774715E+01  1.80894037189E+01  2.32748355886E+02  2.34226650105E+02  1.27500000001E+00  0.00000000000E+00  1.
       -4    1    4    4    0  804 -2.89115404220E+00  9.48725674194E+00  9.41088537340E+00  1.37316131862E+01  1.27500000000E+00  0.00000000000E+00  1.
        2    1    5    5  803    0 -2.65002041183E+01 -3.79039862742E+01  5.04819064945E+02  5.06933192272E+02  7.62939453125E-06  0.00000000000E+00  1.
       -2    1    5    5    0  803  1.03788806891E+01  1.03273258134E+01  6.32637877810E+01  6.49359813986E+01  9.65521656576E-06  0.00000000000E+00  1.
</event>
<event>
 9   0   3.5477152E-09   6.2499585E+01   7.8125000E-03   1.3828954E-01
       21   -1    0    0  501  502  0.00000000000E+00  0.00000000000E+00  7.48860810003E+02  7.48860810003E+02  0.00000000000E+00  0.00000000000E+00  1.
       21   -1    0    0  502  501  0.00000000000E+00  0.00000000000E+00 -5.21618721096E+00  5.21618721096E+00  0.00000000000E+00  0.00000000000E+00  1.
       25    2    1    2    0    0  0.00000000000E+00  7.10542735760E-15  7.43644622792E+02  7.54076997214E+02  1.24999170876E+02  0.00000000000E+00  1.
       23    2    3    3    0    0 -1.05734727059E+01 -1.80575733826E+01  4.45116934880E+02  4.49291436308E+02  5.74093610939E+01  0.00000000000E+00  1.
       23    2    3    3    0    0  1.05734727059E+01  1.80575733826E+01  2.98527687913E+02  3.04785560906E+02  5.77718218955E+01  0.00000000000E+00  1.
        1    1    4    4  804    0  9.32543224859E+00 -3.06915108868E+00  3.70413815850E+02  3.70543895405E+02  5.39479660939E-06  0.00000000000E+00  1.
       -1    1    4    4    0  804 -1.98989049545E+01 -1.49884222940E+01  7.47031190296E+01  7.87475411029E+01  4.37028474327E-06  0.00000000000E+00  1.
        3    1    5    5  803    0  3.10668703061E+01  1.47094084406E+01  2.44507877467E+02  2.46912169143E+02  0.00000000000E+00  0.00000000000E+00  1.
       -3    1    5    5    0  803 -2.04933976002E+01  3.34816494199E+00  5.40198104452E+01  5.78733918635E+01  3.23406695515E-06  0.00000000000E+00  1.
</event>
<event>
 9   0   2.0597292E-11   6.2499588E+01   7.8125000E-03   1.3828954E-01
       21   -1    0    0  501  502  0.00000000000E+00  0.00000000000E+00  8.16496116753E+02  8.16496116753E+02  0.00000000000E+00  0.00000000000E+00  1.
       21   -1    0    0  502  501  0.00000000000E+00  0.00000000000E+00 -4.78409926469E+00  4.78409926469E+00  0.00000000000E+00  0.00000000000E+00  1.
       25    2    1    2    0    0  0.00000000000E+00 -8.88178419700E-16  8.11712017488E+02  8.21280216018E+02  1.24999175546E+02  0.00000000000E+00  1.
       23    2    3    3    0    0  3.01783122926E+01 -3.37366200741E-01  5.58401223600E+02  5.62155386488E+02  5.74099964286E+01  0.00000000000E+00  1.
       23    2    3    3    0    0 -3.01783122926E+01  3.37366200741E-01  2.53310793888E+02  2.59124829530E+02  4.54804862556E+01  0.00000000000E+00  1.
       15    1    4    4    0    0  3.37077638079E+01  5.86136010609E+00  5.49691665508E+02  5.50758252803E+02  1.77680000000E+00  0.00000000000E+00  1.
      -15    1    4    4    0    0 -3.52945151535E+00 -6.19872630683E+00  8.70955809240E+00  1.13971336849E+01  1.77679999998E+00  0.00000000000E+00  1.
        4    1    5    5  803    0 -2.74636893334E+01 -1.58005537088E+01  2.16634564961E+02  2.18943079566E+02  1.27499999999E+00  0.00000000000E+00  1.
       -4    1    5    5    0  803 -2.71462295917E+00  1.61379199095E+01  3.66762289274E+01  4.01817499638E+01  1.27500000000E+00  0.00000000000E+00  1.
</event>
<event>
 9   0   2.9262529E-14   6.2499588E+01   7.8125000E-03   1.3828954E-01
       21   -1    0    0  501  502  0.00000000000E+00  0.00000000000E+00  8.15707402384E+02  8.15707402384E+02  0.00000000000E+00  0.00000000000E+00  1.
       21   -1    0    0  502  501  0.00000000000E+00  0.00000000000E+00 -4.78872511045E+00  4.78872511045E+00  0.00000000000E+00  0.00000000000E+00  1.
       25    2    1    2    0    0 -5.32907051820E-15  0.00000000000E+00  8.10918677273E+02  8.20496127494E+02  1.24999176326E+02  0.00000000000E+00  1.
       23    2    3    3    0    0 -1.00054092794E+01 -1.81519223129E+01  4.82341267355E+02  4.86187777435E+02  5.74095482908E+01  0.00000000000E+00  1.
       23    2    3    3    0    0  1.00054092794E+01  1.81519223129E+01  3.28577409919E+02  3.34308350060E+02  5.80461722446E+01  0.00000000000E+00  1.
        3    1    4    4  803    0 -1.59689859835E+01  2.50160905842E+00  4.18736950992E+02  4.19048804660E+02  7.62939453125E-06  0.00000000000E+00  1.
       -3    1    4    4    0  803  5.96357670417E+00 -2.06535313713E+01  6.36043163633E+01  6.71389727748E+01  5.00111030660E-06  0.00000000000E+00  1.
        1    1    5    5  804    0 -2.06495202322E+01  4.50063916249E-01  1.96041445119E+02  1.97126491084E+02  2.69739830470E-06  0.00000000000E+00  1.
       -1    1    5    5    0  804  3.06549295116E+01  1.77018583967E+01  1.32535964800E+02  1.37181859076E+02  1.90734863281E-06  0.00000000000E+00  1.
</event>
<event>
 9   0   3.8747724E-02   6.2499527E+01   7.8125000E-03   1.3828956E-01
       21   -1    0    0  501  502  0.00000000000E+00  0.00000000000E+00  8.16734876093E+02  8.16734876093E+02  0.00000000000E+00  0.00000000000E+00  1.
       21   -1    0    0  502  501  0.00000000000E+00  0.00000000000E+00 -4.78269145664E+00  4.78269145664E+00  0.00000000000E+00  0.00000000000E+00  1.
       25    2    1    2    0    0  1.77635683940E-15  3.55271367880E-15  8.11952184637E+02  8.21517567550E+02  1.24999054624E+02  0.00000000000E+00  1.
       23    2    3    3    0    0 -4.21885385723E+00 -2.05792001055E+01  2.19667344495E+02  2.23261908642E+02  3.39239650998E+01  0.00000000000E+00  1.
       23    2    3    3    0    0  4.21885385723E+00  2.05792001055E+01  5.92284840142E+02  5.98255658908E+02  8.16529200273E+01  0.00000000000E+00  1.
        1    1    4    4  803    0  6.92044666910E+00 -5.18134460059E+00  1.67798002331E+02  1.68020559754E+02  1.90734863281E-06  0.00000000000E+00  1.
       -1    1    4    4    0  803 -1.11393005263E+01 -1.53978555049E+01  5.18693421641E+01  5.52413488874E+01  1.78416127528E-06  0.00000000000E+00  1.
        3    1    5    5  804    0 -1.62853401738E+01 -2.23173568663E+01  3.65384072874E+02  3.66427069731E+02  7.62939453125E-06  0.00000000000E+00  1.
       -3    1    5    5    0  804  2.05041940310E+01  4.28965569718E+01  2.26900767268E+02  2.31828589177E+02  2.69739830470E-06  0.00000000000E+00  1.
</event>
<event>
 9   0   1.3738063E-13   6.2499587E+01   7.8125000E-03   1.3828954E-01
       21   -1    0    0  501  502  0.00000000000E+00  0.00000000000E+00  1.09614732971E+02  1.09614732971E+02  0.00000000000E+00  0.00000000000E+00  1.
       21   -1    0    0  502  501  0.00000000000E+00  0.00000000000E+00 -3.56357052415E+01  3.56357052415E+01  0.00000000000E+00  0.00000000000E+00  1.
       25    2    1    2    0    0  3.55271367880E-15 -3.55271367880E-15  7.39790277300E+01  1.45250438213E+02  1.24999173026E+02  0.00000000000E+00  1.
       23    2    3    3    0    0 -1.04083291535E+01 -1.77965808915E+01  5.08038901464E+01  7.93843614490E+01  5.74089712628E+01  0.00000000000E+00  1.
       23    2    3    3    0    0  1.04083291535E+01  1.77965808915E+01  2.31751375835E+01  6.58660767640E+01  5.81050897863E+01  0.00000000000E+00  1.
        3    1    4    4  803    0  1.76894760334E+01  9.65976369364E-01  4.02689289213E+01  4.39936053212E+01  0.00000000000E+00  0.00000000000E+00  1.
       -3    1    4    4    0  803 -2.80978051869E+01 -1.87625572608E+01  1.05349612251E+01  3.53907561278E+01  0.00000000000E+00  0.00000000000E+00  1.
        2    1    5    5  804    0 -1.19618901153E+01 -1.30397720513E+01  2.13451471417E+01  2.77261208390E+01  0.00000000000E+00  0.00000000000E+00  1.
       -2    1    5    5    0  804  2.23702192688E+01  3.08363529428E+01  1.82999044182E+00  3.81399559250E+01  0.00000000000E+00  0.00000000000E+00  1.
</event>
<event>
 9   0   3.6163827E-05   6.2499586E+01   7.8125000E-03   1.3828954E-01
       21   -1    0    0  501  502  0.00000000000E+00  0.00000000000E+00  8.00420785719E+02  8.00420785719E+02  0.00000000000E+00  0.00000000000E+00  1.
       21   -1    0    0  502  501  0.00000000000E+00  0.00000000000E+00 -4.88018085280E+00  4.88018085280E+00  0.00000000000E+00  0.00000000000E+00  1.
       25    2    1    2    0    0  0.00000000000E+00  3.55271367880E-15  7.95540604866E+02  8.05300966572E+02  1.24999171080E+02  0.00000000000E+00  1.
       23    2    3    3    0    0 -1.59230743276E+01 -2.64008843562E+01  5.47906946643E+02  5.51768385209E+02  5.74088646903E+01  0.00000000000E+00  1.
       23    2    3    3    0    0  1.59230743276E+01  2.64008843562E+01  2.47633658223E+02  2.53532581363E+02  4.47860484631E+01  0.00000000000E+00  1.
        1    1    4    4  804    0 -1.61412329609E+01 -3.97320594237E-01  4.55119744241E+02  4.55406059317E+02  9.34406182397E-06  0.00000000000E+00  1.
       -1    1    4    4    0  804  2.18158633325E-01 -2.60035637620E+01  9.27872024027E+01  9.63623258915E+01  6.87704329579E-06  0.00000000000E+00  1.
       16    1    5    5    0    0 -1.30118876351E+01  2.35664659955E+00  1.12002814662E+02  1.12780731932E+02  0.00000000000E+00  0.00000000000E+00  1.
      -16    1    5    5    0    0  2.89349619627E+01  2.40442377567E+01  1.35630843561E+02  1.40751849531E+02  2.69739830470E-06  0.00000000000E+00  1.
</event>
<event>
 9   0   4.4289272E-20   6.2499597E+01   7.8125000E-03   1.3828954E-01
       21   -1    0    0  501  502  0.00000000000E+00  0.00000000000E+00  8.15839969881E+02  8.15839969881E+02  0.00000000000E+00  0.00000000000E+00  1.
       21   -1    0    0  502  501  0.00000000000E+00  0.00000000000E+00 -4.78794836647E+00  4.78794836647E+00  0.00000000000E+00  0.00000000000E+00  1.
       25    2    1    2    0    0  3.55271367880E-15  0.00000000000E+00  8.11052021515E+02  8.20627918248E+02  1.24999194415E+02  0.00000000000E+00  1.
       23    2    3    3    0    0  7.43836534774E+00  1.26880485098E+01  1.73336206326E+02  1.80164404082E+02  4.68770329790E+01  0.00000000000E+00  1.
       23    2    3    3    0    0 -7.43836534774E+00 -1.26880485098E+01  6.37715815189E+02  6.40463514165E+02  5.74085026875E+01  0.00000000000E+00  1.
       14    1    4    4    0    0  2.19827918088E+01  1.33614747489E+01  1.53033018937E+02  1.55180143794E+02  1.90734863281E-06  0.00000000000E+00  1.
      -14    1    4    4    0    0 -1.45444264611E+01 -6.73426239143E-01  2.03031873893E+01  2.49842602881E+01  1.93692169300E-06  0.00000000000E+00  1.
        2    1    5    5  804    0 -2.01253581656E+01 -2.72059472059E+01  5.26692009787E+02  5.27778046990E+02  7.62939453125E-06  0.00000000000E+00  1.
       -2    1    5    5    0  804  1.26869928178E+01  1.45178986961E+01  1.11023805401E+02  1.12685467376E+02  7.74768677200E-06  0.00000000000E+00  1.
</event>
<event>
 9   0   2.9601981E-13   6.2497681E+01   7.8125000E-03   1.3829025E-01
       21   -1    0    0  501  502  0.00000000000E+00  0.00000000000E+00  8.04089150130E+02  8.04089150130E+02  0.00000000000E+00  0.00000000000E+00  1.
       21   -1    0    0  502  501  0.00000000000E+00  0.00000000000E+00 -4.85762068603E+00  4.85762068603E+00  0.00000000000E+00  0.00000000000E+00  1.
       25    2    1    2    0    0  0.00000000000E+00 -3.55271367880E-15  7.99231529444E+02  8.08946770817E+02  1.24995361339E+02  0.00000000000E+00  1.
       23    2    3    3    0    0 -1.06249843564E+01 -1.81537586051E+01  4.77008246920E+02  4.80910797594E+02  5.74097410661E+01  0.00000000000E+00  1.
       23    2    3    3    0    0  1.06249843564E+01  1.81537586051E+01  3.22223282525E+02  3.28035973222E+02  5.77694268864E+01  0.00000000000E+00  1.
        2    1    4    4  804    0  9.58867211116E+00 -3.06753082443E+00  3.94613313525E+02  3.94741712502E+02  0.00000000000E+00  0.00000000000E+00  1.
       -2    1    4    4    0  804 -2.02136564675E+01 -1.50862277807E+01  8.23949333949E+01  8.61690850919E+01  3.43852164790E-06  0.00000000000E+00  1.
        1    1    5    5  803    0 -1.87603578832E+01 -4.21097214779E+00  1.82683503925E+02  1.83692530933E+02  0.00000000000E+00  0.00000000000E+00  1.
       -1    1    5    5    0  803  2.93853422396E+01  2.23647307529E+01  1.39539778600E+02  1.44343442289E+02  1.90734863281E-06  0.00000000000E+00  1.
</event>
<event>
 9   0   5.7574569E-09   6.2499586E+01   7.8125000E-03   1.3828954E-01
       21   -1    0    0  501  502  0.00000000000E+00  0.00000000000E+00  8.12726113945E+02  8.12726113945E+02  0.00000000000E+00  0.00000000000E+00  1.
       21   -1    0    0  502  501  0.00000000000E+00  0.00000000000E+00 -4.80629102455E+00  4.80629102455E+00  0.00000000000E+00  0.00000000000E+00  1.
       25    2    1    2    0    0  0.00000000000E+00  3.55271367880E-15  8.07919822920E+02  8.17532404969E+02  1.24999171627E+02  0.00000000000E+00  1.
       23    2    3    3    0    0 -1.69110325907E+01 -2.74196278709E+01  5.65289281499E+02  5.69109552149E+02  5.74098558910E+01  0.00000000000E+00  1.
       23    2    3    3    0    0  1.69110325907E+01  2.74196278709E+01  2.42630541421E+02  2.48422852821E+02  4.25031193832E+01  0.00000000000E+00  1.
        3    1    4    4  804    0  1.64545726249E+01 -9.57952643994E-01  6.67538470357E+01  6.87586120250E+01  1.01824553032E-05  0.00000000000E+00  1.
       -3    1    4    4    0  804 -3.33656052156E+01 -2.64616752269E+01  4.98535434463E+02  5.00350940124E+02  9.34406182397E-06  0.00000000000E+00  1.
        4    1    5    5  803    0 -1.12940704965E+01  2.33062980238E+00  1.07133638971E+02  1.07760057943E+02  1.27500000000E+00  0.00000000000E+00  1.
       -4    1    5    5    0  803  2.82051030871E+01  2.50889980685E+01  1.35496902450E+02  1.40662794877E+02  1.27500000000E+00  0.00000000000E+00  1.
</event>
<event>
 9   0   1.1719804E-04   6.2499585E+01   7.8125000E-03   1.3828954E-01
       21   -1    0    0  501  502  0.00000000000E+00  0.00000000000E+00  7.65529368640E+02  7.65529368640E+02  0.00000000000E+00  0.00000000000E+00  1.
       21   -1    0    0  502  501  0.00000000000E+00  0.00000000000E+00 -5.10261039558E+00  5.10261039558E+00  0.00000000000E+00  0.00000000000E+00  1.
       25    2    1    2    0    0  0.00000000000E+00  0.00000000000E+00  7.60426758245E+02  7.70631979036E+02  1.24999169830E+02  0.00000000000E+00  1.
       23    2    3    3    0    0  1.81233918337E+01  3.09783057707E+01  3.91708323534E+02  3.95749034822E+02  4.35175260921E+01  0.00000000000E+00  1.
       23    2    3    3    0    0 -1.81233918337E+01 -3.09783057707E+01  3.68718434711E+02  3.74882944214E+02  5.74092763111E+01  0.00000000000E+00  1.
        1    1    4    4  804    0  2.27751781868E+01  2.37585648764E+01  3.78906242487E+02  3.80332905253E+02  7.62939453125E-06  0.00000000000E+00  1.
       -1    1    4    4    0  804 -4.65178635319E+00  7.21974089429E+00  1.28020810468E+01  1.54161297694E+01  5.87158696939E-06  0.00000000000E+00  1.
        2    1    5    5  803    0 -2.83967536358E+01 -9.21806629592E-02  2.55658245417E+02  2.57230485393E+02  3.81469726562E-06  0.00000000000E+00  1.
       -2    1    5    5    0  803  1.02733618022E+01 -3.08861251077E+01  1.13060189294E+02  1.17652459020E+02  2.33601545599E-06  0.00000000000E+00  1.
</event>
<event>
 9   0   4.8066994E-13   6.2499670E+01   7.8125000E-03   1.3828951E-01
       21   -1    0    0  501  502  0.00000000000E+00  0.00000000000E+00  6.67163757048E+02  6.67163757048E+02  0.00000000000E+00  0.00000000000E+00  1.
       21   -1    0    0  502  501  0.00000000000E+00  0.00000000000E+00 -5.85494753217E+00  5.85494753217E+00  0.00000000000E+00  0.00000000000E+00  1.
       25    2    1    2    0    0  0.00000000000E+00  1.77635683940E-15  6.61308809516E+02  6.73018704580E+02  1.24999340684E+02  0.00000000000E+00  1.
       23    2    3    3    0    0 -5.10691704831E+00 -8.72371110848E+00  4.46308530129E+02  4.50099221168E+02  5.74092422206E+01  0.00000000000E+00  1.
       23    2    3    3    0    0  5.10691704831E+00  8.72371110848E+00  2.15000279387E+02  2.22919483412E+02  5.80154480406E+01  0.00000000000E+00  1.
       12    1    4    4    0    0  1.20667922244E+01  1.27690272372E+00  3.93310498764E+02  3.93497632004E+02  0.00000000000E+00  0.00000000000E+00  1.
      -12    1    4    4    0    0 -1.71737092727E+01 -1.00006138322E+01  5.29980313654E+01  5.66015891633E+01  1.90734863281E-06  0.00000000000E+00  1.
        5    1    5    5  803    0 -1.38820238561E+01 -1.62806274661E+01  1.36359001644E+02  1.38109048387E+02  4.75000000000E+00  0.00000000000E+00  1.
       -5    1    5    5    0  803  1.89889409044E+01  2.50043385745E+01  7.86412777427E+01  8.48104350256E+01  4.75000000000E+00  0.00000000000E+00  1.
</event>
<event>
 9   0   1.3743393E-13   6.2499549E+01   7.8125000E-03   1.3828955E-01
       21   -1    0    0  501  502  0.00000000000E+00  0.00000000000E+00  7.66211117036E+02  7.66211117036E+02  0.00000000000E+00  0.00000000000E+00  1.
       21   -1    0    0  502  501  0.00000000000E+00  0.00000000000E+00 -5.09806440353E+00  5.09806440353E+00  0.00000000000E+00  0.00000000000E+00  1.
       25    2    1    2    0    0  5.32907051820E-15  3.55271367880E-15  7.61113052632E+02  7.71309181439E+02  1.24999097938E+02  0.00000000000E+00  1.
       23    2    3    3    0    0 -5.13096217152E+00 -3.26444095965E+01  4.09795057463E+02  4.16785767461E+02  6.84573048424E+01  0.00000000000E+00  1.
       23    2    3    3    0    0  5.13096217152E+00  3.26444095965E+01  3.51317995169E+02  3.54523413978E+02  3.42130542097E+01  0.00000000000E+00  1.
        1    1    5    5  804    0 -6.27984734389E+00  2.02406086959E+01  2.94418356642E+02  2.95180093350E+02  5.39479660939E-06  0.00000000000E+00  1.
       -1    1    4    4    0  803  1.60607660203E+01 -3.53061788040E+00  2.27592933344E+01  2.80784419236E+01  1.43051147461E-06  0.00000000000E+00  1.
        1    1    4    4  803    0 -2.11917281918E+01 -2.91137917161E+01  3.87035764129E+02  3.88707325537E+02  5.39479660939E-06  0.00000000000E+00  1.
       -1    1    5    5    0  804  1.14108095154E+01  1.24038009006E+01  5.68996385274E+01  5.93433207289E+01  6.39744179964E-06  0.00000000000E+00  1.
</event>
<event>
 9   0   1.0112985E-05   6.2499587E+01   7.8125000E-03   1.3828954E-01
       21   -1    0    0  501  502  0.00000000000E+00  0.00000000000E+00  8.02383869776E+02  8.02383869776E+02  0.00000000000E+00  0.00000000000E+00  1.
       21   -1    0    0  502  501  0.00000000000E+00  0.00000000000E+00 -4.86824145418E+00  4.86824145418E+00  0.00000000000E+00  0.00000000000E+00  1.
       25    2    1    2    0    0  1.77635683940E-15 -7.10542735760E-15  7.97515628322E+02  8.07252111230E+02  1.24999174669E+02  0.00000000000E+00  1.
       23    2    3    3    0    0 -1.37373589999E+01 -2.61817103608E+01  5.40897341021E+02  5.44738430622E+02  5.74092961468E+01  0.00000000000E+00  1.
       23    2    3    3    0    0  1.37373589999E+01  2.61817103608E+01  2.56618287301E+02  2.62513680608E+02  4.67577815891E+01  0.00000000000E+00  1.
        5    1    4    4  804    0 -2.42512029192E+00  1.63986436476E+00  4.21277978258E+02  4.21314927138E+02  4.75000000000E+00  0.00000000000E+00  1.
       -5    1    4    4    0  804 -1.13122387080E+01 -2.78215747256E+01  1.19619362762E+02  1.23423503485E+02  4.75000000001E+00  0.00000000000E+00  1.
        3    1    5    5  803    0 -9.01443965755E+00 -8.20798302642E+00  9.22496619736E+01  9.30517665633E+01  2.69739830470E-06  0.00000000000E+00  1.
       -3    1    5    5    0  803  2.27517986575E+01  3.43896933872E+01  1.64368625327E+02  1.69461914144E+02  0.00000000000E+00  0.00000000000E+00  1.
</event>
<event>
 9   0   1.5644620E-10   6.2499582E+01   7.8125000E-03   1.3828954E-01
       21   -1    0    0  501  502  0.00000000000E+00  0.00000000000E+00  8.16597449467E+02  8.16597449467E+02  0.00000000000E+00  0.00000000000E+00  1.
       21   -1    0    0  502  501  0.00000000000E+00  0.00000000000E+00 -4.78350477575E+00  4.78350477575E+00  0.00000000000E+00  0.00000000000E+00  1.
       25    2    1    2    0    0  0.00000000000E+00 -7.10542735760E-15  8.11813944692E+02  8.21380954243E+02  1.24999164787E+02  0.00000000000E+00  1.
       23    2    3    3    0    0 -9.59175098698E+00 -1.63870526222E+01  4.78034385623E+02  4.81843555144E+02  5.74090638770E+01  0.00000000000E+00  1.
       23    2    3    3    0    0  9.59175098698E+00  1.63870526222E+01  3.33779559068E+02  3.39537399099E+02  5.92985173027E+01  0.00000000000E+00  1.
        4    1    4    4  804    0  9.89317455979E+00 -1.81128624434E+00  3.99213389906E+02  3.99342098915E+02  1.27500000003E+00  0.00000000000E+00  1.
       -4    1    4    4    0  804 -1.94849255468E+01 -1.45757663778E+01  7.88209957173E+01  8.25014562291E+01  1.27500000002E+00  0.00000000000E+00  1.
       15    1    5    5    0    0 -1.21235275497E+01 -1.33543737608E+01  1.98443072052E+02  1.99268986755E+02  1.77680000000E+00  0.00000000000E+00  1.
      -15    1    5    5    0    0  2.17152785367E+01  2.97414263830E+01  1.35336487017E+02  1.40268412344E+02  1.77680000000E+00  0.00000000000E+00  1.
</event>
<event>
 9   0   1.1473562E-16   6.2499527E+01   7.8125000E-03   1.3828956E-01
       21   -1    0    0  501  502  0.00000000000E+00  0.00000000000E+00  1.33918615437E+03  1.33918615437E+03  0.00000000000E+00  0.00000000000E+00  1.
       21   -1    0    0  502  501  0.00000000000E+00  0.00000000000E+00 -2.91683930920E+00  2.91683930920E+00  0.00000000000E+00  0.00000000000E+00  1.
       25    2    1    2    0    0 -3.55271367880E-15  7.10542735760E-15  1.33626931506E+03  1.34210299368E+03  1.24999053075E+02  0.00000000000E+00  1.
       23    2    3    3    0    0  1.56222255833E+01  2.67212963938E+01  4.13905528269E+02  4.17436069296E+02  4.44635131836E+01  0.00000000000E+00  1.
       23    2    3    3    0    0 -1.56222255833E+01 -2.67212963938E+01  9.22363786796E+02  9.24666924387E+02  5.74097922831E+01  0.00000000000E+00  1.
        4    1    4    4  804    0  1.92433054435E+01  1.78654660953E+01  3.97742709563E+02  3.98610547174E+02  1.27500000002E+00  0.00000000000E+00  1.
       -4    1    4    4    0  804 -3.62107986019E+00  8.85583029856E+00  1.61628187059E+01  1.88255221216E+01  1.27500000000E+00  0.00000000000E+00  1.
        2    1    5    5  803    0 -2.56214335784E+01 -3.65537460514E+01  8.34318350920E+02  8.35511666620E+02  1.52587890625E-05  0.00000000000E+00  1.
       -2    1    5    5    0  803  9.99920799514E+00  9.83244965757E+00  8.80454358758E+01  8.91552579672E+01  1.65730926485E-05  0.00000000000E+00  1.
</event>
<event>
 9   0   3.1501373E-13   6.2499585E+01   7.8125000E-03   1.3828954E-01
       21   -1    0    0  501  502  0.00000000000E+00  0.00000000000E+00  8.16794096850E+02  8.16794096850E+02  0.00000000000E+00  0.00000000000E+00  1.
       21   -1    0    0  502  501  0.00000000000E+00  0.00000000000E+00 -4.78235348597E+00  4.78235348597E+00  0.00000000000E+00  0.00000000000E+00  1.
       25    2    1    2    0    0  0.00000000000E+00  0.00000000000E+00  8.12011743364E+02  8.21576450336E+02  1.24999169539E+02  0.00000000000E+00  1.
       23    2    3    3    0    0  1.51566332874E+01  2.54044529759E+01  2.63125491988E+02  2.68902600272E+02  4.68878890093E+01  0.00000000000E+00  1.
       23    2    3    3    0    0 -1.51566332874E+01 -2.54044529759E+01  5.48886251376E+02  5.52673850064E+02  5.74208832289E+01  0.00000000000E+00  1.
       12    1    4    4    0    0  1.96823637301E+01  1.75354753442E+01  2.56023281385E+02  2.57376784012E+02  0.00000000000E+00  0.00000000000E+00  1.
      -12    1    4    4    0    0 -4.52573044270E+00  7.86897763177E+00  7.10221060344E+00  1.15258162602E+01  2.10734242554E-06  0.00000000000E+00  1.
        3    1    5    5  803    0 -2.18884162207E+01 -3.86567704088E+01  4.87238731930E+02  4.89259676096E+02  5.39479660939E-06  0.00000000000E+00  1.
       -3    1    5    5    0  803  6.73178293324E+00  1.32523174328E+01  6.16475194464E+01  6.34141740677E+01  3.93209993898E-06  0.00000000000E+00  1.
</event>
<event>
 9   0   7.7481284E-06   6.2499076E+01   7.8125000E-03   1.3828973E-01
       21   -1    0    0  501  502  0.00000000000E+00  0.00000000000E+00  8.14693089516E+02  8.14693089516E+02  0.00000000000E+00  0.00000000000E+00  1.
       21   -1    0    0  502  501  0.00000000000E+00  0.00000000000E+00 -4.79460854094E+00  4.79460854094E+00  0.00000000000E+00  0.00000000000E+00  1.
       25    2    1    2    0    0  7.10542735760E-15  3.55271367880E-15  8.09898480975E+02  8.19487698056E+02  1.24998151110E+02  0.00000000000E+00  1.
       23    2    3    3    0    0 -3.80557915468E+01 -1.54994464332E+01  4.48257391530E+02  4.54248224282E+02  6.09777343992E+01  0.00000000000E+00  1.
       23    2    3    3    0    0  3.80557915468E+01  1.54994464332E+01  3.61641089445E+02  3.65239473774E+02  3.04486373765E+01  0.00000000000E+00  1.
        1    1    5    5  804    0  2.01725862877E+01  1.97138685314E+01  2.86485980239E+02  2.87871128673E+02  7.62939453125E-06  0.00000000000E+00  1.
       -1    1    4    4    0  803 -3.28734707926E+00  9.08738621784E+00  9.92615558043E+00  1.38533679551E+01  5.77027144922E-06  0.00000000000E+00  1.
        1    1    4    4  803    0 -3.47684444675E+01 -2.45868326511E+01  4.38331235949E+02  4.40394856327E+02  5.39479660939E-06  0.00000000000E+00  1.
       -1    1    5    5    0  804  1.78832052591E+01 -4.21442209815E+00  7.51551092060E+01  7.73683451014E+01  3.93209993898E-06  0.00000000000E+00  1.
</event>
<event>
 9   0   4.4598710E-11   6.2499586E+01   7.8125000E-03   1.3828954E-01
       21   -1    0    0  501  502  0.00000000000E+00  0.00000000000E+00  8.16162252781E+02  8.16162252781E+02  0.00000000000E+00  0.00000000000E+00  1.
       21   -1    0    0  502  501  0.00000000000E+00  0.00000000000E+00 -4.78605607539E+00  4.78605607539E+00  0.00000000000E+00  0.00000000000E+00  1.
       25    2    1    2    0    0  0.00000000000E+00  3.55271367880E-15  8.11376196705E+02  8.20948308856E+02  1.24999172932E+02  0.00000000000E+00  1.
       23    2    3    3    0    0 -1.75797467239E+01 -3.00226088732E+01  4.12673343990E+02  4.18097360983E+02  5.74082736377E+01  0.00000000000E+00  1.
       23    2    3    3    0    0  1.75797467239E+01  3.00226088732E+01  3.98702852715E+02  4.02850947873E+02  4.59838765335E+01  0.00000000000E+00  1.
        4    1    4    4  804    0  7.15743933663E+00 -6.83206319798E+00  3.05888038987E+02  3.06050688686E+02  1.27499999998E+00  0.00000000000E+00  1.
       -4    1    4    4    0  804 -2.47371860605E+01 -2.31905456752E+01  1.06785305004E+02  1.12046672296E+02  1.27499999999E+00  0.00000000000E+00  1.
       15    1    5    5    0    0 -7.35432062042E+00 -3.05035833867E+00  1.84087356934E+02  1.84268018709E+02  1.77680000000E+00  0.00000000000E+00  1.
      -15    1    5    5    0    0  2.49340673443E+01  3.30729672118E+01  2.14615495781E+02  2.18582929165E+02  1.77680000000E+00  0.00000000000E+00  1.
</event>
<event>
 9   0   9.2205356E-09   6.2499587E+01   7.8125000E-03   1.3828954E-01
       21   -1    0    0  501  502  0.00000000000E+00  0.00000000000E+00  6.86971681951E+02  6.86971681951E+02  0.00000000000E+00  0.00000000000E+00  1.
       21   -1    0    0  502  501  0.00000000000E+00  0.00000000000E+00 -5.68611273616E+00  5.68611273616E+00  0.00000000000E+00  0.00000000000E+00  1.
       25    2    1    2    0    0 -3.55271367880E-15 -8.88178419700E-16  6.81285569215E+02  6.92657794687E+02  1.24999174879E+02  0.00000000000E+00  1.
       23    2    3    3    0    0  3.12782252865E+01 -9.10144905631E-01  4.74115199365E+02  4.78602329451E+02  5.74091608212E+01  0.00000000000E+00  1.
       23    2    3    3    0    0 -3.12782252865E+01  9.10144905631E-01  2.07170369850E+02  2.14055465236E+02  4.38294913605E+01  0.00000000000E+00  1.
        1    1    4    4  803    0  3.44764981454E+01  5.56158931766E+00  4.67525804696E+02  4.68828260941E+02  1.42732902022E-05  0.00000000000E+00  1.
       -1    1    4    4    0  803 -3.19827285893E+00 -6.47173422329E+00  6.58939466871E+00  9.77406850995E+00  7.34952098932E-06  0.00000000000E+00  1.
       14    1    5    5    0    0 -3.63806638740E+01 -4.87673565767E+00  2.00573439426E+02  2.03904487095E+02  5.39479660939E-06  0.00000000000E+00  1.
      -14    1    5    5    0    0  5.10243858752E+00  5.78688056330E+00  6.59693042424E+00  1.01509781408E+01  2.84733078778E-06  0.00000000000E+00  1.
</event>
<event>
 9   0   6.3948728E-19   6.2497542E+01   7.8125000E-03   1.3829030E-01
       21   -1    0    0  501  502  0.00000000000E+00  0.00000000000E+00  8.14696495469E+02  8.14696495469E+02  0.00000000000E+00  0.00000000000E+00  1.
       21   -1    0    0  502  501  0.00000000000E+00  0.00000000000E+00 -4.79435327582E+00  4.79435327582E+00  0.00000000000E+00  0.00000000000E+00  1.
       25    2    1    2    0    0  0.00000000000E+00 -3.55271367880E-15  8.09902142193E+02  8.19490848745E+02  1.24995084893E+02  0.00000000000E+00  1.
       23    2    3    3    0    0  1.06142823086E+01  1.87235510053E+01  2.37206295886E+02  2.41547506563E+02  4.01887641965E+01  0.00000000000E+00  1.
       23    2    3    3    0    0 -1.06142823086E+01 -1.87235510053E+01  5.72695846307E+02  5.77943342182E+02  7.46641817988E+01  0.00000000000E+00  1.
        2    1    5    5  804    0  1.38583501097E+01 -1.66139797096E+00  4.87055295488E+02  4.87255246325E+02  7.62939453125E-06  0.00000000000E+00  1.
       -2    1    4    4    0  803  1.56973455699E+01  2.75223997364E+01  1.27747746942E+02  1.31618296677E+02  5.87884331033E-06  0.00000000000E+00  1.
        2    1    4    4  803    0 -5.08306326126E+00 -8.79884873104E+00  1.09458548944E+02  1.09929209986E+02  2.69739830470E-06  0.00000000000E+00  1.
       -2    1    5    5    0  804 -2.44726324183E+01 -1.70621530344E+01  8.56405508190E+01  9.06880959566E+01  0.00000000000E+00  0.00000000000E+00  1.
</event>
<event>
 9   0   7.0947258E-10   6.2499527E+01   7.8125000E-03   1.3828956E-01
       21   -1    0    0  501  502  0.00000000000E+00  0.00000000000E+00  8.16742536127E+02  8.16742536127E+02  0.00000000000E+00  0.00000000000E+00  1.
       21   -1    0    0  502  501  0.00000000000E+00  0.00000000000E+00 -4.78264650909E+00  4.78264650909E+00  0.00000000000E+00  0.00000000000E+00  1.
       25    2    1    2    0    0 -1.77635683940E-15  0.00000000000E+00  8.11959889618E+02  8.21525182636E+02  1.24999053424E+02  0.00000000000E+00  1.
       23    2    3    3    0    0  1.28133960238E+01  2.14738562560E+01  1.52992425418E+02  1.57034993639E+02  2.50598757331E+01  0.00000000000E+00  1.
       23    2    3    3    0    0 -1.28133960238E+01 -2.14738562560E+01  6.58967464200E+02  6.64490188997E+02  8.17544052584E+01  0.00000000000E+00  1.
        4    1    4    4  803    0  1.27119352972E+01  1.29282120379E+01  1.41468669870E+02  1.42631490721E+02  1.27500000000E+00  0.00000000000E+00  1.
       -4    1    4    4    0  803  1.01460726579E-01  8.54564421808E+00  1.15237555482E+01  1.44035029182E+01  1.27500000000E+00  0.00000000000E+00  1.
       13    1    5    5    0    0 -2.78396195436E+01 -4.77153180578E+01  4.30885814013E+02  4.34412697645E+02  1.05659999952E-01  0.00000000000E+00  1.
      -13    1    5    5    0    0  1.50262235198E+01  2.62414618018E+01  2.28081650188E+02  2.30077491353E+02  1.05659999849E-01  0.00000000000E+00  1.
</event>
<event>
 9   0   1.8859720E-09   6.2499528E+01   7.8125000E-03   1.3828956E-01
       21   -1    0    0  501  502  0.00000000000E+00  0.00000000000E+00  8.16736760996E+02  8.16736760996E+02  0.00000000000E+00  0.00000000000E+00  1.
       21   -1    0    0  502  501  0.00000000000E+00  0.00000000000E+00 -4.78268048270E+00  4.78268048270E+00  0.00000000000E+00  0.00000000000E+00  1.
       25    2    1    2    0    0 -3.55271367880E-15  3.55271367880E-15  8.11954080513E+02  8.21519441478E+02  1.24999055458E+02  0.00000000000E+00  1.
       23    2    3    3    0    0  2.25206249684E+01 -1.38381592557E+01  1.72347302907E+02  1.76262486447E+02  2.58108137904E+01  0.00000000000E+00  1.
       23    2    3    3    0    0 -2.25206249684E+01  1.38381592557E+01  6.39606777606E+02  6.45256955031E+02  8.10002151641E+01  0.00000000000E+00  1.
       12    1    4    4    0    0  1.75690392450E+01 -4.04406070929E+00  1.52677173463E+02  1.53737909651E+02  0.00000000000E+00  0.00000000000E+00  1.
      -12    1    4    4    0    0  4.95158572342E+00 -9.79409854644E+00  1.96701294441E+01  2.25245768965E+01  2.92001931999E-06  0.00000000000E+00  1.
        1    1    5    5  804    0 -3.68942203353E+01  3.38113299633E+01  5.51879590239E+02  5.54143908891E+02  1.07895932188E-05  0.00000000000E+00  1.
       -1    1    5    5    0  804  1.43735953669E+01 -1.99731707075E+01  8.77271873665E+01  9.11130462400E+01  3.69356474515E-06  0.00000000000E+00  1.
</event>
<event>
 9   0   1.5220489E-18   6.2499587E+01   7.8125000E-03   1.3828954E-01
       21   -1    0    0  501  502  0.00000000000E+00  0.00000000000E+00  8.16723207838E+02  8.16723207838E+02  0.00000000000E+00  0.00000000000E+00  1.
       21   -1    0    0  502  501  0.00000000000E+00  0.00000000000E+00 -4.78276887217E+00  4.78276887217E+00  0.00000000000E+00  0.00000000000E+00  1.
       25    2    1    2    0    0 -3.55271367880E-15 -3.55271367880E-15  8.11940438966E+02  8.21505976711E+02  1.24999173367E+02  0.00000000000E+00  1.
       23    2    3    3    0    0  8.21285891265E+00 -1.56548109513E+01  1.66872545542E+02  1.70387516125E+02  2.95454740741E+01  0.00000000000E+00  1.
       23    2    3    3    0    0 -8.21285891265E+00  1.56548109513E+01  6.45067893425E+02  6.51118460586E+02  8.67763702320E+01  0.00000000000E+00  1.
        2    1    4    4  803    0  1.12137682458E+01 -3.92094468345E+00  1.44149986094E+02  1.44638656400E+02  1.90734863281E-06  0.00000000000E+00  1.
       -2    1    4    4    0  803 -3.00090933319E+00 -1.17338662678E+01  2.27225594478E+01  2.57488598248E+01  1.65181236989E-06  0.00000000000E+00  1.
        5    1    5    5  804    0 -2.33480989085E+01 -2.57585440518E+01  4.35413733318E+02  4.36825271677E+02  4.74999999999E+00  0.00000000000E+00  1.
       -5    1    5    5    0  804  1.51352399959E+01  4.14133550030E+01  2.09654160107E+02  2.14293188909E+02  4.75000000000E+00  0.00000000000E+00  1.
</event>
<event>
 9   0   8.7807575E-22   6.2499587E+01   7.8125000E-03   1.3828954E-01
       21   -1    0    0  501  502  0.00000000000E+00  0.00000000000E+00  8.16754405393E+02  8.16754405393E+02  0.00000000000E+00  0.00000000000E+00  1.
       21   -1    0    0  502  501  0.00000000000E+00  0.00000000000E+00 -4.78258628497E+00  4.78258628497E+00  0.00000000000E+00  0.00000000000E+00  1.
       25    2    1    2    0    0  1.77635683940E-15  0.00000000000E+00  8.11971819108E+02  8.21536991678E+02  1.24999174676E+02  0.00000000000E+00  1.
       23    2    3    3    0    0 -4.13339611035E+00 -2.15282298047E+01  3.38482015733E+02  3.44076035939E+02  5.77727781119E+01  0.00000000000E+00  1.
       23    2    3    3    0    0  4.13339611035E+00  2.15282298047E+01  4.73489803375E+02  4.77460955739E+02  5.74092389192E+01  0.00000000000E+00  1.
        4    1    4    4  803    0  1.29336356117E+01 -3.35254917907E+00  2.82040458826E+02  2.82359636909E+02  1.27500000002E+00  0.00000000000E+00  1.
       -4    1    4    4    0  803 -1.70670317221E+01 -1.81756806257E+01  5.64415569073E+01  6.17163990292E+01  1.27500000000E+00  0.00000000000E+00  1.
        1    1    5    5  804    0 -1.09647039587E+01 -1.27616034888E+01  2.71829998374E+02  2.72350199692E+02  0.00000000000E+00  0.00000000000E+00  1.
       -1    1    5    5    0  804  1.50981000691E+01  3.42898332936E+01  2.01659805001E+02  2.05110756047E+02  0.00000000000E+00  0.00000000000E+00  1.
</event>
<event>
 9   0   2.0250882E-15   6.2499528E+01   7.8125000E-03   1.3828956E-01
       21   -1    0    0  501  502  0.00000000000E+00  0.00000000000E+00  8.16736230795E+02  8.16736230795E+02  0.00000000000E+00  0.00000000000E+00  1.
       21   -1    0    0  502  501  0.00000000000E+00  0.00000000000E+00 -4.78268355894E+00  4.78268355894E+00  0.00000000000E+00  0.00000000000E+00  1.
       25    2    1    2    0    0 -3.55271367880E-15  1.77635683940E-15  8.11953547236E+02  8.21518914354E+02  1.24999055085E+02  0.00000000000E+00  1.
       23    2    3    3    0    0  2.12810162638E+01  5.72705103431E-02  5.86203786216E+02  5.92229166309E+02  8.15329474506E+01  0.00000000000E+00  1.
       23    2    3    3    0    0 -2.12810162638E+01 -5.72705103431E-02  2.25749761020E+02  2.29289748045E+02  3.40286500578E+01  0.00000000000E+00  1.
        3    1    4    4  804    0 -4.51013561590E+00  1.68382268106E+01  5.06384191960E+02  5.06684139454E+02  5.39479660939E-06  0.00000000000E+00  1.
       -3    1    4    4    0  804  2.57911518797E+01 -1.67809563002E+01  7.98195942560E+01  8.55450270556E+01  7.50923907663E-06  0.00000000000E+00  1.
        2    1    5    5  803    0 -2.06079646328E+01 -1.47920101009E+01  1.46027067832E+02  1.48214021970E+02  0.00000000000E+00  0.00000000000E+00  1.
       -2    1    5    5    0  803 -6.73051631048E-01  1.47347395905E+01  7.97226931882E+01  8.10757260743E+01  1.34869915235E-06  0.00000000000E+00  1.
</event>
<event>
 9   0   6.6933108E-11   6.2499528E+01   7.8125000E-03   1.3828956E-01
       21   -1    0    0  501  502  0.00000000000E+00  0.00000000000E+00  8.16732668661E+02  8.16732668661E+02  0.00000000000E+00  0.00000000000E+00  1.
       21   -1    0    0  502  501  0.00000000000E+00  0.00000000000E+00 -4.78270450262E+00  4.78270450262E+00  0.00000000000E+00  0.00000000000E+00  1.
       25    2    1    2    0    0  3.55271367880E-15 -1.77635683940E-15  8.11949964158E+02  8.21515373163E+02  1.24999056186E+02  0.00000000000E+00  1.
       23    2    3    3    0    0  2.89474851198E+01  8.87837688112E-01  1.92656710540E+02  1.96217574323E+02  2.33662835409E+01  0.00000000000E+00  1.
       23    2    3    3    0    0 -2.89474851198E+01 -8.87837688112E-01  6.19293253618E+02  6.25297798840E+02  8.14521829504E+01  0.00000000000E+00  1.
       13    1    4    4    0    0  6.15516550314E+00  5.15179308410E+00  1.12180306439E+02  1.12467147875E+02  1.05659999987E-01  0.00000000000E+00  1.
      -13    1    4    4    0    0  2.27923196167E+01 -4.26395539599E+00  8.04764041011E+01  8.37504264479E+01  1.05659999995E-01  0.00000000000E+00  1.
       14    1    5    5    0    0 -3.91756516533E+01 -2.90613753318E+01  4.96882866201E+02  4.99271347007E+02  0.00000000000E+00  0.00000000000E+00  1.
      -14    1    5    5    0    0  1.02281665334E+01  2.81735376437E+01  1.22410387417E+02  1.26026451833E+02  6.18051595536E-06  0.00000000000E+00  1.
</event>
<event>
 9   0   1.0547145E-21   6.2499564E+01   7.8125000E-03   1.3828955E-01
       21   -1    0    0  501  502  0.00000000000E+00  0.00000000000E+00  8.16745032618E+02  8.16745032618E+02  0.00000000000E+00  0.00000000000E+00  1.
       21   -1    0    0  502  501  0.00000000000E+00  0.00000000000E+00 -4.78263759272E+00  4.78263759272E+00  0.00000000000E+00  0.00000000000E+00  1.
       25    2    1    2    0    0  3.55271367880E-15  0.00000000000E+00  8.11962395026E+02  8.21527670211E+02  1.24999127944E+02  0.00000000000E+00  1.
       23    2    3    3    0    0 -2.66653428077E-01 -2.09755209196E+01  3.26732591451E+02  3.32463484917E+02  5.77731676925E+01  0.00000000000E+00  1.
       23    2    3    3    0    0  2.66653428077E-01  2.09755209196E+01  4.85229803575E+02  4.89064185294E+02  5.74088101079E+01  0.00000000000E+00  1.
        3    1    4    4  803    0  1.46891330309E+01 -3.29996251796E+00  2.79057685362E+02  2.79463507710E+02  3.81469726562E-06  0.00000000000E+00  1.
       -3    1    4    4    0  803 -1.49557864590E+01 -1.76755584016E+01  4.76749060886E+01  5.29999773073E+01  0.00000000000E+00  0.00000000000E+00  1.
        2    1    5    5  804    0 -1.26865431132E+01 -1.27403721506E+01  2.87568785505E+02  2.88130303705E+02  7.62939453125E-06  0.00000000000E+00  1.
       -2    1    5    5    0  804  1.29531965413E+01  3.37158930701E+01  1.97661018070E+02  2.00933881789E+02  2.69739830470E-06  0.00000000000E+00  1.
</event>
<event>
 9   0   1.7003604E-09   6.2499586E+01   7.8125000E-03   1.3828954E-01
       21   -1    0    0  501  502  0.00000000000E+00  0.00000000000E+00  8.38872000090E+02  8.38872000090E+02  0.00000000000E+00  0.00000000000E+00  1.
       21   -1    0    0  502  501  0.00000000000E+00  0.00000000000E+00 -4.65648905101E+00  4.65648905101E+00  0.00000000000E+00  0.00000000000E+00  1.
       25    2    1    2    0    0  3.55271367880E-15 -3.55271367880E-15  8.34215511039E+02  8.43528489141E+02  1.24999172535E+02  0.00000000000E+00  1.
       23    2    3    3    0    0 -1.64966148328E+01 -1.27314005147E+01  3.34722128077E+02  3.40322663885E+02  5.78479530320E+01  0.00000000000E+00  1.
       23    2    3    3    0    0  1.64966148328E+01  1.27314005147E+01  4.99493382963E+02  5.03205825256E+02  5.73431433377E+01  0.00000000000E+00  1.
       14    1    4    4    0    0 -1.01885513739E+01  1.01311307530E+01  2.83635740237E+02  2.83999435790E+02  5.39479660939E-06  0.00000000000E+00  1.
      -14    1    4    4    0    0 -6.30806345886E+00 -2.28625312677E+01  5.10863878400E+01  5.63232281956E+01  4.10190833428E-06  0.00000000000E+00  1.
       16    1    5    5    0    0 -5.38068636375E+00 -1.64839328235E+01  2.92922583056E+02  2.93435361792E+02  5.39479660939E-06  0.00000000000E+00  1.
      -16    1    5    5    0    0  2.18773011966E+01  2.92153333382E+01  2.06570799907E+02  2.09770463664E+02  2.69739830470E-06  0.00000000000E+00  1.
</event>
<event>
 9   0   2.8016345E-18   6.2499528E+01   7.8125000E-03   1.3828956E-01
       21   -1    0    0  501  502  0.00000000000E+00  0.00000000000E+00  8.16742777952E+02  8.16742777952E+02  0.00000000000E+00  0.00000000000E+00  1.
       21   -1    0    0  502  501  0.00000000000E+00  0.00000000000E+00 -4.78264527572E+00  4.78264527572E+00  0.00000000000E+00  0.00000000000E+00  1.
       25    2    1    2    0    0  3.55271367880E-15 -7.10542735760E-15  8.11960132676E+02  8.21525423228E+02  1.24999055812E+02  0.00000000000E+00  1.
       23    2    3    3    0    0  1.02193844545E+01  1.86025884375E+01  2.24809141049E+02  2.28322845688E+02  3.37887532918E+01  0.00000000000E+00  1.
       23    2    3    3    0    0 -1.02193844545E+01 -1.86025884375E+01  5.87150991628E+02  5.93202577539E+02  8.18078169539E+01  0.00000000000E+00  1.
       14    1    4    4    0    0  1.40711652771E+01  1.33051933487E+01  2.18059496964E+02  2.18917724451E+02  4.67203091199E-06  0.00000000000E+00  1.
      -14    1    4    4    0    0 -3.85178082261E+00  5.29739508882E+00  6.74964408433E+00  9.40512123779E+00  2.07848498513E-06  0.00000000000E+00  1.
       16    1    5    5    0    0 -2.50367451349E+01 -4.17690361052E+01  4.84177127786E+02  4.86619956491E+02  1.20631319434E-05  0.00000000000E+00  1.
      -16    1    5    5    0    0  1.48173606804E+01  2.31664476677E+01  1.02973863842E+02  1.06582621048E+02  7.38712949029E-06  0.00000000000E+00  1.
</event>
<event>
 9   0   1.1887493E-20   6.2499588E+01   7.8125000E-03   1.3828954E-01
       21   -1    0    0  501  502  0.00000000000E+00  0.00000000000E+00  8.16724631845E+02  8.16724631845E+02  0.00000000000E+00  0.00000000000E+00  1.
       21   -1    0    0  502  501  0.00000000000E+00  0.00000000000E+00 -4.78276077693E+00  4.78276077693E+00  0.00000000000E+00  0.00000000000E+00  1.
       25    2    1    2    0    0  1.77635683940E-15  1.77635683940E-15  8.11941871068E+02  8.21507392622E+02  1.24999176553E+02  0.00000000000E+00  1.
       23    2    3    3    0    0  7.33894283829E+00 -4.76238603807E+00  1.15746944530E+02  1.20000317081E+02  3.04332142362E+01  0.00000000000E+00  1.
       23    2    3    3    0    0 -7.33894283829E+00  4.76238603807E+00  6.96194926538E+02  7.01507075540E+02  8.57219977247E+01  0.00000000000E+00  1.
       11    1    4    4    0    0  1.07649181175E+01  1.18887407640E+00  1.11285669770E+02  1.11811435820E+02  5.10998597706E-04  0.00000000000E+00  1.
      -11    1    4    4    0    0 -3.42597527925E+00 -5.95126011447E+00  4.46127475978E+00  8.18888126105E+00  5.10998284844E-04  0.00000000000E+00  1.
        1    1    5    5  804    0 -2.28926011703E+01 -3.07959489192E+01  5.02442492766E+02  5.03905666069E+02  9.34406182397E-06  0.00000000000E+00  1.
       -1    1    5    5    0  804  1.55536583320E+01  3.55583349573E+01  1.93752433771E+02  1.97601409672E+02  4.67203091199E-06  0.00000000000E+00  1.
</event>
<event>
 9   0   1.1640782E-12   6.2499528E+01   7.8125000E-03   1.3828956E-01
       21   -1    0    0  501  502  0.00000000000E+00  0.00000000000E+00  8.16711744695E+02  8.16711744695E+02  0.00000000000E+00  0.00000000000E+00  1.
       21   -1    0    0  502  501  0.00000000000E+00  0.00000000000E+00 -4.78282697534E+00  4.78282697534E+00  0.00000000000E+00  0.00000000000E+00  1.
       25    2    1    2    0    0  7.10542735760E-15  0.00000000000E+00  8.11928917719E+02  8.21494571670E+02  1.24999055414E+02  0.00000000000E+00  1.
       23    2    3    3    0    0 -9.60542543125E+00  1.93939423465E+01  5.75723406114E+02  5.81125892498E+02  7.60360005959E+01  0.00000000000E+00  1.
       23    2    3    3    0    0  9.60542543125E+00 -1.93939423465E+01  2.36205511605E+02  2.40368679172E+02  3.89315940684E+01  0.00000000000E+00  1.
        4    1    4    4  803    0  1.43744543083E+01  1.81063324580E+01  5.18988631206E+02  5.19504849984E+02  1.27499999995E+00  0.00000000000E+00  1.
       -4    1    4    4    0  803 -2.39798797395E+01  1.28760988858E+00  5.67347749087E+01  6.16210425138E+01  1.27500000000E+00  0.00000000000E+00  1.
       13    1    5    5    0    0 -1.23442312858E+01 -1.37201306899E+01  1.53728458536E+02  1.54832400227E+02  1.05660000021E-01  0.00000000000E+00  1.
      -13    1    5    5    0    0  2.19496567170E+01 -5.67381165668E+00  8.24770530691E+01  8.55362789447E+01  1.05660000012E-01  0.00000000000E+00  1.
</event>
<event>
 9   0   5.5540663E-11   6.2499588E+01   7.8125000E-03   1.3828954E-01
       21   -1    0    0  501  502  0.00000000000E+00  0.00000000000E+00  8.22394711570E+02  8.22394711570E+02  0.00000000000E+00  0.00000000000E+00  1.
       21   -1    0    0  502  501  0.00000000000E+00  0.00000000000E+00 -4.74978556613E+00  4.74978556613E+00  0.00000000000E+00  0.00000000000E+00  1.
       25    2    1    2    0    0  0.00000000000E+00  2.66453525910E-15  8.17644926004E+02  8.27144497136E+02  1.24999176488E+02  0.00000000000E+00  1.
       23    2    3    3    0    0  2.13420775892E+01  6.04550737517E+00  5.71607414684E+02  5.77271044126E+02  7.75550735262E+01  0.00000000000E+00  1.
       23    2    3    3    0    0 -2.13420775892E+01 -6.04550737517E+00  2.46037511320E+02  2.49873453010E+02  3.75533368337E+01  0.00000000000E+00  1.
       11    1    4    4    0    0  3.18623824661E+01  1.09523587527E+01  5.59442727344E+02  5.60456359369E+02  5.10941639717E-04  0.00000000000E+00  1.
      -11    1    4    4    0    0 -1.05203048769E+01 -4.90685137752E+00  1.21646873394E+01  1.68146847568E+01  5.10967366158E-04  0.00000000000E+00  1.
        1    1    5    5  804    0 -2.04949574581E+01 -1.80283199269E+01  2.12569747409E+02  2.14315097828E+02  2.69739830470E-06  0.00000000000E+00  1.
       -1    1    5    5    0  804 -8.47120131162E-01  1.19828125517E+01  3.34677639113E+01  3.55583553824E+01  2.38418579102E-06  0.00000000000E+00  1.
</event>
<event>
 9   0   8.2334541E-14   6.2499528E+01   7.8125000E-03   1.3828956E-01
       21   -1    0    0  501  502  0.00000000000E+00  0.00000000000E+00  8.16740976382E+02  8.16740976382E+02  0.00000000000E+00  0.00000000000E+00  1.
       21   -1    0    0  502  501  0.00000000000E+00  0.00000000000E+00 -4.78265576441E+00  4.78265576441E+00  0.00000000000E+00  0.00000000000E+00  1.
       25    2    1    2    0    0 -1.06581410364E-14  0.00000000000E+00  8.11958320618E+02  8.21523632147E+02  1.24999055016E+02  0.00000000000E+00  1.
       23    2    3    3    0    0 -1.92863764315E+01  1.15998775204E+01  5.50092136001E+02  5.55199508590E+02  7.16841319529E+01  0.00000000000E+00  1.
       23    2    3    3    0    0  1.92863764315E+01 -1.15998775204E+01  2.61866184617E+02  2.66324123557E+02  4.29897507345E+01  0.00000000000E+00  1.
        3    1    4    4  804    0  8.73222077049E+00  1.31328331517E+01  4.71231214710E+02  4.71495048540E+02  5.39479660939E-06  0.00000000000E+00  1.
       -3    1    4    4    0  804 -2.80185972020E+01 -1.53295563131E+00  7.88609212911E+01  8.37044602501E+01  8.31393994053E-06  0.00000000000E+00  1.
        5    1    5    5  803    0 -9.25325821391E+00 -1.21339593116E+01  1.47116706674E+02  1.47982240957E+02  4.75000000000E+00  0.00000000000E+00  1.
       -5    1    5    5    0  803  2.85396346454E+01  5.34081791250E-01  1.14749477943E+02  1.18341882600E+02  4.75000000000E+00  0.00000000000E+00  1.
</event>
<event>
 9   0   5.6159959E-11   6.2499527E+01   7.8125000E-03   1.3828956E-01
       21   -1    0    0  501  502  0.00000000000E+00  0.00000000000E+00  8.16631166654E+02  8.16631166654E+02  0.00000000000E+00  0.00000000000E+00  1.
       21   -1    0    0  502  501  0.00000000000E+00  0.00000000000E+00 -4.78329873207E+00  4.78329873207E+00  0.00000000000E+00  0.00000000000E+00  1.
       25    2    1    2    0    0  4.44089209850E-15  0.00000000000E+00  8.11847867922E+02  8.21414465386E+02  1.24999053181E+02  0.00000000000E+00  1.
       23    2    3    3    0    0  7.63534194841E+00  8.24951544861E+00  7.33270773435E+02  7.36917140164E+02  7.23497846633E+01  0.00000000000E+00  1.
       23    2    3    3    0    0 -7.63534194841E+00 -8.24951544861E+00  7.85770944870E+01  8.44973252228E+01  2.89669680839E+01  0.00000000000E+00  1.
        3    1    4    4  803    0  2.31742323240E+01  1.24127278820E+01  6.93746923434E+02  6.94244852074E+02  1.52587890625E-05  0.00000000000E+00  1.
       -3    1    4    4    0  803 -1.55388903756E+01 -4.16321243341E+00  3.95238500008E+01  4.26722880890E+01  1.21195459625E-05  0.00000000000E+00  1.
       11    1    5    5    0    0 -1.55538850564E+01 -8.70222643782E+00  7.20613233580E+01  7.42326505635E+01  5.10998597706E-04  0.00000000000E+00  1.
      -11    1    5    5    0    0  7.91854310800E+00  4.52710989207E-01  6.51577112907E+00  1.02646746593E+01  5.10999689246E-04  0.00000000000E+00  1.
</event>
<event>
 9   0   3.5316973E-15   6.2499528E+01   7.8125000E-03   1.3828956E-01
       21   -1    0    0  501  502  0.00000000000E+00  0.00000000000E+00  8.16718618500E+02  8.16718618500E+02  0.00000000000E+00  0.00000000000E+00  1.
       21   -1    0    0  502  501  0.00000000000E+00  0.00000000000E+00 -4.78278682849E+00  4.78278682849E+00  0.00000000000E+00  0.00000000000E+00  1.
       25    2    1    2    0    0  7.10542735760E-15 -3.55271367880E-15  8.11935831672E+02  8.21501405329E+02  1.24999056815E+02  0.00000000000E+00  1.
       23    2    3    3    0    0  2.02681729207E+01  1.79081751133E+01  6.53835695937E+02  6.59101155785E+02  7.86238812716E+01  0.00000000000E+00  1.
       23    2    3    3    0    0 -2.02681729207E+01 -1.79081751133E+01  1.58100135734E+02  1.62400249543E+02  2.54300326995E+01  0.00000000000E+00  1.
        5    1    4    4  803    0  3.18153331271E+01  1.84313832594E+01  6.37284239580E+02  6.38361728041E+02  4.74999999999E+00  0.00000000000E+00  1.
       -5    1    4    4    0  803 -1.15471602064E+01 -5.23208146105E-01  1.65514563572E+01  2.07394277438E+01  4.75000000000E+00  0.00000000000E+00  1.
       12    1    5    5    0    0 -1.82920009543E+01 -2.09616729369E+01  1.55399214256E+02  1.57869898406E+02  1.90734863281E-06  0.00000000000E+00  1.
      -12    1    5    5    0    0 -1.97617196636E+00  3.05349782356E+00  2.70092147839E+00  4.53035113778E+00  0.00000000000E+00  0.00000000000E+00  1.
</event>
<event>
 9   0   1.9248693E-16   6.2499589E+01   7.8125000E-03   1.3828954E-01
       21   -1    0    0  501  502  0.00000000000E+00  0.00000000000E+00  8.01132090372E+02  8.01132090372E+02  0.00000000000E+00  0.00000000000E+00  1.
       21   -1    0    0  502  501  0.00000000000E+00  0.00000000000E+00 -4.87584833902E+00  4.87584833902E+00  0.00000000000E+00  0.00000000000E+00  1.
       25    2    1    2    0    0 -1.77635683940E-15  3.55271367880E-15  7.96256242033E+02  8.06007938711E+02  1.24999177152E+02  0.00000000000E+00  1.
       23    2    3    3    0    0 -1.52673875307E+01  1.21033071080E+01  6.04067613112E+02  6.10651131881E+02  8.72785225071E+01  0.00000000000E+00  1.
       23    2    3    3    0    0  1.52673875307E+01 -1.21033071080E+01  1.92188628921E+02  1.95356806830E+02  2.91243836599E+01  0.00000000000E+00  1.
       13    1    4    4    0    0  1.47746371380E+01  1.49509915665E+01  5.33349968124E+02  5.33764013130E+02  1.05659999677E-01  0.00000000000E+00  1.
      -13    1    4    4    0    0 -3.00420246687E+01 -2.84768445856E+00  7.07176449886E+01  7.68871187504E+01  1.05659999530E-01  0.00000000000E+00  1.
       11    1    5    5    0    0  1.14080315615E+00 -1.73602418074E+01  1.38635866572E+02  1.39723236894E+02  5.11002157370E-04  0.00000000000E+00  1.
      -11    1    5    5    0    0  1.41265843745E+01  5.25693469942E+00  5.35527623483E+01  5.56335699369E+01  5.11000377541E-04  0.00000000000E+00  1.
</event>
<event>
 9   0   1.0609268E-17   6.2499586E+01   7.8125000E-03   1.3828954E-01
       21   -1    0    0  501  502  0.00000000000E+00  0.00000000000E+00  8.16731217000E+02  8.16731217000E+02  0.00000000000E+00  0.00000000000E+00  1.
       21   -1    0    0  502  501  0.00000000000E+00  0.00000000000E+00 -4.78272192546E+00  4.78272192546E+00  0.00000000000E+00  0.00000000000E+00  1.
       25    2    1    2    0    0 -1.77635683940E-15  0.00000000000E+00  8.11948495075E+02  8.21513938926E+02  1.24999172777E+02  0.00000000000E+00  1.
       23    2    3    3    0    0 -1.00261127857E+01 -2.06298618158E+01  3.54743875891E+02  3.60148607024E+02  5.77727230020E+01  0.00000000000E+00  1.
       23    2    3    3    0    0  1.00261127857E+01  2.06298618158E+01  4.57204619184E+02  4.61365331902E+02  5.74089848508E+01  0.00000000000E+00  1.
        1    1    4    4  804    0  1.04600139275E+01 -3.03494320071E+00  2.87198531541E+02  2.87404974467E+02  3.81469726562E-06  0.00000000000E+00  1.
       -1    1    4    4    0  804 -2.04861267132E+01 -1.75949186151E+01  6.75453443497E+01  7.27436327567E+01  4.95543710967E-06  0.00000000000E+00  1.
       14    1    5    5    0    0 -1.48851131883E+01 -8.01657011355E+00  2.59421119855E+02  2.59971439720E+02  5.39479660939E-06  0.00000000000E+00  1.
      -14    1    5    5    0    0  2.49112259740E+01  2.86464319293E+01  1.97783499329E+02  2.01393892382E+02  3.81469726562E-06  0.00000000000E+00  1.
</event>
<event>
 9   0   1.0849417E-18   6.2499527E+01   7.8125000E-03   1.3828956E-01
       21   -1    0    0  501  502  0.00000000000E+00  0.00000000000E+00  8.16745155622E+02  8.16745155622E+02  0.00000000000E+00  0.00000000000E+00  1.
       21   -1    0    0  502  501  0.00000000000E+00  0.00000000000E+00 -4.78263115482E+00  4.78263115482E+00  0.00000000000E+00  0.00000000000E+00  1.
       25    2    1    2    0    0  1.77635683940E-15  3.55271367880E-15  8.11962524467E+02  8.21527786777E+02  1.24999053226E+02  0.00000000000E+00  1.
       23    2    3    3    0    0  1.24475388618E+01  2.13061887568E+01  3.42086081008E+02  3.46406753972E+02  4.86400809470E+01  0.00000000000E+00  1.
       23    2    3    3    0    0 -1.24475388618E+01 -2.13061887568E+01  4.69876443459E+02  4.75121032805E+02  6.59335179798E+01  0.00000000000E+00  1.
       15    1    4    4    0    0  1.92079981639E+01  1.65620783463E+01  3.33115993085E+02  3.34084826803E+02  1.77679999999E+00  0.00000000000E+00  1.
      -15    1    4    4    0    0 -6.76045930204E+00  4.74411041048E+00  8.97008792295E+00  1.23219271685E+01  1.77679999999E+00  0.00000000000E+00  1.
       14    1    5    5    0    0 -2.14206391227E+01 -3.71785953125E+01  4.16745265949E+02  4.18948336219E+02  5.39479660939E-06  0.00000000000E+00  1.
      -14    1    5    5    0    0  8.97310026085E+00  1.58724065557E+01  5.31311775094E+01  5.61726966856E+01  4.42200588965E-06  0.00000000000E+00  1.
</event>
<event>
 9   0   1.3245302E-14   6.2499589E+01   7.8125000E-03   1.3828954E-01
       21   -1    0    0  501  502  0.00000000000E+00  0.00000000000E+00  8.16747435996E+02  8.16747435996E+02  0.00000000000E+00  0.00000000000E+00  1.
       21   -1    0    0  502  501  0.00000000000E+00  0.00000000000E+00 -4.78262730222E+00  4.78262730222E+00  0.00000000000E+00  0.00000000000E+00  1.
       25    2    1    2    0    0 -7.10542735760E-15  1.77635683940E-15  8.11964808694E+02  8.21530063298E+02  1.24999177380E+02  0.00000000000E+00  1.
       23    2    3    3    0    0 -1.07664364714E+01 -1.84027666424E+01  5.86305215395E+02  5.92167292237E+02  8.03350385678E+01  0.00000000000E+00  1.
       23    2    3    3    0    0  1.07664364714E+01  1.84027666424E+01  2.25659593299E+02  2.29362771061E+02  3.50777810966E+01  0.00000000000E+00  1.
        1    1    5    5  804    0  1.44318467471E+01  1.31275592751E+01  2.19812257078E+02  2.20676322642E+02  3.81469726562E-06  0.00000000000E+00  1.
       -1    1    4    4    0  803  2.96980817258E+01  1.76794520959E+00  1.18316023971E+02  1.21999111541E+02  1.34869915235E-06  0.00000000000E+00  1.
        1    1    4    4  803    0 -4.04645181972E+01 -2.01707118520E+01  4.67989191424E+02  4.70168180696E+02  0.00000000000E+00  0.00000000000E+00  1.
       -1    1    5    5    0  804 -3.66541027577E+00  5.27520736728E+00  5.84733622048E+00  8.68644851882E+00  5.82968773189E-06  0.00000000000E+00  1.
</event>
<event>
 9   0   1.1296280E-12   6.2499588E+01   7.8125000E-03   1.3828954E-01
       21   -1    0    0  501  502  0.00000000000E+00  0.00000000000E+00  8.16732914059E+02  8.16732914059E+02  0.00000000000E+00  0.00000000000E+00  1.
       21   -1    0    0  502  501  0.00000000000E+00  0.00000000000E+00 -4.78271220568E+00  4.78271220568E+00  0.00000000000E+00  0.00000000000E+00  1.
       25    2    1    2    0    0 -5.32907051820E-15 -3.55271367880E-15  8.11950201853E+02  8.21515626264E+02  1.24999175627E+02  0.00000000000E+00  1.
       23    2    3    3    0    0 -1.18930402446E+01 -2.03075073715E+01  5.21953877126E+02  5.27044290385E+02  6.91808855017E+01  0.00000000000E+00  1.
       23    2    3    3    0    0  1.18930402446E+01  2.03075073715E+01  2.89996324727E+02  2.94471335880E+02  4.54055066861E+01  0.00000000000E+00  1.
        3    1    4    4  804    0  1.23013396078E+01 -2.60902728457E+00  4.32859089096E+02  4.33041708144E+02  5.39479660939E-06  0.00000000000E+00  1.
       -3    1    4    4    0  804 -2.41943798524E+01 -1.76984800870E+01  8.90947880299E+01  9.40025823407E+01  4.76837158203E-06  0.00000000000E+00  1.
        2    1    5    5  803    0 -9.55843215065E+00 -6.04241823414E+00  1.49409934801E+02  1.49837255349E+02  3.30362473978E-06  0.00000000000E+00  1.
       -2    1    5    5    0  803  2.14514723952E+01  2.63499256057E+01  1.40586389926E+02  1.44634080731E+02  3.30362473978E-06  0.00000000000E+00  1.
</event>
<event>
 9   0   1.7105107E-18   6.2499527E+01   7.8125000E-03   1.3828956E-01
       21   -1    0    0  501  502  0.00000000000E+00  0.00000000000E+00  6.69668230128E+02  6.69668230128E+02  0.00000000000E+00  0.00000000000E+00  1.
       21   -1    0    0  502  501  0.00000000000E+00  0.00000000000E+00 -5.83302399669E+00  5.83302399669E+00  0.00000000000E+00  0.00000000000E+00  1.
       25    2    1    2    0    0  0.00000000000E+00  0.00000000000E+00  6.63835206131E+02  6.75501254125E+02  1.24999053695E+02  0.00000000000E+00  1.
       23    2    3    3    0    0  1.79166496843E+01 -1.50749280615E+01  2.98096354238E+02  3.04544320725E+02  5.77715075395E+01  0.00000000000E+00  1.
       23    2    3    3    0    0 -1.79166496843E+01  1.50749280615E+01  3.65738851893E+02  3.70956933400E+02  5.74097453549E+01  0.00000000000E+00  1.
        1    1    4    4  804    0  2.38187585266E+01 -1.66827874781E+00  2.81076491913E+02  2.82088834899E+02  3.81469726562E-06  0.00000000000E+00  1.
       -1    1    4    4    0  804 -5.90210884230E+00 -1.34066493137E+01  1.70198623251E+01  2.24554859260E+01  2.79061792152E-06  0.00000000000E+00  1.
        4    1    5    5  803    0 -2.16970659607E+01 -1.47655738037E+01  2.49607124779E+02  2.50986308803E+02  1.27500000000E+00  0.00000000000E+00  1.
       -4    1    5    5    0  803  3.78041627636E+00  2.98405018652E+01  1.16131727113E+02  1.19970624597E+02  1.27500000000E+00  0.00000000000E+00  1.
</event>
<event>
 9   0   3.1389429E-14   6.2490618E+01   7.8125000E-03   1.3829289E-01
       21   -1    0    0  501  502  0.00000000000E+00  0.00000000000E+00  8.16710322227E+02  8.16710322227E+02  0.00000000000E+00  0.00000000000E+00  1.
       21   -1    0    0  502  501  0.00000000000E+00  0.00000000000E+00 -4.78147175612E+00  4.78147175612E+00  0.00000000000E+00  0.00000000000E+00  1.
       25    2    1    2    0    0  3.55271367880E-15 -7.10542735760E-15  8.11928850471E+02  8.21491793983E+02  1.24981236010E+02  0.00000000000E+00  1.
       23    2    3    3    0    0  2.83766630086E+01 -1.69300696187E+01  2.84051464837E+02  2.89474625983E+02  4.49272985118E+01  0.00000000000E+00  1.
       23    2    3    3    0    0 -2.83766630086E+01  1.69300696187E+01  5.27877385634E+02  5.32017168000E+02  5.74096727185E+01  0.00000000000E+00  1.
        1    1    4    4  803    0  2.56786580275E+01 -3.85525553301E+00  2.64666740310E+02  2.65937473766E+02  5.39479660939E-06  0.00000000000E+00  1.
       -1    1    4    4    0  803  2.69800498105E+00 -1.30748140857E+01  1.93847245263E+01  2.35371524174E+01  1.84678237257E-06  0.00000000000E+00  1.
        4    1    5    5  804    0 -2.76443884580E+01 -1.33918536759E+01  3.68083419498E+02  3.69365108385E+02  1.27500000002E+00  0.00000000000E+00  1.
       -4    1    5    5    0  804 -7.32274550623E-01  3.03219232946E+01  1.59793966136E+02  1.62652059615E+02  1.27499999999E+00  0.00000000000E+00  1.
</event>
<event>
 9   0   3.4357173E-23   6.2499587E+01   7.8125000E-03   1.3828954E-01
       21   -1    0    0  501  502  0.00000000000E+00  0.00000000000E+00  8.16730582918E+02  8.16730582918E+02  0.00000000000E+00  0.00000000000E+00  1.
       21   -1    0    0  502  501  0.00000000000E+00  0.00000000000E+00 -4.78272568122E+00  4.78272568122E+00  0.00000000000E+00  0.00000000000E+00  1.
       25    2    1    2    0    0  0.00000000000E+00  0.00000000000E+00  8.11947857237E+02  8.21513308599E+02  1.24999173334E+02  0.00000000000E+00  1.
       23    2    3    3    0    0  1.13825943102E+01  1.94610512736E+01  2.53130226418E+02  2.57039409105E+02  3.85493234242E+01  0.00000000000E+00  1.
       23    2    3    3    0    0 -1.13825943102E+01 -1.94610512736E+01  5.58817630819E+02  5.64473899495E+02  7.64548410955E+01  0.00000000000E+00  1.
       11    1    4    4    0    0  1.58953701870E+01  1.42341466021E+01  2.46644594719E+02  2.47565809084E+02  5.10977239204E-04  0.00000000000E+00  1.
      -11    1    4    4    0    0 -4.51277587670E+00  5.22690467147E+00  6.48563169875E+00  9.47360002063E+00  5.10987515314E-04  0.00000000000E+00  1.
       12    1    5    5    0    0 -2.36422395468E+01 -4.07820669812E+01  4.68563954262E+02  4.70929200318E+02  0.00000000000E+00  0.00000000000E+00  1.
      -12    1    5    5    0    0  1.22596452366E+01  2.13210157077E+01  9.02536765564E+01  9.35446992768E+01  4.57366134959E-06  0.00000000000E+00  1.
</event>
<event>
 9   0   3.9059547E-12   6.2499529E+01   7.8125000E-03   1.3828956E-01
       21   -1    0    0  501  502  0.00000000000E+00  0.00000000000E+00  8.15658852563E+02  8.15658852563E+02  0.00000000000E+00  0.00000000000E+00  1.
       21   -1    0    0  502  501  0.00000000000E+00  0.00000000000E+00 -4.78900102311E+00  4.78900102311E+00  0.00000000000E+00  0.00000000000E+00  1.
       25    2    1    2    0    0  1.77635683940E-15 -3.55271367880E-15  8.10869851540E+02  8.20447853586E+02  1.24999057267E+02  0.00000000000E+00  1.
       23    2    3    3    0    0  1.55326253901E+01  2.65444644401E+01  2.20455030660E+02  2.24315087986E+02  2.77662945170E+01  0.00000000000E+00  1.
       23    2    3    3    0    0 -1.55326253901E+01 -2.65444644401E+01  5.90414820880E+02  5.96132765600E+02  7.64116644420E+01  0.00000000000E+00  1.
       16    1    4    4    0    0  1.56025717671E+01  1.74329618033E+01  2.05322208599E+02  2.06650811146E+02  4.67203091199E-06  0.00000000000E+00  1.
      -16    1    4    4    0    0 -6.99463770381E-02  9.11150263685E+00  1.51328220603E+01  1.76642768407E+01  2.68684093227E-06  0.00000000000E+00  1.
        4    1    5    5  804    0 -3.07131883069E+01 -4.25995566456E+01  5.10949094477E+02  5.13642506938E+02  1.27499999999E+00  0.00000000000E+00  1.
       -4    1    5    5    0  804  1.51805629168E+01  1.60550922055E+01  7.94657264036E+01  8.24902586616E+01  1.27500000003E+00  0.00000000000E+00  1.
</event>
<event>
 9   0   5.8662177E-18   6.2499588E+01   7.8125000E-03   1.3828954E-01
       21   -1    0    0  501  502  0.00000000000E+00  0.00000000000E+00  8.15112417972E+02  8.15112417972E+02  0.00000000000E+00  0.00000000000E+00  1.
       21   -1    0    0  502  501  0.00000000000E+00  0.00000000000E+00 -4.79222059841E+00  4.79222059841E+00  0.00000000000E+00  0.00000000000E+00  1.
       25    2    1    2    0    0 -7.10542735760E-15  3.55271367880E-15  8.10320197374E+02  8.19904638571E+02  1.24999176308E+02  0.00000000000E+00  1.
       23    2    3    3    0    0  1.47801770395E+01 -9.36222404720E+00  1.63952251095E+02  1.67441376146E+02  2.91576565246E+01  0.00000000000E+00  1.
       23    2    3    3    0    0 -1.47801770395E+01  9.36222404720E+00  6.46367946279E+02  6.52463262425E+02  8.72392226302E+01  0.00000000000E+00  1.
        1    1    4    4  804    0  1.45525016986E+01 -1.50037855710E+00  1.54292860824E+02  1.54984881114E+02  2.69739830470E-06  0.00000000000E+00  1.
       -1    1    4    4    0  804  2.27675340853E-01 -7.86184549010E+00  9.65939027103E+00  1.24564952322E+01  2.81848679007E-06  0.00000000000E+00  1.
        5    1    5    5  803    0 -4.38001825360E+01 -9.83799524792E+00  4.95936065060E+02  4.97986330403E+02  4.74999999999E+00  0.00000000000E+00  1.
       -5    1    5    5    0  803  2.90200054965E+01  1.92002192951E+01  1.50431881218E+02  1.54476932022E+02  4.75000000000E+00  0.00000000000E+00  1.
</event>
<event>
 9   0   1.8551236E-17   6.2499580E+01   7.8125000E-03   1.3828954E-01
       21   -1    0    0  501  502  0.00000000000E+00  0.00000000000E+00  8.16715891680E+02  8.16715891680E+02  0.00000000000E+00  0.00000000000E+00  1.
       21   -1    0    0  502  501  0.00000000000E+00  0.00000000000E+00 -4.78281062096E+00  4.78281062096E+00  0.00000000000E+00  0.00000000000E+00  1.
       25    2    1    2    0    0  3.55271367880E-15  3.55271367880E-15  8.11933081059E+02  8.21498702301E+02  1.24999159054E+02  0.00000000000E+00  1.
       23    2    3    3    0    0  9.87865992063E+00  1.80824844593E+01  2.12022926921E+02  2.15736841439E+02  3.41188957648E+01  0.00000000000E+00  1.
       23    2    3    3    0    0 -9.87865992063E+00 -1.80824844593E+01  5.99910154138E+02  6.05761860862E+02  8.14289559680E+01  0.00000000000E+00  1.
        3    1    4    4  803    0  1.38260378447E+01  1.27955156657E+01  2.05821837301E+02  2.06682155140E+02  0.00000000000E+00  0.00000000000E+00  1.
       -3    1    4    4    0  803 -3.94737792407E+00  5.28696879358E+00  6.20108962000E+00  9.05468639909E+00  3.57130817865E-06  0.00000000000E+00  1.
       12    1    5    5    0    0 -2.37523505249E+01 -4.18340220779E+01  4.94043239542E+02  4.96379876904E+02  9.34406182397E-06  0.00000000000E+00  1.
      -12    1    5    5    0    0  1.38736906043E+01  2.37515376186E+01  1.05866914596E+02  1.09381984058E+02  4.04609745705E-06  0.00000000000E+00  1.
</event>
<event>
 9   0   2.2229924E-11   6.2499529E+01   7.8125000E-03   1.3828956E-01
       21   -1    0    0  501  502  0.00000000000E+00  0.00000000000E+00  8.23325820547E+02  8.23325820547E+02  0.00000000000E+00  0.00000000000E+00  1.
       21   -1    0    0  502  501  0.00000000000E+00  0.00000000000E+00 -4.74440490911E+00  4.74440490911E+00  0.00000000000E+00  0.00000000000E+00  1.
       25    2    1    2    0    0  7.10542735760E-15  1.77635683940E-15  8.18581415638E+02  8.28070225456E+02  1.24999057033E+02  0.00000000000E+00  1.
       23    2    3    3    0    0  1.99122494131E+01 -1.39739678852E+01  1.52492320617E+02  1.55707742723E+02  1.99805866114E+01  0.00000000000E+00  1.
       23    2    3    3    0    0 -1.99122494131E+01  1.39739678852E+01  6.66089095020E+02  6.72362482733E+02  8.83450973581E+01  0.00000000000E+00  1.
       16    1    4    4    0    0  1.49602328904E+01 -4.85161524121E+00  1.29857848404E+02  1.30806756441E+02  1.90734863281E-06  0.00000000000E+00  1.
      -16    1    4    4    0    0  4.95201652269E+00 -9.12235264398E+00  2.26344722138E+01  2.49009862817E+01  1.26159253648E-06  0.00000000000E+00  1.
        4    1    5    5  804    0 -2.98645629119E+01 -2.71394015252E+01  4.71455974768E+02  4.73181572975E+02  1.27500000002E+00  0.00000000000E+00  1.
       -4    1    5    5    0  804  9.95231349881E+00  4.11133694104E+01  1.94633120252E+02  1.99180909758E+02  1.27500000001E+00  0.00000000000E+00  1.
</event>
<event>
 9   0   2.4599615E-19   6.2499528E+01   7.8125000E-03   1.3828956E-01
       21   -1    0    0  501  502  0.00000000000E+00  0.00000000000E+00  8.16709342097E+02  8.16709342097E+02  0.00000000000E+00  0.00000000000E+00  1.
       21   -1    0    0  502  501  0.00000000000E+00  0.00000000000E+00 -4.78284116281E+00  4.78284116281E+00  0.00000000000E+00  0.00000000000E+00  1.
       25    2    1    2    0    0 -7.10542735760E-15 -8.88178419700E-15  8.11926500935E+02  8.21492183260E+02  1.24999056947E+02  0.00000000000E+00  1.
       23    2    3    3    0    0 -3.20600741630E+01 -1.37858452561E+01  3.10342355789E+02  3.15428569347E+02  4.43272678905E+01  0.00000000000E+00  1.
       23    2    3    3    0    0  3.20600741630E+01  1.37858452561E+01  5.01584145145E+02  5.06063613913E+02  5.74093091848E+01  0.00000000000E+00  1.
        3    1    4    4  804    0 -1.64858959954E-01 -4.26747986077E-01  1.95322671045E+02  1.95323206805E+02  2.69739830470E-06  0.00000000000E+00  1.
       -3    1    4    4    0  804 -3.18952152030E+01 -1.33590972701E+01  1.15019684744E+02  1.20105362542E+02  1.90734863281E-06  0.00000000000E+00  1.
       13    1    5    5    0    0  1.08609450485E+00 -1.57571884933E+01  2.76176154917E+02  2.76627453987E+02  1.05660000090E-01  0.00000000000E+00  1.
      -13    1    5    5    0    0  3.09739796581E+01  2.95430337494E+01  2.25407990228E+02  2.29436159926E+02  1.05659999987E-01  0.00000000000E+00  1.
</event>
<event>
 9   0   7.8662861E-18   6.2499586E+01   7.8125000E-03   1.3828954E-01
       21   -1    0    0  501  502  0.00000000000E+00  0.00000000000E+00  8.16719457825E+02  8.16719457825E+02  0.00000000000E+00  0.00000000000E+00  1.
       21   -1    0    0  502  501  0.00000000000E+00  0.00000000000E+00 -4.78279078805E+00  4.78279078805E+00  0.00000000000E+00  0.00000000000E+00  1.
       25    2    1    2    0    0  7.10542735760E-15 -1.77635683940E-15  8.11936667037E+02  8.21502248613E+02  1.24999172786E+02  0.00000000000E+00  1.
       23    2    3    3    0    0 -1.89815374512E+01 -1.43427209040E+01  3.00439786542E+02  3.04958320173E+02  4.65778842197E+01  0.00000000000E+00  1.
       23    2    3    3    0    0  1.89815374512E+01  1.43427209040E+01  5.11496880495E+02  5.16543928440E+02  6.79894024484E+01  0.00000000000E+00  1.
        3    1    4    4  803    0  4.16448238481E+00 -1.10879226665E+00  2.23285448574E+02  2.23327033570E+02  2.69739830470E-06  0.00000000000E+00  1.
       -3    1    4    4    0  803 -2.31460198360E+01 -1.32339286374E+01  7.71543379680E+01  8.16312868025E+01  4.37028474327E-06  0.00000000000E+00  1.
       14    1    5    5    0    0 -6.78129473361E+00 -2.00738079812E+01  2.98540112020E+02  2.99291066037E+02  0.00000000000E+00  0.00000000000E+00  1.
      -14    1    5    5    0    0  2.57628321848E+01  3.44165288852E+01  2.12956768476E+02  2.17252862503E+02  5.39479660939E-06  0.00000000000E+00  1.
</event>
<event>
 9   0   4.3794481E-23   6.2499527E+01   7.8125000E-03   1.3828956E-01
       21   -1    0    0  501  502  0.00000000000E+00  0.00000000000E+00  8.16710939799E+02  8.16710939799E+02  0.00000000000E+00  0.00000000000E+00  1.
       21   -1    0    0  502  501  0.00000000000E+00  0.00000000000E+00 -4.78283160270E+00  4.78283160270E+00  0.00000000000E+00  0.00000000000E+00  1.
       25    2    1    2    0    0 -5.32907051820E-15  0.00000000000E+00  8.11928108196E+02  8.21493771402E+02  1.24999054287E+02  0.00000000000E+00  1.
       23    2    3    3    0    0  9.57895594934E+00  1.63385925204E+01  1.89091415673E+02  1.93044925933E+02  3.39422147848E+01  0.00000000000E+00  1.
       23    2    3    3    0    0 -9.57895594934E+00 -1.63385925204E+01  6.22836692523E+02  6.28448845469E+02  8.16314878915E+01  0.00000000000E+00  1.
        5    1    4    4  803    0  1.30576766086E+01  1.14383949340E+01  1.81037983831E+02  1.81930354495E+02  4.75000000000E+00  0.00000000000E+00  1.
       -5    1    4    4    0  803 -3.47872065926E+00  4.90019758638E+00  8.05343184229E+00  1.11145714379E+01  4.75000000000E+00  0.00000000000E+00  1.
       14    1    5    5    0    0 -2.35601929765E+01 -4.09505423341E+01  5.07304913710E+02  5.09500054057E+02  0.00000000000E+00  0.00000000000E+00  1.
      -14    1    5    5    0    0  1.39812370272E+01  2.46119498137E+01  1.15531778813E+02  1.18948791511E+02  5.04637014592E-06  0.00000000000E+00  1.
</event>
<event>
 9   0   1.5946958E-14   6.2499528E+01   7.8125000E-03   1.3828956E-01
       21   -1    0    0  501  502  0.00000000000E+00  0.00000000000E+00  8.16714129772E+02  8.16714129772E+02  0.00000000000E+00  0.00000000000E+00  1.
       21   -1    0    0  502  501  0.00000000000E+00  0.00000000000E+00 -4.78281307398E+00  4.78281307398E+00  0.00000000000E+00  0.00000000000E+00  1.
       25    2    1    2    0    0 -3.55271367880E-15 -7.10542735760E-15  8.11931316698E+02  8.21496942846E+02  1.24999056278E+02  0.00000000000E+00  1.
       23    2    3    3    0    0 -1.58415121098E+00 -2.34180407464E+01  3.63770034195E+02  3.69064249160E+02  5.76963435823E+01  0.00000000000E+00  1.
       23    2    3    3    0    0  1.58415121098E+00  2.34180407464E+01  4.48161282503E+02  4.52432693686E+02  5.74098686047E+01  0.00000000000E+00  1.
        2    1    4    4  803    0  1.40637852235E+01 -4.71777219981E+00  3.05996952302E+02  3.06356299606E+02  5.39479660939E-06  0.00000000000E+00  1.
       -2    1    4    4    0  803 -1.56479364345E+01 -1.87002685466E+01  5.77730818928E+01  6.27079497536E+01  7.74768677200E-06  0.00000000000E+00  1.
        5    1    5    5  804    0 -1.46398940645E+01 -8.77687300918E+00  2.70969393877E+02  2.71548034270E+02  4.75000000000E+00  0.00000000000E+00  1.
       -5    1    5    5    0  804  1.62240452754E+01  3.21949137556E+01  1.77191888626E+02  1.80884659415E+02  4.75000000000E+00  0.00000000000E+00  1.
</event>
<event>
 9   0   3.1963085E-17   6.2499527E+01   7.8125000E-03   1.3828956E-01
       21   -1    0    0  501  502  0.00000000000E+00  0.00000000000E+00  8.16722940663E+02  8.16722940663E+02  0.00000000000E+00  0.00000000000E+00  1.
       21   -1    0    0  502  501  0.00000000000E+00  0.00000000000E+00 -4.78276123560E+00  4.78276123560E+00  0.00000000000E+00  0.00000000000E+00  1.
       25    2    1    2    0    0  3.55271367880E-15  3.55271367880E-15  8.11940179427E+02  8.21505701898E+02  1.24999053130E+02  0.00000000000E+00  1.
       23    2    3    3    0    0  1.43674668452E+01  2.45587226888E+01  1.61211937021E+02  1.65640779110E+02  2.52591389906E+01  0.00000000000E+00  1.
       23    2    3    3    0    0 -1.43674668452E+01 -2.45587226888E+01  6.50728242407E+02  6.55864922789E+02  7.68244525859E+01  0.00000000000E+00  1.
        3    1    4    4  804    0  1.34977860627E+01  1.47117580432E+01  1.46877435394E+02  1.48228226331E+02  3.30362473978E-06  0.00000000000E+00  1.
       -3    1    4    4    0  804  8.69680782486E-01  9.84696464560E+00  1.43345016266E+01  1.74125527789E+01  2.94425226098E-06  0.00000000000E+00  1.
        1    1    5    5  803    0 -2.56175791643E+01 -4.44208708309E+01  5.58685324282E+02  5.61033658355E+02  1.07895932188E-05  0.00000000000E+00  1.
       -1    1    5    5    0  803  1.12501123191E+01  1.98621481421E+01  9.20429181249E+01  9.48312646332E+01  6.60724947956E-06  0.00000000000E+00  1.
</event>
<event>
 9   0   7.9400620E-17   6.2499527E+01   7.8125000E-03   1.3828956E-01
       21   -1    0    0  501  502  0.00000000000E+00  0.00000000000E+00  8.16742236603E+02  8.16742236603E+02  0.00000000000E+00  0.00000000000E+00  1.
       21   -1    0    0  502  501  0.00000000000E+00  0.00000000000E+00 -4.78264831525E+00  4.78264831525E+00  0.00000000000E+00  0.00000000000E+00  1.
       25    2    1    2    0    0 -3.55271367880E-15 -3.55271367880E-15  8.11959588288E+02  8.21524884918E+02  1.24999054107E+02  0.00000000000E+00  1.
       23    2    3    3    0    0 -2.10247388338E+01  1.58364252819E+01  6.24624018428E+02  6.30906141246E+02  8.48207678321E+01  0.00000000000E+00  1.
       23    2    3    3    0    0  2.10247388338E+01 -1.58364252819E+01  1.87335569859E+02  1.90618743672E+02  2.34106321122E+01  0.00000000000E+00  1.
       13    1    4    4    0    0  1.13257740842E+01  1.65177538785E+01  5.39000100109E+02  5.39372068644E+02  1.05660000228E-01  0.00000000000E+00  1.
      -13    1    4    4    0    0 -3.23505129180E+01 -6.81328596617E-01  8.56239183195E+01  9.15340726022E+01  1.05660000322E-01  0.00000000000E+00  1.
       11    1    5    5    0    0  3.29931465146E+00 -1.55090932447E+01  1.17637439904E+02  1.18701241433E+02  5.10996817865E-04  0.00000000000E+00  1.
      -11    1    5    5    0    0  1.77254241823E+01 -3.27332037192E-01  6.96981299558E+01  7.19175022390E+01  5.10996817865E-04  0.00000000000E+00  1.
</event>
<event>
 9   0   2.2903993E-13   6.2499181E+01   7.8125000E-03   1.3828969E-01
       21   -1    0    0  501  502  0.00000000000E+00  0.00000000000E+00  7.99842645422E+02  7.99842645422E+02  0.00000000000E+00  0.00000000000E+00  1.
       21   -1    0    0  502  501  0.00000000000E+00  0.00000000000E+00 -4.88364514408E+00  4.88364514408E+00  0.00000000000E+00  0.00000000000E+00  1.
       25    2    1    2    0    0  1.77635683940E-15 -7.10542735760E-15  7.94959000278E+02  8.04726290566E+02  1.24998362411E+02  0.00000000000E+00  1.
       23    2    3    3    0    0 -1.57688833077E+01 -1.72487321638E+01  3.56180379471E+02  3.61591166330E+02  5.77713805066E+01  0.00000000000E+00  1.
       23    2    3    3    0    0  1.57688833077E+01  1.72487321638E+01  4.38778620807E+02  4.43135124236E+02  5.74097884739E+01  0.00000000000E+00  1.
        2    1    4    4  804    0  7.73522394836E+00 -1.61415034556E+00  2.83663726911E+02  2.83773764002E+02  5.39479660939E-06  0.00000000000E+00  1.
       -2    1    4    4    0  804 -2.35041072560E+01 -1.56345818183E+01  7.25166525602E+01  7.78174023280E+01  4.76837158203E-06  0.00000000000E+00  1.
        5    1    5    5  803    0 -5.44590060327E+00 -1.39774290767E+01  2.53615982111E+02  2.54103630905E+02  4.75000000000E+00  0.00000000000E+00  1.
       -5    1    5    5    0  803  2.12147839109E+01  3.12261612405E+01  1.85162638696E+02  1.89031493331E+02  4.75000000000E+00  0.00000000000E+00  1.
</event>
<event>
 9   0   9.4292666E-13   6.2499674E+01   7.8125000E-03   1.3828951E-01
       21   -1    0    0  501  502  0.00000000000E+00  0.00000000000E+00  7.03895282952E+02  7.03895282952E+02  0.00000000000E+00  0.00000000000E+00  1.
       21   -1    0    0  502  501  0.00000000000E+00  0.00000000000E+00 -5.54941805948E+00  5.54941805948E+00  0.00000000000E+00  0.00000000000E+00  1.
       25    2    1    2    0    0 -3.55271367880E-15  0.00000000000E+00  6.98345864892E+02  7.09444701011E+02  1.24999347121E+02  0.00000000000E+00  1.
       23    2    3    3    0    0  1.01317214513E+01 -2.11527079805E+01  3.15202860869E+02  3.21326828845E+02  5.78618924766E+01  0.00000000000E+00  1.
       23    2    3    3    0    0 -1.01317214513E+01  2.11527079805E+01  3.83143004023E+02  3.88117872166E+02  5.73309020385E+01  0.00000000000E+00  1.
        2    1    4    4  803    0  1.96479977469E+01 -4.12145246398E+00  2.82745201128E+02  2.83457014284E+02  0.00000000000E+00  0.00000000000E+00  1.
       -2    1    4    4    0  803 -9.51627629569E+00 -1.70312555165E+01  3.24576597408E+01  3.78698145606E+01  5.68217052832E-06  0.00000000000E+00  1.
        3    1    5    5  804    0 -2.08296847687E+01 -1.00134012668E+01  2.45507890298E+02  2.46593325480E+02  0.00000000000E+00  0.00000000000E+00  1.
       -3    1    5    5    0  804  1.06979633174E+01  3.11661092473E+01  1.37635113725E+02  1.41524546687E+02  0.00000000000E+00  0.00000000000E+00  1.
</event>
<event>
 9   0   1.1755764E-13   6.2499587E+01   7.8125000E-03   1.3828954E-01
       21   -1    0    0  501  502  0.00000000000E+00  0.00000000000E+00  8.16755633764E+02  8.16755633764E+02  0.00000000000E+00  0.00000000000E+00  1.
       21   -1    0    0  502  501  0.00000000000E+00  0.00000000000E+00 -4.78257909560E+00  4.78257909560E+00  0.00000000000E+00  0.00000000000E+00  1.
       25    2    1    2    0    0  3.55271367880E-15  1.77635683940E-15  8.11973054668E+02  8.21538212860E+02  1.24999174721E+02  0.00000000000E+00  1.
       23    2    3    3    0    0  1.93891921249E+01  3.53522170767E+00  6.12703194297E+02  6.19104503655E+02  8.65837373899E+01  0.00000000000E+00  1.
       23    2    3    3    0    0 -1.93891921249E+01 -3.53522170767E+00  1.99269860371E+02  2.02433709204E+02  2.97067468111E+01  0.00000000000E+00  1.
        4    1    4    4  804    0 -9.13229982282E+00 -1.33337134980E+01  5.26400884621E+02  5.26650456917E+02  1.27500000004E+00  0.00000000000E+00  1.
       -4    1    4    4    0  804  2.85214919477E+01  1.68689352056E+01  8.63023096760E+01  9.24540467385E+01  1.27500000002E+00  0.00000000000E+00  1.
       16    1    5    5    0    0 -1.76886405952E+01 -1.36233936996E+01  1.69299232010E+02  1.70765086658E+02  0.00000000000E+00  0.00000000000E+00  1.
      -16    1    5    5    0    0 -1.70055152975E+00  1.00881719919E+01  2.99706283610E+01  3.16686226466E+01  1.34869915235E-06  0.00000000000E+00  1.
</event>
<event>
 9   0   3.3758075E-19   6.2499528E+01   7.8125000E-03   1.3828956E-01
       21   -1    0    0  501  502  0.00000000000E+00  0.00000000000E+00  8.16712864845E+02  8.16712864845E+02  0.00000000000E+00  0.00000000000E+00  1.
       21   -1    0    0  502  501  0.00000000000E+00  0.00000000000E+00 -4.78282048705E+00  4.78282048705E+00  0.00000000000E+00  0.00000000000E+00  1.
       25    2    1    2    0    0  0.00000000000E+00  7.10542735760E-15  8.11930044358E+02  8.21495685332E+02  1.24999056349E+02  0.00000000000E+00  1.
       23    2    3    3    0    0  1.66542650443E+01  2.84547473086E+01  2.68191472831E+02  2.73741600905E+02  4.38264848975E+01  0.00000000000E+00  1.
       23    2    3    3    0    0 -1.66542650443E+01 -2.84547473086E+01  5.43738571528E+02  5.47754084427E+02  5.74096303006E+01  0.00000000000E+00  1.
        5    1    4    4  804    0  1.94077588622E+01  1.87997091126E+01  2.55110037324E+02  2.56580949819E+02  4.75000000000E+00  0.00000000000E+00  1.
       -5    1    4    4    0  804 -2.75349381797E+00  9.65503819604E+00  1.30814355067E+01  1.71606510858E+01  4.75000000000E+00  0.00000000000E+00  1.
        3    1    5    5  803    0 -3.11555899198E+01 -3.35004492194E+01  4.80721301672E+02  4.82893281025E+02  7.62939453125E-06  0.00000000000E+00  1.
       -3    1    5    5    0  803  1.45013248755E+01  5.04570191079E+00  6.30172698554E+01  6.48608036021E+01  7.92181383411E-06  0.00000000000E+00  1.
</event>
<event>
 9   0   2.5973678E-16   6.2499589E+01   7.8125000E-03   1.3828954E-01
       21   -1    0    0  501  502  0.00000000000E+00  0.00000000000E+00  8.21955793457E+02  8.21955793457E+02  0.00000000000E+00  0.00000000000E+00  1.
       21   -1    0    0  502  501  0.00000000000E+00  0.00000000000E+00 -4.75232199369E+00  4.75232199369E+00  0.00000000000E+00  0.00000000000E+00  1.
       25    2    1    2    0    0  7.10542735760E-15  1.77635683940E-15  8.17203471464E+02  8.26708115451E+02  1.24999177519E+02  0.00000000000E+00  1.
       23    2    3    3    0    0  1.83892572206E+01 -1.09615190414E+01  2.30984382591E+02  2.34986318133E+02  3.75028669305E+01  0.00000000000E+00  1.
       23    2    3    3    0    0 -1.83892572206E+01  1.09615190414E+01  5.86219088872E+02  5.91721797318E+02  7.76115041833E+01  0.00000000000E+00  1.
       16    1    4    4    0    0  1.89922812827E+01 -1.58740737448E+00  2.18666225640E+02  2.19495204709E+02  4.67203091199E-06  0.00000000000E+00  1.
      -16    1    4    4    0    0 -6.03024062064E-01 -9.37411166694E+00  1.23181569510E+01  1.54911136247E+01  3.80350497569E-06  0.00000000000E+00  1.
       15    1    5    5    0    0 -2.67481697582E+01 -2.44431344191E+01  4.19761076115E+02  4.21325823378E+02  1.77679999998E+00  0.00000000000E+00  1.
      -15    1    5    5    0    0  8.35891253757E+00  3.54046534605E+01  1.66458012757E+02  1.70395973940E+02  1.77679999999E+00  0.00000000000E+00  1.
</event>
<event>
 9   0   1.6692766E-18   6.2499527E+01   7.8125000E-03   1.3828956E-01
       21   -1    0    0  501  502  0.00000000000E+00  0.00000000000E+00  8.15750959131E+02  8.15750959131E+02  0.00000000000E+00  0.00000000000E+00  1.
       21   -1    0    0  502  501  0.00000000000E+00  0.00000000000E+00 -4.78846001806E+00  4.78846001806E+00  0.00000000000E+00  0.00000000000E+00  1.
       25    2    1    2    0    0  1.77635683940E-15 -3.55271367880E-15  8.10962499113E+02  8.20539419149E+02  1.24999053636E+02  0.00000000000E+00  1.
       23    2    3    3    0    0  1.14939095665E+01  2.04480790394E+01  3.65460106642E+02  3.70741259306E+02  5.77733321798E+01  0.00000000000E+00  1.
       23    2    3    3    0    0 -1.14939095665E+01 -2.04480790394E+01  4.45502392471E+02  4.49798159843E+02  5.74087885933E+01  0.00000000000E+00  1.
       15    1    4    4    0    0 -1.92557865082E-01  2.51704690593E+01  3.49107825283E+02  3.50018599910E+02  1.77680000000E+00  0.00000000000E+00  1.
      -15    1    4    4    0    0  1.16864674315E+01 -4.72239001988E+00  1.63522813598E+01  2.07226593959E+01  1.77679999999E+00  0.00000000000E+00  1.
        4    1    5    5  803    0 -1.96729820359E+01 -3.46002784760E+01  3.86946534335E+02  3.88990297503E+02  1.27499999999E+00  0.00000000000E+00  1.
       -4    1    5    5    0  803  8.17907246945E+00  1.41521994366E+01  5.85558581360E+01  6.08078623403E+01  1.27500000001E+00  0.00000000000E+00  1.
</event>
<event>
 9   0   5.5041795E-14   6.2499527E+01   7.8125000E-03   1.3828956E-01
       21   -1    0    0  501  502  0.00000000000E+00  0.00000000000E+00  8.16726629096E+02  8.16726629096E+02  0.00000000000E+00  0.00000000000E+00  1.
       21   -1    0    0  502  501  0.00000000000E+00  0.00000000000E+00 -4.78273965278E+00  4.78273965278E+00  0.00000000000E+00  0.00000000000E+00  1.
       25    2    1    2    0    0 -3.55271367880E-15  0.00000000000E+00  8.11943889443E+02  8.21509368749E+02  1.24999053348E+02  0.00000000000E+00  1.
       23    2    3    3    0    0 -1.48389202006E+01  2.15861683939E+01  6.59930633532E+02  6.65389640806E+02  8.09245129739E+01  0.00000000000E+00  1.
       23    2    3    3    0    0  1.48389202006E+01 -2.15861683939E+01  1.52013255912E+02  1.56119727943E+02  2.40662265714E+01  0.00000000000E+00  1.
        4    1    4    4  804    0  1.28316457855E+01  1.98227059109E+01  5.85092754217E+02  5.85570446202E+02  1.27499999997E+00  0.00000000000E+00  1.
       -4    1    4    4    0  804 -2.76705659860E+01  1.76346248292E+00  7.48378793145E+01  7.98191946038E+01  1.27499999999E+00  0.00000000000E+00  1.
        3    1    5    5  803    0  2.44820115878E+00 -2.07152291300E+01  1.19649284550E+02  1.21453965354E+02  2.69739830470E-06  0.00000000000E+00  1.
       -3    1    5    5    0  803  1.23907190418E+01 -8.70939263827E-01  3.23639713618E+01  3.46657625891E+01  1.78416127528E-06  0.00000000000E+00  1.
</event>
<event>
 9   0   1.9591628E-20   6.2499586E+01   7.8125000E-03   1.3828954E-01
       21   -1    0    0  501  502  0.00000000000E+00  0.00000000000E+00  8.16720546868E+02  8.16720546868E+02  0.00000000000E+00  0.00000000000E+00  1.
       21   -1    0    0  502  501  0.00000000000E+00  0.00000000000E+00 -4.78278431217E+00  4.78278431217E+00  0.00000000000E+00  0.00000000000E+00  1.
       25    2    1    2    0    0 -3.55271367880E-15 -7.10542735760E-15  8.11937762556E+02  8.21503331180E+02  1.24999171501E+02  0.00000000000E+00  1.
       23    2    3    3    0    0  1.15167940078E+01  1.96782664328E+01  2.61399413262E+02  2.65542721624E+02  4.07849609550E+01  0.00000000000E+00  1.
       23    2    3    3    0    0 -1.15167940078E+01 -1.96782664328E+01  5.50538349294E+02  5.55960609556E+02  7.40260401489E+01  0.00000000000E+00  1.
       12    1    4    4    0    0  1.64503813182E+01  1.45801924365E+01  2.55129614725E+02  2.56074827771E+02  6.03156597170E-06  0.00000000000E+00  1.
      -12    1    4    4    0    0 -4.93358731036E+00  5.09807399629E+00  6.26979853650E+00  9.46789395319E+00  1.21277510818E-06  0.00000000000E+00  1.
       14    1    5    5    0    0 -2.31156330626E+01 -4.01108254017E+01  4.63520994476E+02  4.65827138675E+02  7.62939453125E-06  0.00000000000E+00  1.
      -14    1    5    5    0    0  1.15988390548E+01  2.04325589689E+01  8.70173548176E+01  9.01334708800E+01  3.69356474515E-06  0.00000000000E+00  1.
</event>
<event>
 9   0   2.3562103E-08   6.2499527E+01   7.8125000E-03   1.3828956E-01
       21   -1    0    0  501  502  0.00000000000E+00  0.00000000000E+00  3.47930296782E+03  3.47930296782E+03  0.00000000000E+00  0.00000000000E+00  1.
       21   -1    0    0  502  501  0.00000000000E+00  0.00000000000E+00 -1.12269350537E+00  1.12269350537E+00  0.00000000000E+00  0.00000000000E+00  1.
       25    2    1    2    0    0 -3.55271367880E-15 -1.77635683940E-15  3.47818027432E+03  3.48042566133E+03  1.24999053520E+02  0.00000000000E+00  1.
       23    2    3    3    0    0  3.05134945048E+01  1.39709205950E+01  2.54205758743E+03  2.54328343572E+03  7.14674517969E+01  0.00000000000E+00  1.
       23    2    3    3    0    0 -3.05134945048E+01 -1.39709205950E+01  9.36122686893E+02  9.37142225606E+02  2.79929657105E+01  0.00000000000E+00  1.
        4    1    4    4  803    0  1.30162119476E+01 -9.45795952358E+00  2.17526750046E+03  2.17532737742E+03  1.27500000013E+00  0.00000000000E+00  1.
       -4    1    4    4    0  803  1.74972825572E+01  2.34288801186E+01  3.66790086961E+02  3.67956058298E+02  1.27499999982E+00  0.00000000000E+00  1.
        4    1    5    5  804    0 -1.45714590971E+01 -1.83938327666E+01  7.20022505622E+02  7.20405923582E+02  1.27499999993E+00  0.00000000000E+00  1.
       -4    1    5    5    0  804 -1.59420354077E+01  4.42291217156E+00  2.16100181271E+02  2.16736302024E+02  1.27500000000E+00  0.00000000000E+00  1.
</event>
<event>
 9   0   7.5521158E-20   6.2499588E+01   7.8125000E-03   1.3828954E-01
       21   -1    0    0  501  502  0.00000000000E+00  0.00000000000E+00  8.16739392179E+02  8.16739392179E+02  0.00000000000E+00  0.00000000000E+00  1.
       21   -1    0    0  502  501  0.00000000000E+00  0.00000000000E+00 -4.78267424791E+00  4.78267424791E+00  0.00000000000E+00  0.00000000000E+00  1.
       25    2    1    2    0    0 -3.55271367880E-15 -1.77635683940E-15  8.11956717931E+02  8.21522066427E+02  1.24999175329E+02  0.00000000000E+00  1.
       23    2    3    3    0    0  2.26322514740E+01  4.28806580271E+00  3.56650388590E+02  3.62033005110E+02  5.77736167486E+01  0.00000000000E+00  1.
       23    2    3    3    0    0 -2.26322514740E+01 -4.28806580271E+00  4.55306329341E+02  4.59489061317E+02  5.74085151964E+01  0.00000000000E+00  1.
        4    1    4    4  803    0  2.66761396426E+01  8.16202206584E+00  3.54944900149E+02  3.56041771141E+02  1.27499999998E+00  0.00000000000E+00  1.
       -4    1    4    4    0  803 -4.04388816861E+00 -3.87395626312E+00  1.70548844146E+00  5.99123396912E+00  1.27499999998E+00  0.00000000000E+00  1.
       14    1    5    5    0    0 -2.92882102780E+01 -2.26410790808E+01  3.75882947862E+02  3.77701480294E+02  5.39479660939E-06  0.00000000000E+00  1.
      -14    1    5    5    0    0  6.65595880399E+00  1.83530132780E+01  7.94233814796E+01  8.17875810232E+01  4.15696997027E-06  0.00000000000E+00  1.
</event>
<event>
 9   0   4.3791740E-07   6.2499528E+01   7.8125000E-03   1.3828956E-01
       21   -1    0    0  501  502  0.00000000000E+00  0.00000000000E+00  7.65297156803E+02  7.65297156803E+02  0.00000000000E+00  0.00000000000E+00  1.
       21   -1    0    0  502  501  0.00000000000E+00  0.00000000000E+00 -5.10414941338E+00  5.10414941338E+00  0.00000000000E+00  0.00000000000E+00  1.
       25    2    1    2    0    0  3.55271367880E-15  3.55271367880E-15  7.60193007390E+02  7.70401306216E+02  1.24999056540E+02  0.00000000000E+00  1.
       23    2    3    3    0    0  2.02694373035E+01  2.22188209338E+01  5.72778973804E+02  5.78974252177E+02  7.89360865510E+01  0.00000000000E+00  1.
       23    2    3    3    0    0 -2.02694373035E+01 -2.22188209338E+01  1.87414033586E+02  1.91427054040E+02  2.48147323374E+01  0.00000000000E+00  1.
        4    1    4    4  804    0  3.16899395296E+01  2.08638153655E+01  5.61611614508E+02  5.62893224541E+02  1.27500000004E+00  0.00000000000E+00  1.
       -4    1    4    4    0  804 -1.14205022261E+01  1.35500556830E+00  1.11673592958E+01  1.60810276360E+01  1.27500000006E+00  0.00000000000E+00  1.
        1    1    5    5  803    0 -2.35471098114E+01 -1.89291634867E+01  1.81024022961E+02  1.83527863106E+02  2.69739830470E-06  0.00000000000E+00  1.
       -1    1    5    5    0  803  3.27767250787E+00 -3.28965744710E+00  6.39001062543E+00  7.89919113334E+00  3.06254209963E-06  0.00000000000E+00  1.
</event>
<event>
 9   0   2.0196558E-13   6.2497564E+01   7.8125000E-03   1.3829030E-01
       21   -1    0    0  501  502  0.00000000000E+00  0.00000000000E+00  8.16748791786E+02  8.16748791786E+02  0.00000000000E+00  0.00000000000E+00  1.
       21   -1    0    0  502  501  0.00000000000E+00  0.00000000000E+00 -4.78230946292E+00  4.78230946292E+00  0.00000000000E+00  0.00000000000E+00  1.
       25    2    1    2    0    0  5.32907051820E-15  7.10542735760E-15  8.11966482323E+02  8.21531101249E+02  1.24995127518E+02  0.00000000000E+00  1.
       23    2    3    3    0    0  1.57926334000E+01 -9.53245659593E+00  1.76620929097E+02  1.79965170627E+02  2.91930650154E+01  0.00000000000E+00  1.
       23    2    3    3    0    0 -1.57926334000E+01  9.53245659593E+00  6.35345553225E+02  6.41565930622E+02  8.71928685909E+01  0.00000000000E+00  1.
        5    1    4    4  803    0  1.50545449267E+01 -1.84640068981E+00  1.61889588402E+02  1.62667912790E+02  4.75000000000E+00  0.00000000000E+00  1.
       -5    1    4    4    0  803  7.38088473290E-01 -7.68605590611E+00  1.47313406953E+01  1.72972578366E+01  4.75000000000E+00  0.00000000000E+00  1.
        3    1    5    5  804    0 -3.78322514619E+01  3.13626008389E+01  5.13022841183E+02  5.15371058129E+02  0.00000000000E+00  0.00000000000E+00  1.
       -3    1    5    5    0  804  2.20396180620E+01 -2.18301442429E+01  1.22322712042E+02  1.26194872593E+02  6.60724947956E-06  0.00000000000E+00  1.
</event>
<event>
 9   0   2.7206132E-04   6.2499558E+01   7.8125000E-03   1.3828955E-01
       21   -1    0    0  501  502  0.00000000000E+00  0.00000000000E+00  1.09469968378E+02  1.09469968378E+02  0.00000000000E+00  0.00000000000E+00  1.
       21   -1    0    0  502  501  0.00000000000E+00  0.00000000000E+00 -3.56827983352E+01  3.56827983352E+01  0.00000000000E+00  0.00000000000E+00  1.
       25    2    1    2    0    0 -3.55271367880E-15 -8.88178419700E-16  7.37871700432E+01  1.45152766714E+02  1.24999116884E+02  0.00000000000E+00  1.
       23    2    3    3    0    0  5.79369691317E+00 -5.35185252581E+00  3.68438629811E+01  7.64294342092E+01  6.64964579867E+01  0.00000000000E+00  1.
       23    2    3    3    0    0 -5.79369691317E+00  5.35185252581E+00  3.69433070621E+01  6.87233325045E+01  5.74097486884E+01  0.00000000000E+00  1.
        2    1    4    4  803    0  1.95902638549E+01  4.03366747379E+00  5.08511361970E+01  5.46432700680E+01  0.00000000000E+00  0.00000000000E+00  1.
       -2    1    4    4    0  803 -1.37965669417E+01 -9.38551999960E+00 -1.40072732160E+01  2.17861642412E+01  0.00000000000E+00  0.00000000000E+00  1.
       12    1    5    5    0    0 -1.56304802798E+01 -1.94807596251E+01  3.35095748354E+01  4.17935822226E+01  1.06624029994E-06  0.00000000000E+00  1.
      -12    1    5    5    0    0  9.83678336666E+00  2.48326121510E+01  3.43373222676E+00  2.69297502819E+01  0.00000000000E+00  0.00000000000E+00  1.
</event>
<event>
 9   0   7.9897950E-15   6.2497536E+01   7.8125000E-03   1.3829031E-01
       21   -1    0    0  501  502  0.00000000000E+00  0.00000000000E+00  8.16734170698E+02  8.16734170698E+02  0.00000000000E+00  0.00000000000E+00  1.
       21   -1    0    0  502  501  0.00000000000E+00  0.00000000000E+00 -4.78239087014E+00  4.78239087014E+00  0.00000000000E+00  0.00000000000E+00  1.
       25    2    1    2    0    0  0.00000000000E+00  0.00000000000E+00  8.11951779828E+02  8.21516561568E+02  1.24995072563E+02  0.00000000000E+00  1.
       23    2    3    3    0    0 -1.84743810868E+01  2.46388518828E+01  5.58147312593E+02  5.61933290959E+02  5.73779152136E+01  0.00000000000E+00  1.
       23    2    3    3    0    0  1.84743810868E+01 -2.46388518828E+01  2.53804467235E+02  2.59583270610E+02  4.49265068003E+01  0.00000000000E+00  1.
       16    1    4    4    0    0  4.67589807136E+00  1.92413730975E+01  4.76105402805E+02  4.76516997642E+02  0.00000000000E+00  0.00000000000E+00  1.
      -16    1    4    4    0    0 -2.31502791582E+01  5.39747878532E+00  8.20419097880E+01  8.54162933169E+01  3.69356474515E-06  0.00000000000E+00  1.
        2    1    5    5  803    0 -2.22773917771E-01 -2.91551007118E+01  2.06018175212E+02  2.08071040857E+02  4.67203091199E-06  0.00000000000E+00  1.
       -2    1    5    5    0  803  1.86971550046E+01  4.51624882899E+00  4.77862920232E+01  5.15122298525E+01  3.09025797768E-06  0.00000000000E+00  1.
</event>
<event>
 9   0   9.8328636E-19   6.2499585E+01   7.8125000E-03   1.3828954E-01
       21   -1    0    0  501  502  0.00000000000E+00  0.00000000000E+00  8.15608811566E+02  8.15608811566E+02  0.00000000000E+00  0.00000000000E+00  1.
       21   -1    0    0  502  501  0.00000000000E+00  0.00000000000E+00 -4.78930347787E+00  4.78930347787E+00  0.00000000000E+00  0.00000000000E+00  1.
       25    2    1    2    0    0  4.44089209850E-15  0.00000000000E+00  8.10819508088E+02  8.20398115044E+02  1.24999169882E+02  0.00000000000E+00  1.
       23    2    3    3    0    0 -6.41460226777E+00 -1.82157363077E+01  1.93147184929E+02  1.96225204847E+02  2.87321387970E+01  0.00000000000E+00  1.
       23    2    3    3    0    0  6.41460226777E+00  1.82157363077E+01  6.17672323160E+02  6.24172910197E+02  8.77482926050E+01  0.00000000000E+00  1.
        3    1    4    4  804    0  4.72606707297E+00 -4.54784203146E+00  1.41479954379E+02  1.41631903427E+02  0.00000000000E+00  0.00000000000E+00  1.
       -3    1    4    4    0  804 -1.11406693407E+01 -1.36678942763E+01  5.16672305495E+01  5.45933014203E+01  1.65181236989E-06  0.00000000000E+00  1.
       14    1    5    5    0    0 -2.13955769629E+01 -2.20664008095E+01  3.94497192814E+02  3.95692724188E+02  5.39479660939E-06  0.00000000000E+00  1.
      -14    1    5    5    0    0  2.78101792306E+01  4.02821371172E+01  2.23175130346E+02  2.28480186209E+02  6.60724947956E-06  0.00000000000E+00  1.
</event>
<event>
 9   0   2.3790642E-19   6.2499528E+01   7.8125000E-03   1.3828956E-01
       21   -1    0    0  501  502  0.00000000000E+00  0.00000000000E+00  8.16730828933E+02  8.16730828933E+02  0.00000000000E+00  0.00000000000E+00  1.
       21   -1    0    0  502  501  0.00000000000E+00  0.00000000000E+00 -4.78271528004E+00  4.78271528004E+00  0.00000000000E+00  0.00000000000E+00  1.
       25    2    1    2    0    0  3.55271367880E-15  7.10542735760E-15  8.11948113653E+02  8.21513544213E+02  1.24999056240E+02  0.00000000000E+00  1.
       23    2    3    3    0    0 -1.78624987586E+01  1.02880892655E+01  4.83926018639E+02  4.87755144864E+02  5.74088510888E+01  0.00000000000E+00  1.
       23    2    3    3    0    0  1.78624987586E+01 -1.02880892655E+01  3.28022095014E+02  3.33758399349E+02  5.80625582947E+01  0.00000000000E+00  1.
        1    1    4    4  804    0  5.54848418440E+00  1.11514360221E+01  4.10361719705E+02  4.10550704887E+02  5.39479660939E-06  0.00000000000E+00  1.
       -1    1    4    4    0  804 -2.34109829430E+01 -8.63346756565E-01  7.35642989338E+01  7.72044401770E+01  0.00000000000E+00  0.00000000000E+00  1.
        2    1    5    5  803    0 -4.50154752355E+00 -2.73875568665E+01  2.33187723742E+02  2.34833678914E+02  2.69739830470E-06  0.00000000000E+00  1.
       -2    1    5    5    0  803  2.23640462822E+01  1.70994676009E+01  9.48343712721E+01  9.89247205350E+01  2.33601545599E-06  0.00000000000E+00  1.
</event>
<event>
 9   0   2.8605384E-16   6.2499527E+01   7.8125000E-03   1.3828956E-01
       21   -1    0    0  501  502  0.00000000000E+00  0.00000000000E+00  8.16736884174E+02  8.16736884174E+02  0.00000000000E+00  0.00000000000E+00  1.
       21   -1    0    0  502  501  0.00000000000E+00  0.00000000000E+00 -4.78267968199E+00  4.78267968199E+00  0.00000000000E+00  0.00000000000E+00  1.
       25    2    1    2    0    0 -3.55271367880E-15  0.00000000000E+00  8.11954204492E+02  8.21519563856E+02  1.24999054420E+02  0.00000000000E+00  1.
       23    2    3    3    0    0  6.57557563073E+00 -4.21579814644E+00  5.15567473244E+01  5.59919088314E+01  2.03956983462E+01  0.00000000000E+00  1.
       23    2    3    3    0    0 -6.57557563073E+00  4.21579814644E+00  7.60397457168E+02  7.65527655024E+02  8.81322108626E+01  0.00000000000E+00  1.
       12    1    4    4    0    0  7.49645492610E+00  7.24846245714E-01  5.02334254280E+01  5.07948744340E+01  0.00000000000E+00  0.00000000000E+00  1.
      -12    1    4    4    0    0 -9.20879295365E-01 -4.94064439215E+00  1.32332189640E+00  5.19703439741E+00  0.00000000000E+00  0.00000000000E+00  1.
        2    1    5    5  803    0 -2.32037594223E+01 -3.19190294748E+01  5.49274407325E+02  5.50690124794E+02  7.62939453125E-06  0.00000000000E+00  1.
       -2    1    5    5    0  803  1.66281837915E+01  3.61348276212E+01  2.11123049843E+02  2.14837530330E+02  0.00000000000E+00  0.00000000000E+00  1.
</event>
<event>
 9   0   6.3596258E-21   6.2499587E+01   7.8125000E-03   1.3828954E-01
       21   -1    0    0  501  502  0.00000000000E+00  0.00000000000E+00  8.16734246496E+02  8.16734246496E+02  0.00000000000E+00  0.00000000000E+00  1.
       21   -1    0    0  502  501  0.00000000000E+00  0.00000000000E+00 -4.78270428241E+00  4.78270428241E+00  0.00000000000E+00  0.00000000000E+00  1.
       25    2    1    2    0    0  0.00000000000E+00 -7.10542735760E-15  8.11951542214E+02  8.21516950778E+02  1.24999174050E+02  0.00000000000E+00  1.
       23    2    3    3    0    0  1.56427920648E+01 -1.43168344064E+01  2.24445741274E+02  2.27954410333E+02  3.37291227727E+01  0.00000000000E+00  1.
       23    2    3    3    0    0 -1.56427920648E+01  1.43168344064E+01  5.87505800939E+02  5.93562540446E+02  8.18764593268E+01  0.00000000000E+00  1.
        2    1    4    4  803    0  1.65063715007E+01 -3.74410034797E+00  2.05858547168E+02  2.06553189348E+02  3.81469726562E-06  0.00000000000E+00  1.
       -2    1    4    4    0  803 -8.63579435909E-01 -1.05727340585E+01  1.85871941060E+01  2.14012210850E+01  2.32381685848E-06  0.00000000000E+00  1.
        4    1    5    5  804    0 -3.07731431236E+01 -2.13750955116E+01  4.17891167994E+02  4.19569463806E+02  1.27499999998E+00  0.00000000000E+00  1.
       -4    1    5    5    0  804  1.51303510588E+01  3.56919299180E+01  1.69614632945E+02  1.73993076640E+02  1.27499999998E+00  0.00000000000E+00  1.
</event>
<event>
 9   0   5.6405761E-05   6.2499527E+01   7.8125000E-03   1.3828956E-01
       21   -1    0    0  501  502  0.00000000000E+00  0.00000000000E+00  8.16745349754E+02  8.16745349754E+02  0.00000000000E+00  0.00000000000E+00  1.
       21   -1    0    0  502  501  0.00000000000E+00  0.00000000000E+00 -4.78263012334E+00  4.78263012334E+00  0.00000000000E+00  0.00000000000E+00  1.
       25    2    1    2    0    0  0.00000000000E+00 -3.55271367880E-15  8.11962719631E+02  8.21527979878E+02  1.24999054602E+02  0.00000000000E+00  1.
       23    2    3    3    0    0 -1.24717266392E+01 -8.69448310191E+00  8.03889363436E+01  8.46355434481E+01  2.16715510873E+01  0.00000000000E+00  1.
       23    2    3    3    0    0  1.24717266392E+01  8.69448310191E+00  7.31573783287E+02  7.36892436430E+02  8.70581671753E+01  0.00000000000E+00  1.
        2    1    4    4  803    0 -7.16770094112E+00  2.14207075701E+00  6.31642922783E+01  6.36057562091E+01  0.00000000000E+00  0.00000000000E+00  1.
       -2    1    4    4    0  803 -5.30402569806E+00 -1.08365538589E+01  1.72246440653E+01  2.10297873391E+01  0.00000000000E+00  0.00000000000E+00  1.
        3    1    5    5  804    0 -1.83519521929E+01 -2.60496585506E+01  4.80728027260E+02  4.81782954299E+02  0.00000000000E+00  0.00000000000E+00  1.
       -3    1    5    5    0  804  3.08236788320E+01  3.47441416526E+01  2.50845756027E+02  2.55109482230E+02  7.13664510112E-06  0.00000000000E+00  1.
</event>
<event>
 9   0   5.9110168E-19   6.2497543E+01   7.8125000E-03   1.3829030E-01
       21   -1    0    0  501  502  0.00000000000E+00  0.00000000000E+00  8.14595700068E+02  8.14595700068E+02  0.00000000000E+00  0.00000000000E+00  1.
       21   -1    0    0  502  501  0.00000000000E+00  0.00000000000E+00 -4.79494665302E+00  4.79494665302E+00  0.00000000000E+00  0.00000000000E+00  1.
       25    2    1    2    0    0 -7.10542735760E-15  0.00000000000E+00  8.09800753415E+02  8.19390646721E+02  1.24995086713E+02  0.00000000000E+00  1.
       23    2    3    3    0    0  1.64696329666E+01 -9.58685588958E+00  1.90269572541E+02  1.94238345780E+02  3.41008521998E+01  0.00000000000E+00  1.
       23    2    3    3    0    0 -1.64696329666E+01  9.58685588958E+00  6.19531180874E+02  6.25152300941E+02  8.14454337582E+01  0.00000000000E+00  1.
        2    1    4    4  803    0  1.66663172710E+01 -1.12475464188E+00  1.80667686513E+02  1.81438265508E+02  2.69739830470E-06  0.00000000000E+00  1.
       -2    1    4    4    0  803 -1.96684304354E-01 -8.46210124770E+00  9.60188602742E+00  1.28000804718E+01  0.00000000000E+00  0.00000000000E+00  1.
       13    1    5    5    0    0 -2.65643024613E+01 -2.67079587464E+01  4.45528763887E+02  4.47118404721E+02  1.05659999401E-01  0.00000000000E+00  1.
      -13    1    5    5    0    0  1.00946694947E+01  3.62948146360E+01  1.74002416988E+02  1.78033896220E+02  1.05660000004E-01  0.00000000000E+00  1.
</event>
<event>
 9   0   5.2574024E-17   6.2499528E+01   7.8125000E-03   1.3828956E-01
       21   -1    0    0  501  502  0.00000000000E+00  0.00000000000E+00  8.16749108172E+02  8.16749108172E+02  0.00000000000E+00  0.00000000000E+00  1.
       21   -1    0    0  502  501  0.00000000000E+00  0.00000000000E+00 -4.78260820410E+00  4.78260820410E+00  0.00000000000E+00  0.00000000000E+00  1.
       25    2    1    2    0    0  3.55271367880E-15  0.00000000000E+00  8.11966499968E+02  8.21531716376E+02  1.24999055763E+02  0.00000000000E+00  1.
       23    2    3    3    0    0  1.23246974635E+01 -1.76268014009E+01  2.29979643204E+02  2.33868200438E+02  3.66209856856E+01  0.00000000000E+00  1.
       23    2    3    3    0    0 -1.23246974635E+01  1.76268014009E+01  5.81986856764E+02  5.87663515939E+02  7.85945559427E+01  0.00000000000E+00  1.
        4    1    4    4  804    0  1.52401889631E+01 -4.66754310955E+00  2.04332984290E+02  2.04957662487E+02  1.27500000000E+00  0.00000000000E+00  1.
       -4    1    4    4    0  804 -2.91549149967E+00 -1.29592582914E+01  2.56466589136E+01  2.89105379504E+01  1.27500000000E+00  0.00000000000E+00  1.
       14    1    5    5    0    0 -4.03185108999E+01 -4.28497304909E-01  4.38995556744E+02  4.40843356276E+02  0.00000000000E+00  0.00000000000E+00  1.
      -14    1    5    5    0    0  2.79938134365E+01  1.80552987058E+01  1.42991300020E+02  1.46820159763E+02  3.30362473978E-06  0.00000000000E+00  1.
</event>
<event>
 9   0   2.6636940E-08   6.2499527E+01   7.8125000E-03   1.3828956E-01
       21   -1    0    0  501  502  0.00000000000E+00  0.00000000000E+00  1.56750509943E+02  1.56750509943E+02  0.00000000000E+00  0.00000000000E+00  1.
       21   -1    0    0  502  501  0.00000000000E+00  0.00000000000E+00 -2.49197967363E+01  2.49197967363E+01  0.00000000000E+00  0.00000000000E+00  1.
       25    2    1    2    0    0  0.00000000000E+00  8.88178419700E-15  1.31830713207E+02  1.81670306680E+02  1.24999053534E+02  0.00000000000E+00  1.
       23    2    3    3    0    0 -2.42956887640E+01 -8.67831338994E+00  2.42563017029E+01  4.03949994519E+01  1.94369285794E+01  0.00000000000E+00  1.
       23    2    3    3    0    0  2.42956887640E+01  8.67831338994E+00  1.07574411504E+02  1.41275307228E+02  8.78684517107E+01  0.00000000000E+00  1.
        1    1    4    4  803    0 -2.33445126713E+00 -6.04482532322E-01  1.50639582822E+01  1.52557498678E+01  0.00000000000E+00  0.00000000000E+00  1.
       -1    1    4    4    0  803 -2.19612374969E+01 -8.07383085762E+00  9.19234342073E+00  2.51392496841E+01  0.00000000000E+00  0.00000000000E+00  1.
        1    1    5    5  804    0 -8.38848198890E+00 -3.01129783185E+01  7.43070112395E+01  8.06144528769E+01  0.00000000000E+00  0.00000000000E+00  1.
       -1    1    5    5    0  804  3.26841707529E+01  3.87912917084E+01  3.32674002645E+01  6.06608543508E+01  1.16800772800E-06  0.00000000000E+00  1.
</event>
<event>
 9   0   6.9033983E-12   6.2497550E+01   7.8125000E-03   1.3829030E-01
       21   -1    0    0  501  502  0.00000000000E+00  0.00000000000E+00  6.90255068286E+02  6.90255068286E+02  0.00000000000E+00  0.00000000000E+00  1.
       21   -1    0    0  502  501  0.00000000000E+00  0.00000000000E+00 -5.65869621763E+00  5.65869621763E+00  0.00000000000E+00  0.00000000000E+00  1.
       25    2    1    2    0    0 -1.77635683940E-15  0.00000000000E+00  6.84596372068E+02  6.95913764503E+02  1.24995099810E+02  0.00000000000E+00  1.
       23    2    3    3    0    0  1.13501227928E+01  1.94846420726E+01  2.79140063831E+02  2.85520836461E+02  5.56281965733E+01  0.00000000000E+00  1.
       23    2    3    3    0    0 -1.13501227928E+01 -1.94846420726E+01  4.05456308238E+02  4.10392928042E+02  5.93216733866E+01  0.00000000000E+00  1.
        2    1    4    4  803    0 -4.89831932695E+00  2.10783847563E+01  2.57525815287E+02  2.58433429292E+02  3.81469726562E-06  0.00000000000E+00  1.
       -2    1    4    4    0  803  1.62484421198E+01 -1.59374268366E+00  2.16142485433E+01  2.70874071692E+01  3.88848934896E-06  0.00000000000E+00  1.
       16    1    5    5    0    0 -2.00494964032E+01 -3.46748565672E+01  3.48846829371E+02  3.51138773630E+02  3.81469726562E-06  0.00000000000E+00  1.
      -16    1    5    5    0    0  8.69937361040E+00  1.51902144946E+01  5.66094788662E+01  5.92541544122E+01  1.78416127528E-06  0.00000000000E+00  1.
</event>
<event>
 9   0   1.6996588E-18   6.2499527E+01   7.8125000E-03   1.3828956E-01
       21   -1    0    0  501  502  0.00000000000E+00  0.00000000000E+00  8.16721270252E+02  8.16721270252E+02  0.00000000000E+00  0.00000000000E+00  1.
       21   -1    0    0  502  501  0.00000000000E+00  0.00000000000E+00 -4.78277111429E+00  4.78277111429E+00  0.00000000000E+00  0.00000000000E+00  1.
       25    2    1    2    0    0 -3.55271367880E-15  0.00000000000E+00  8.11938499137E+02  8.21504041366E+02  1.24999054393E+02  0.00000000000E+00  1.
       23    2    3    3    0    0 -8.96166014280E+00 -1.90386059367E+01  2.46653508241E+02  2.51451754206E+02  4.41276749616E+01  0.00000000000E+00  1.
       23    2    3    3    0    0  8.96166014280E+00  1.90386059367E+01  5.65284990897E+02  5.70052287160E+02  7.04961651031E+01  0.00000000000E+00  1.
        1    1    4    4  803    0  7.68860176441E+00 -3.03475822610E+00  1.91237166587E+02  1.91415721082E+02  2.69739830470E-06  0.00000000000E+00  1.
       -1    1    4    4    0  803 -1.66502619072E+01 -1.60038477106E+01  5.54163416536E+01  6.00360333250E+01  1.90734863281E-06  0.00000000000E+00  1.
       14    1    5    5    0    0 -1.16362199238E+01 -1.87066802951E+01  3.39188982219E+02  3.39903673456E+02  6.60724947956E-06  0.00000000000E+00  1.
      -14    1    5    5    0    0  2.05978800666E+01  3.77452862318E+01  2.26096008677E+02  2.30148613904E+02  6.60724947956E-06  0.00000000000E+00  1.
</event>
<event>
 9   0   4.3012823E-18   6.2499527E+01   7.8125000E-03   1.3828956E-01
       21   -1    0    0  501  502  0.00000000000E+00  0.00000000000E+00  8.14806516234E+02  8.14806516234E+02  0.00000000000E+00  0.00000000000E+00  1.
       21   -1    0    0  502  501  0.00000000000E+00  0.00000000000E+00 -4.79401032942E+00  4.79401032942E+00  0.00000000000E+00  0.00000000000E+00  1.
       25    2    1    2    0    0 -3.55271367880E-15  0.00000000000E+00  8.10012505905E+02  8.19600526564E+02  1.24999053681E+02  0.00000000000E+00  1.
       23    2    3    3    0    0  3.02794943287E+00 -1.88699941418E+01  1.91885220251E+02  1.95897536320E+02  3.45059680202E+01  0.00000000000E+00  1.
       23    2    3    3    0    0 -3.02794943287E+00  1.88699941418E+01  6.18127285654E+02  6.23702990243E+02  8.09866261289E+01  0.00000000000E+00  1.
        2    1    4    4  803    0  1.01219027616E+01 -4.43932453515E+00  1.58046733109E+02  1.58432731354E+02  1.90734863281E-06  0.00000000000E+00  1.
       -2    1    4    4    0  803 -7.09395332868E+00 -1.44306696066E+01  3.38384871416E+01  3.74648049663E+01  1.34869915235E-06  0.00000000000E+00  1.
        4    1    5    5  804    0 -1.91691289087E+01 -2.26269163774E+01  3.98510778462E+02  3.99614688197E+02  1.27499999997E+00  0.00000000000E+00  1.
       -4    1    5    5    0  804  1.61411794758E+01  4.14969105192E+01  2.19616507192E+02  2.24088302046E+02  1.27499999997E+00  0.00000000000E+00  1.
</event>
<event>
 9   0   3.8509571E-19   6.2499527E+01   7.8125000E-03   1.3828956E-01
       21   -1    0    0  501  502  0.00000000000E+00  0.00000000000E+00  8.16721049957E+02  8.16721049957E+02  0.00000000000E+00  0.00000000000E+00  1.
       21   -1    0    0  502  501  0.00000000000E+00  0.00000000000E+00 -4.78277238070E+00  4.78277238070E+00  0.00000000000E+00  0.00000000000E+00  1.
       25    2    1    2    0    0  3.55271367880E-15  3.55271367880E-15  8.11938277576E+02  8.21503822338E+02  1.24999054084E+02  0.00000000000E+00  1.
       23    2    3    3    0    0  1.00770030340E+01  1.67993256914E+01  1.98788345220E+02  2.02776293396E+02  3.48949227553E+01  0.00000000000E+00  1.
       23    2    3    3    0    0 -1.00770030340E+01 -1.67993256914E+01  6.13149932356E+02  6.18727528942E+02  8.05428593266E+01  0.00000000000E+00  1.
        4    1    4    4  803    0  1.41036675842E+01  1.20118827028E+01  1.93764742860E+02  1.94652510814E+02  1.27500000001E+00  0.00000000000E+00  1.
       -4    1    4    4    0  803 -4.02666455020E+00  4.78744298864E+00  5.02360236004E+00  8.12378258210E+00  1.27500000000E+00  0.00000000000E+00  1.
        3    1    5    5  804    0 -2.82239757138E+01 -3.76831490980E+01  5.01325160347E+02  5.03531060540E+02  7.62939453125E-06  0.00000000000E+00  1.
       -3    1    5    5    0  804  1.81469726798E+01  2.08838234066E+01  1.11824772008E+02  1.15196468402E+02  6.87704329579E-06  0.00000000000E+00  1.
</event>
<event>
 9   0   3.8422479E-15   6.2499555E+01   7.8125000E-03   1.3828955E-01
       21   -1    0    0  501  502  0.00000000000E+00  0.00000000000E+00  8.16716758784E+02  8.16716758784E+02  0.00000000000E+00  0.00000000000E+00  1.
       21   -1    0    0  502  501  0.00000000000E+00  0.00000000000E+00 -4.78280178341E+00  4.78280178341E+00  0.00000000000E+00  0.00000000000E+00  1.
       25    2    1    2    0    0  1.77635683940E-15  7.10542735760E-15  8.11933957001E+02  8.21499560568E+02  1.24999109924E+02  0.00000000000E+00  1.
       23    2    3    3    0    0 -1.19785170468E+01 -2.01344979954E+01  4.46754704164E+02  4.51037139199E+02  5.74095145713E+01  0.00000000000E+00  1.
       23    2    3    3    0    0  1.19785170468E+01  2.01344979954E+01  3.65179252836E+02  3.70462421369E+02  5.77722776446E+01  0.00000000000E+00  1.
        4    1    4    4  804    0  2.95247996891E+00  4.23753447982E+00  3.52399974123E+02  3.52440124310E+02  1.27500000000E+00  0.00000000000E+00  1.
       -4    1    4    4    0  804 -1.49309970157E+01 -2.43720324752E+01  9.43547300413E+01  9.85970148890E+01  1.27499999999E+00  0.00000000000E+00  1.
       11    1    5    5    0    0 -8.15813880184E+00 -1.42867586537E+01  1.94135034629E+02  1.94830896863E+02  5.11012836212E-04  0.00000000000E+00  1.
      -11    1    5    5    0    0  2.01366558486E+01  3.44212566491E+01  1.71044218207E+02  1.75631524506E+02  5.11009276622E-04  0.00000000000E+00  1.
</event>
<event>
 9   0   3.8626160E-17   6.2499527E+01   7.8125000E-03   1.3828956E-01
       21   -1    0    0  501  502  0.00000000000E+00  0.00000000000E+00  8.16754094538E+02  8.16754094538E+02  0.00000000000E+00  0.00000000000E+00  1.
       21   -1    0    0  502  501  0.00000000000E+00  0.00000000000E+00 -4.78257891659E+00  4.78257891659E+00  0.00000000000E+00  0.00000000000E+00  1.
       25    2    1    2    0    0  8.88178419700E-16  0.00000000000E+00  8.11971515622E+02  8.21536673455E+02  1.24999054598E+02  0.00000000000E+00  1.
       23    2    3    3    0    0  3.10433458409E+00 -1.86865645847E+01  1.90829792725E+02  1.94870101230E+02  3.46341157356E+01  0.00000000000E+00  1.
       23    2    3    3    0    0 -3.10433458409E+00  1.86865645847E+01  6.21141722897E+02  6.26666572225E+02  8.08401399779E+01  0.00000000000E+00  1.
        4    1    4    4  803    0  1.02767132691E+01 -4.29658045311E+00  1.56919368294E+02  1.57319373282E+02  1.27500000000E+00  0.00000000000E+00  1.
       -4    1    4    4    0  803 -7.17237868505E+00 -1.43899841316E+01  3.39104244311E+01  3.75507279477E+01  1.27500000000E+00  0.00000000000E+00  1.
        1    1    5    5  804    0 -1.95044786273E+01 -2.24764131742E+01  4.01417661533E+02  4.02519257809E+02  7.62939453125E-06  0.00000000000E+00  1.
       -1    1    5    5    0  804  1.64001440432E+01  4.11629777589E+01  2.19724061363E+02  2.24147314516E+02  7.13664510112E-06  0.00000000000E+00  1.
</event>
<event>
 9   0   3.5328845E-18   6.2499527E+01   7.8125000E-03   1.3828956E-01
       21   -1    0    0  501  502  0.00000000000E+00  0.00000000000E+00  8.16745372456E+02  8.16745372456E+02  0.00000000000E+00  0.00000000000E+00  1.
       21   -1    0    0  502  501  0.00000000000E+00  0.00000000000E+00 -4.78262998392E+00  4.78262998392E+00  0.00000000000E+00  0.00000000000E+00  1.
       25    2    1    2    0    0  0.00000000000E+00  8.88178419700E-16  8.11962742472E+02  8.21528002440E+02  1.24999054517E+02  0.00000000000E+00  1.
       23    2    3    3    0    0  1.63822524807E+01 -9.81176885591E+00  1.89991819734E+02  1.93034538048E+02  2.82982739596E+01  0.00000000000E+00  1.
       23    2    3    3    0    0 -1.63822524807E+01  9.81176885591E+00  6.21970922738E+02  6.28493464392E+02  8.82697969153E+01  0.00000000000E+00  1.
        3    1    5    5  804    0  1.48061194306E+01  1.39865212812E+01  5.44433381665E+02  5.44814235333E+02  0.00000000000E+00  0.00000000000E+00  1.
       -3    1    4    4    0  803  1.92252295781E+01 -1.56737699660E+01  1.09260656354E+02  1.12040919061E+02  2.33601545599E-06  0.00000000000E+00  1.
        3    1    4    4  803    0 -2.84297709743E+00  5.86200111004E+00  8.07311633805E+01  8.09936190867E+01  2.13248059988E-06  0.00000000000E+00  1.
       -3    1    5    5    0  804 -3.11883719113E+01 -4.17475242529E+00  7.75375410734E+01  8.36792290596E+01  0.00000000000E+00  0.00000000000E+00  1.
</event>
<event>
 9   0   5.9879777E-11   6.2499586E+01   7.8125000E-03   1.3828954E-01
       21   -1    0    0  501  502  0.00000000000E+00  0.00000000000E+00  8.01350730511E+02  8.01350730511E+02  0.00000000000E+00  0.00000000000E+00  1.
       21   -1    0    0  502  501  0.00000000000E+00  0.00000000000E+00 -4.87451754304E+00  4.87451754304E+00  0.00000000000E+00  0.00000000000E+00  1.
       25    2    1    2    0    0  3.55271367880E-15  0.00000000000E+00  7.96476212968E+02  8.06225248054E+02  1.24999171101E+02  0.00000000000E+00  1.
       23    2    3    3    0    0 -1.27085452982E+01 -1.76126251448E+01  2.50928255405E+02  2.55744538114E+02  4.43685443351E+01  0.00000000000E+00  1.
       23    2    3    3    0    0  1.27085452982E+01  1.76126251448E+01  5.45547957563E+02  5.50480709940E+02  7.02476072687E+01  0.00000000000E+00  1.
        3    1    5    5  804    0 -5.87371694814E+00  2.41348943751E+01  5.02814507575E+02  5.03427673758E+02  7.62939453125E-06  0.00000000000E+00  1.
       -3    1    4    4    0  803  4.41281268561E+00  9.64265341568E+00  2.05117604023E+01  2.30908206894E+01  5.46285592908E-06  0.00000000000E+00  1.
        3    1    4    4  803    0 -1.71213579838E+01 -2.72552785605E+01  2.30416495003E+02  2.32653717524E+02  0.00000000000E+00  0.00000000000E+00  1.
       -3    1    5    5    0  804  1.85822622463E+01 -6.52226923028E+00  4.27334499880E+01  4.70530362823E+01  2.78041453116E-06  0.00000000000E+00  1.
</event>
<event>
 9   0   6.6981998E-24   6.2499585E+01   7.8125000E-03   1.3828954E-01
       21   -1    0    0  501  502  0.00000000000E+00  0.00000000000E+00  8.16749583466E+02  8.16749583466E+02  0.00000000000E+00  0.00000000000E+00  1.
       21   -1    0    0  502  501  0.00000000000E+00  0.00000000000E+00 -4.78261423190E+00  4.78261423190E+00  0.00000000000E+00  0.00000000000E+00  1.
       25    2    1    2    0    0  3.55271367880E-15  5.32907051820E-15  8.11966969234E+02  8.21532197698E+02  1.24999170906E+02  0.00000000000E+00  1.
       23    2    3    3    0    0  1.67422157522E+01 -1.44956865416E+01  3.41664030446E+02  3.47221007929E+02  5.77727611427E+01  0.00000000000E+00  1.
       23    2    3    3    0    0 -1.67422157522E+01  1.44956865416E+01  4.70302938789E+02  4.74311189769E+02  5.74092657209E+01  0.00000000000E+00  1.
        1    1    4    4  803    0  2.29893668477E+01 -1.17046572949E+00  3.21150185195E+02  3.21974102209E+02  6.60724947956E-06  0.00000000000E+00  1.
       -1    1    4    4    0  803 -6.24715109558E+00 -1.33252208121E+01  2.05138452505E+01  2.52469058196E+01  1.06624029994E-06  0.00000000000E+00  1.
        4    1    5    5  804    0 -2.11659041326E+01 -1.49854507979E+01  3.21456429689E+02  3.22503365946E+02  1.27500000000E+00  0.00000000000E+00  1.
       -4    1    5    5    0  804  4.42368838048E+00  2.94811373395E+01  1.48846509100E+02  1.51807823823E+02  1.27499999999E+00  0.00000000000E+00  1.
</event>
<event>
 9   0   3.4637201E-14   6.2499527E+01   7.8125000E-03   1.3828956E-01
       21   -1    0    0  501  502  0.00000000000E+00  0.00000000000E+00  8.01355662474E+02  8.01355662474E+02  0.00000000000E+00  0.00000000000E+00  1.
       21   -1    0    0  502  501  0.00000000000E+00  0.00000000000E+00 -4.87447846233E+00  4.87447846233E+00  0.00000000000E+00  0.00000000000E+00  1.
       25    2    1    2    0    0  3.55271367880E-15  0.00000000000E+00  7.96481184012E+02  8.06230140937E+02  1.24999054675E+02  0.00000000000E+00  1.
       23    2    3    3    0    0 -1.76274911693E+01 -1.14790360479E+01  3.22888877897E+02  3.28732757994E+02  5.80129467859E+01  0.00000000000E+00  1.
       23    2    3    3    0    0  1.76274911693E+01  1.14790360479E+01  4.73592306115E+02  4.77497382943E+02  5.71977411524E+01  0.00000000000E+00  1.
       12    1    4    4    0    0  7.61338208516E+00  1.21819110943E+00  2.56064825515E+02  2.56180878470E+02  3.81469726562E-06  0.00000000000E+00  1.
      -12    1    4    4    0    0 -2.52408732545E+01 -1.26972271573E+01  6.68240523821E+01  7.25518797235E+01  2.69739830470E-06  0.00000000000E+00  1.
        4    1    5    5  803    0 -8.56562733440E+00  2.44520589484E+01  3.26169124192E+02  3.27199016441E+02  1.27500000001E+00  0.00000000000E+00  1.
       -4    1    5    5    0  803  2.61931185037E+01 -1.29730229006E+01  1.47423181922E+02  1.50298366502E+02  1.27500000001E+00  0.00000000000E+00  1.
</event>
<event>
 9   0   3.1714924E-21   6.2499528E+01   7.8125000E-03   1.3828956E-01
       21   -1    0    0  501  502  0.00000000000E+00  0.00000000000E+00  6.96130139278E+02  6.96130139278E+02  0.00000000000E+00  0.00000000000E+00  1.
       21   -1    0    0  502  501  0.00000000000E+00  0.00000000000E+00 -5.61129416321E+00  5.61129416321E+00  0.00000000000E+00  0.00000000000E+00  1.
       25    2    1    2    0    0  5.32907051820E-15 -7.10542735760E-15  6.90518845115E+02  7.01741433441E+02  1.24999055794E+02  0.00000000000E+00  1.
       23    2    3    3    0    0  1.18367810823E+01  2.02588398715E+01  3.11165213298E+02  3.17351766565E+02  5.77739023802E+01  0.00000000000E+00  1.
       23    2    3    3    0    0 -1.18367810823E+01 -2.02588398715E+01  3.79353631817E+02  3.84389666876E+02  5.74082576705E+01  0.00000000000E+00  1.
        4    1    4    4  804    0  2.11492600252E+01  1.65454371780E+01  3.03446691361E+02  3.04635130630E+02  1.27499999999E+00  0.00000000000E+00  1.
       -4    1    4    4    0  804 -9.31247894289E+00  3.71340269347E+00  7.71852193671E+00  1.27166359354E+01  1.27500000000E+00  0.00000000000E+00  1.
       11    1    5    5    0    0 -1.97754226456E+01 -3.42823517282E+01  3.32397417611E+02  3.34745261677E+02  5.11041312032E-04  0.00000000000E+00  1.
      -11    1    5    5    0    0  7.93864156324E+00  1.40235118567E+01  4.69562142065E+01  4.96444051987E+01  5.11003047282E-04  0.00000000000E+00  1.
</event>
<event>
 9   0   7.0965377E-13   6.2499554E+01   7.8125000E-03   1.3828955E-01
       21   -1    0    0  501  502  0.00000000000E+00  0.00000000000E+00  8.16732995163E+02  8.16732995163E+02  0.00000000000E+00  0.00000000000E+00  1.
       21   -1    0    0  502  501  0.00000000000E+00  0.00000000000E+00 -4.78270649825E+00  4.78270649825E+00  0.00000000000E+00  0.00000000000E+00  1.
       25    2    1    2    0    0  8.88178419700E-16  3.55271367880E-15  8.11950288665E+02  8.21515701661E+02  1.24999107250E+02  0.00000000000E+00  1.
       23    2    3    3    0    0  6.09311392176E+00 -2.15583556607E+01  2.93052911502E+02  2.96073536249E+02  3.57441070795E+01  0.00000000000E+00  1.
       23    2    3    3    0    0 -6.09311392176E+00  2.15583556607E+01  5.18897377162E+02  5.25442165412E+02  7.95807290181E+01  0.00000000000E+00  1.
        2    1    4    4  804    0  1.22484728284E+01 -7.26588383248E+00  2.48004120817E+02  2.48412685156E+02  3.81469726562E-06  0.00000000000E+00  1.
       -2    1    4    4    0  804 -6.15535890660E+00 -1.42924718282E+01  4.50487906850E+01  4.76608512927E+01  3.53631901126E-06  0.00000000000E+00  1.
       12    1    5    5    0    0 -1.89843557865E+01 -2.17678900001E+01  3.27850810705E+02  3.29120648009E+02  6.60724947956E-06  0.00000000000E+00  1.
      -12    1    5    5    0    0  1.28912418647E+01  4.33262456608E+01  1.91046566457E+02  1.96321517604E+02  2.69739830470E-06  0.00000000000E+00  1.
</event>
<event>
 9   0   8.6337369E-17   6.2499528E+01   7.8125000E-03   1.3828956E-01
       21   -1    0    0  501  502  0.00000000000E+00  0.00000000000E+00  8.16747479214E+02  8.16747479214E+02  0.00000000000E+00  0.00000000000E+00  1.
       21   -1    0    0  502  501  0.00000000000E+00  0.00000000000E+00 -4.78261783362E+00  4.78261783362E+00  0.00000000000E+00  0.00000000000E+00  1.
       25    2    1    2    0    0  1.77635683940E-15  0.00000000000E+00  8.11964861381E+02  8.21530097048E+02  1.24999056951E+02  0.00000000000E+00  1.
       23    2    3    3    0    0  1.00941901008E+01  1.66053531020E+01  1.98537857684E+02  2.02629104879E+02  3.55477535859E+01  0.00000000000E+00  1.
       23    2    3    3    0    0 -1.00941901008E+01 -1.66053531020E+01  6.13427003697E+02  6.18900992169E+02  7.98004938428E+01  0.00000000000E+00  1.
        3    1    4    4  804    0  1.43021220439E+01  1.19434729651E+01  1.93971338105E+02  1.94864253386E+02  0.00000000000E+00  0.00000000000E+00  1.
       -3    1    4    4    0  804 -4.20793194304E+00  4.66188013683E+00  4.56651957884E+00  7.76485149319E+00  2.10649931992E-06  0.00000000000E+00  1.
        5    1    5    5  803    0 -2.32841045187E+01 -3.99963577850E+01  5.03384476563E+02  5.05529773509E+02  4.74999999998E+00  0.00000000000E+00  1.
       -5    1    5    5    0  803  1.31899144178E+01  2.33910046831E+01  1.10042527134E+02  1.13371218660E+02  4.75000000000E+00  0.00000000000E+00  1.
</event>
<event>
 9   0   3.2412542E-19   6.2499528E+01   7.8125000E-03   1.3828956E-01
       21   -1    0    0  501  502  0.00000000000E+00  0.00000000000E+00  8.16714187564E+02  8.16714187564E+02  0.00000000000E+00  0.00000000000E+00  1.
       21   -1    0    0  502  501  0.00000000000E+00  0.00000000000E+00 -4.78281266220E+00  4.78281266220E+00  0.00000000000E+00  0.00000000000E+00  1.
       25    2    1    2    0    0 -3.55271367880E-15  1.77635683940E-15  8.11931374902E+02  8.21497000227E+02  1.24999055319E+02  0.00000000000E+00  1.
       23    2    3    3    0    0  2.12902251380E+01 -9.83544417337E+00  3.65776485161E+02  3.71052800008E+02  5.77731221984E+01  0.00000000000E+00  1.
       23    2    3    3    0    0 -2.12902251380E+01  9.83544417337E+00  4.46154889741E+02  4.50444200219E+02  5.74089036828E+01  0.00000000000E+00  1.
       16    1    4    4    0    0  2.54660749089E+01  7.41299805291E-01  3.53121900684E+02  3.54039753856E+02  3.81469726562E-06  0.00000000000E+00  1.
      -16    1    4    4    0    0 -4.17584977086E+00 -1.05767439787E+01  1.26545844768E+01  1.70130462522E+01  4.39945270711E-06  0.00000000000E+00  1.
        3    1    5    5  803    0 -2.75823089733E+01 -1.46778003995E+01  3.34549473904E+02  3.36005315556E+02  3.81469726562E-06  0.00000000000E+00  1.
       -3    1    5    5    0  803  6.29208383531E+00  2.45132445728E+01  1.11605415837E+02  1.14438884662E+02  5.72204589844E-06  0.00000000000E+00  1.
</event>
<event>
 9   0   5.9745901E-23   6.2499588E+01   7.8125000E-03   1.3828954E-01
       21   -1    0    0  501  502  0.00000000000E+00  0.00000000000E+00  8.16736726610E+02  8.16736726610E+02  0.00000000000E+00  0.00000000000E+00  1.
       21   -1    0    0  502  501  0.00000000000E+00  0.00000000000E+00 -4.78268986959E+00  4.78268986959E+00  0.00000000000E+00  0.00000000000E+00  1.
       25    2    1    2    0    0  0.00000000000E+00  3.55271367880E-15  8.11954036740E+02  8.21519416480E+02  1.24999175493E+02  0.00000000000E+00  1.
       23    2    3    3    0    0  1.13729617412E+01  1.94322213532E+01  2.52395215085E+02  2.56294555622E+02  3.84265423668E+01  0.00000000000E+00  1.
       23    2    3    3    0    0 -1.13729617412E+01 -1.94322213532E+01  5.59558821655E+02  5.65224860857E+02  7.65905539440E+01  0.00000000000E+00  1.
        4    1    4    4  803    0  1.58370596722E+01  1.41969842049E+01  2.45660575919E+02  2.46582868434E+02  1.27500000001E+00  0.00000000000E+00  1.
       -4    1    4    4    0  803 -4.46409793096E+00  5.23523714835E+00  6.73463916665E+00  9.71168718821E+00  1.27500000000E+00  0.00000000000E+00  1.
        5    1    5    5  804    0 -2.35864542707E+01 -4.07711417465E+01  4.65097408511E+02  4.67500554789E+02  4.74999999999E+00  0.00000000000E+00  1.
       -5    1    5    5    0  804  1.22134925294E+01  2.13389203933E+01  9.44614131439E+01  9.77243060679E+01  4.75000000000E+00  0.00000000000E+00  1.
</event>
<event>
 9   0   6.3583036E-16   6.2497551E+01   7.8125000E-03   1.3829030E-01
       21   -1    0    0  501  502  0.00000000000E+00  0.00000000000E+00  8.16748127152E+02  8.16748127152E+02  0.00000000000E+00  0.00000000000E+00  1.
       21   -1    0    0  502  501  0.00000000000E+00  0.00000000000E+00 -4.78231140619E+00  4.78231140619E+00  0.00000000000E+00  0.00000000000E+00  1.
       25    2    1    2    0    0  3.55271367880E-15 -1.06581410364E-14  8.11965815746E+02  8.21530438558E+02  1.24995102055E+02  0.00000000000E+00  1.
       23    2    3    3    0    0  2.51724276910E+01 -1.49710650489E+01  1.88408442375E+02  1.92160454238E+02  2.38770833681E+01  0.00000000000E+00  1.
       23    2    3    3    0    0 -2.51724276910E+01  1.49710650489E+01  6.23557373370E+02  6.29369984320E+02  8.01560688514E+01  0.00000000000E+00  1.
        5    1    4    4  804    0  1.84836674265E+01 -5.41233759151E+00  1.58085542434E+02  1.59325266629E+02  4.75000000000E+00  0.00000000000E+00  1.
       -5    1    4    4    0  804  6.68876026457E+00 -9.55872745740E+00  3.03228999416E+01  3.28351876095E+01  4.75000000000E+00  0.00000000000E+00  1.
       15    1    5    5    0    0 -3.07201765628E+01 -2.34218096283E+01  4.42963248268E+02  4.44648070668E+02  1.77680000000E+00  0.00000000000E+00  1.
      -15    1    5    5    0    0  5.54774887182E+00  3.83928746772E+01  1.80594125103E+02  1.84721913652E+02  1.77680000000E+00  0.00000000000E+00  1.
</event>
<event>
 9   0   2.7760189E-15   6.2499527E+01   7.8125000E-03   1.3828956E-01
       21   -1    0    0  501  502  0.00000000000E+00  0.00000000000E+00  8.16735255824E+02  8.16735255824E+02  0.00000000000E+00  0.00000000000E+00  1.
       21   -1    0    0  502  501  0.00000000000E+00  0.00000000000E+00 -4.78268913730E+00  4.78268913730E+00  0.00000000000E+00  0.00000000000E+00  1.
       25    2    1    2    0    0 -7.10542735760E-15 -3.55271367880E-15  8.11952566686E+02  8.21517944961E+02  1.24999053374E+02  0.00000000000E+00  1.
       23    2    3    3    0    0 -1.35670922145E+01 -1.79151049256E+01  3.70007780634E+02  3.75291781843E+02  5.85930611386E+01  0.00000000000E+00  1.
       23    2    3    3    0    0  1.35670922145E+01  1.79151049256E+01  4.41944786052E+02  4.46226163118E+02  5.74245396709E+01  0.00000000000E+00  1.
        4    1    5    5  804    0  2.23854474459E+01  1.60245666564E+01  4.31452836252E+02  4.32332129882E+02  1.27500000005E+00  0.00000000000E+00  1.
       -4    1    4    4    0  803  8.97596431877E+00  1.27656582581E+01  3.79068672377E+01  4.10132438974E+01  1.27500000002E+00  0.00000000000E+00  1.
        4    1    4    4  803    0 -2.25430565332E+01 -3.06807631837E+01  3.32100913396E+02  3.34278537946E+02  1.27500000000E+00  0.00000000000E+00  1.
       -4    1    5    5    0  804 -8.81835523144E+00  1.89053826923E+00  1.04919498008E+01  1.38940332358E+01  1.27500000000E+00  0.00000000000E+00  1.
</event>
<event>
 9   0   7.1201208E-17   6.2499528E+01   7.8125000E-03   1.3828956E-01
       21   -1    0    0  501  502  0.00000000000E+00  0.00000000000E+00  8.16731273285E+02  8.16731273285E+02  0.00000000000E+00  0.00000000000E+00  1.
       21   -1    0    0  502  501  0.00000000000E+00  0.00000000000E+00 -4.78271271569E+00  4.78271271569E+00  0.00000000000E+00  0.00000000000E+00  1.
       25    2    1    2    0    0  3.55271367880E-15  1.77635683940E-15  8.11948560569E+02  8.21513986001E+02  1.24999056733E+02  0.00000000000E+00  1.
       23    2    3    3    0    0  1.66114340075E+01 -1.16039080999E+01  2.06480862841E+02  2.10254140713E+02  3.40861635315E+01  0.00000000000E+00  1.
       23    2    3    3    0    0 -1.66114340075E+01  1.16039080999E+01  6.05467697728E+02  6.11259845288E+02  8.14670181490E+01  0.00000000000E+00  1.
        1    1    4    4  804    0  1.69150413758E+01 -2.22674450494E+00  1.93429833936E+02  1.94180786054E+02  0.00000000000E+00  0.00000000000E+00  1.
       -1    1    4    4    0  804 -3.03607368232E-01 -9.37716359494E+00  1.30510289046E+01  1.60733547589E+01  2.47771855483E-06  0.00000000000E+00  1.
        3    1    5    5  803    0 -2.02705715633E+01 -2.86542291650E+01  4.18643219073E+02  4.20112015772E+02  5.39479660939E-06  0.00000000000E+00  1.
       -3    1    5    5    0  803  3.65913755573E+00  4.02581372649E+01  1.86824478656E+02  1.91147829616E+02  2.69739830470E-06  0.00000000000E+00  1.
</event>
<event>
 9   0   4.0857169E-22   6.2499588E+01   7.8125000E-03   1.3828954E-01
       21   -1    0    0  501  502  0.00000000000E+00  0.00000000000E+00  8.16751900718E+02  8.16751900718E+02  0.00000000000E+00  0.00000000000E+00  1.
       21   -1    0    0  502  501  0.00000000000E+00  0.00000000000E+00 -4.78260099058E+00  4.78260099058E+00  0.00000000000E+00  0.00000000000E+00  1.
       25    2    1    2    0    0  1.77635683940E-15  5.32907051820E-15  8.11969299727E+02  8.21534501709E+02  1.24999175188E+02  0.00000000000E+00  1.
       23    2    3    3    0    0  1.59168537365E+01 -1.37520629427E+01  3.27529496502E+02  3.33253528435E+02  5.77916747197E+01  0.00000000000E+00  1.
       23    2    3    3    0    0 -1.59168537365E+01  1.37520629427E+01  4.84439803225E+02  4.88280973274E+02  5.73926863345E+01  0.00000000000E+00  1.
        5    1    4    4  803    0  2.22536225867E+01 -7.73062084828E-01  3.06278177366E+02  3.07123274556E+02  4.75000000000E+00  0.00000000000E+00  1.
       -5    1    4    4    0  803 -6.33676885019E+00 -1.29790008579E+01  2.12513191362E+01  2.61302538786E+01  4.75000000000E+00  0.00000000000E+00  1.
        3    1    5    5  804    0 -2.43492119714E+01 -1.28824845274E+01  3.43255078750E+02  3.44358667218E+02  5.39479660939E-06  0.00000000000E+00  1.
       -3    1    5    5    0  804  8.43235823492E+00  2.66345474702E+01  1.41184724475E+02  1.43922306256E+02  1.90734863281E-06  0.00000000000E+00  1.
</event>
<event>
 9   0   1.6097297E-10   6.2499589E+01   7.8125000E-03   1.3828954E-01
       21   -1    0    0  501  502  0.00000000000E+00  0.00000000000E+00  8.15164718354E+02  8.15164718354E+02  0.00000000000E+00  0.00000000000E+00  1.
       21   -1    0    0  502  501  0.00000000000E+00  0.00000000000E+00 -4.79191322215E+00  4.79191322215E+00  0.00000000000E+00  0.00000000000E+00  1.
       25    2    1    2    0    0 -1.77635683940E-15  3.55271367880E-15  8.10372805132E+02  8.19956631576E+02  1.24999177471E+02  0.00000000000E+00  1.
       23    2    3    3    0    0 -4.83132676087E+00  1.97952996103E+01  6.00810427555E+02  6.07080249378E+02  8.46053409698E+01  0.00000000000E+00  1.
       23    2    3    3    0    0  4.83132676087E+00 -1.97952996103E+01  2.09562377577E+02  2.12876382198E+02  3.13810196989E+01  0.00000000000E+00  1.
        5    1    4    4  803    0  1.94170998922E+01  1.90036794265E+01  5.48806570021E+02  5.49499206003E+02  4.75000000002E+00  0.00000000000E+00  1.
       -5    1    4    4    0  803 -2.42484266531E+01  7.91620183803E-01  5.20038575341E+01  5.75810433745E+01  4.75000000000E+00  0.00000000000E+00  1.
        4    1    5    5  804    0 -1.00824609952E+01 -1.47169417527E+01  1.56248856300E+02  1.57269116848E+02  1.27499999999E+00  0.00000000000E+00  1.
       -4    1    5    5    0  804  1.49137877561E+01 -5.07835785766E+00  5.33135212770E+01  5.56072653501E+01  1.27500000000E+00  0.00000000000E+00  1.
</event>
<event>
 9   0   9.0565714E-18   6.2499527E+01   7.8125000E-03   1.3828956E-01
       21   -1    0    0  501  502  0.00000000000E+00  0.00000000000E+00  8.16724849541E+02  8.16724849541E+02  0.00000000000E+00  0.00000000000E+00  1.
       21   -1    0    0  502  501  0.00000000000E+00  0.00000000000E+00 -4.78275005899E+00  4.78275005899E+00  0.00000000000E+00  0.00000000000E+00  1.
       25    2    1    2    0    0  0.00000000000E+00  3.55271367880E-15  8.11942099482E+02  8.21507599600E+02  1.24999053154E+02  0.00000000000E+00  1.
       23    2    3    3    0    0  1.62805177494E+01  2.78656249578E+01  3.00652521986E+02  3.05994346010E+02  4.68940561378E+01  0.00000000000E+00  1.
       23    2    3    3    0    0 -1.62805177494E+01 -2.78656249578E+01  5.11289577495E+02  5.15513253589E+02  5.74050020332E+01  0.00000000000E+00  1.
       16    1    4    4    0    0 -9.25614966949E-01  2.32311067688E+01  2.66135262522E+02  2.67148870662E+02  3.81469726562E-06  0.00000000000E+00  1.
      -16    1    4    4    0    0  1.72061327164E+01  4.63451818904E+00  3.45172594645E+01  3.88454755487E+01  6.74349576174E-06  0.00000000000E+00  1.
       12    1    5    5    0    0 -2.32126191886E+01 -4.00063201082E+01  4.61065852245E+02  4.63380029282E+02  5.39479660939E-06  0.00000000000E+00  1.
      -12    1    5    5    0    0  6.93210143922E+00  1.21406951503E+01  5.02237252502E+01  5.21332244073E+01  6.81059687475E-06  0.00000000000E+00  1.
</event>
<event>
 9   0   4.9480173E-19   6.2499527E+01   7.8125000E-03   1.3828956E-01
       21   -1    0    0  501  502  0.00000000000E+00  0.00000000000E+00  8.16716484781E+02  8.16716484781E+02  0.00000000000E+00  0.00000000000E+00  1.
       21   -1    0    0  502  501  0.00000000000E+00  0.00000000000E+00 -4.78279909760E+00  4.78279909760E+00  0.00000000000E+00  0.00000000000E+00  1.
       25    2    1    2    0    0 -5.32907051820E-15 -5.32907051820E-15  8.11933685684E+02  8.21499283879E+02  1.24999053859E+02  0.00000000000E+00  1.
       23    2    3    3    0    0  1.44345854058E+01  1.16140115282E+01  1.77823307270E+02  1.81222342832E+02  2.96169953503E+01  0.00000000000E+00  1.
       23    2    3    3    0    0 -1.44345854058E+01 -1.16140115282E+01  6.34110378414E+02  6.40276941047E+02  8.66910993378E+01  0.00000000000E+00  1.
        1    1    4    4  804    0  1.52626590917E+01  9.15091744108E+00  1.77733543131E+02  1.78622228198E+02  2.69739830470E-06  0.00000000000E+00  1.
       -1    1    4    4    0  804 -8.28073685936E-01  2.46309408711E+00  8.97641391967E-02  2.60011463439E+00  1.66156299770E-06  0.00000000000E+00  1.
        5    1    5    5  803    0 -2.71605309091E+01 -3.98979809286E+01  5.08478658989E+02  5.10786308028E+02  4.75000000002E+00  0.00000000000E+00  1.
       -5    1    5    5    0  803  1.27259455033E+01  2.82839694004E+01  1.25631719425E+02  1.29490633019E+02  4.75000000000E+00  0.00000000000E+00  1.
</event>
<event>
 9   0   2.7362458E-13   6.2499665E+01   7.8125000E-03   1.3828951E-01
       21   -1    0    0  501  502  0.00000000000E+00  0.00000000000E+00  8.16713447250E+02  8.16713447250E+02  0.00000000000E+00  0.00000000000E+00  1.
       21   -1    0    0  502  501  0.00000000000E+00  0.00000000000E+00 -4.78283808660E+00  4.78283808660E+00  0.00000000000E+00  0.00000000000E+00  1.
       25    2    1    2    0    0 -1.77635683940E-15  0.00000000000E+00  8.11930609163E+02  8.21496285337E+02  1.24999330900E+02  0.00000000000E+00  1.
       23    2    3    3    0    0 -1.02371303582E+01 -1.82517969934E+01  4.85786554455E+02  4.89614492482E+02  5.74094750658E+01  0.00000000000E+00  1.
       23    2    3    3    0    0  1.02371303582E+01  1.82517969934E+01  3.26144054708E+02  3.31881792855E+02  5.77724248715E+01  0.00000000000E+00  1.
       11    1    4    4    0    0 -2.74267017344E+00 -2.60916425378E+01  4.68321904803E+02  4.69056182742E+02  5.11027074320E-04  0.00000000000E+00  1.
      -11    1    4    4    0    0 -7.49446018477E+00  7.83984554440E+00  1.74646496523E+01  2.05583097399E+01  5.10988196672E-04  0.00000000000E+00  1.
       15    1    5    5    0    0 -1.23395734467E+01 -1.25715232755E+01  1.78054753295E+02  1.78932837846E+02  1.77680000000E+00  0.00000000000E+00  1.
      -15    1    5    5    0    0  2.25767038050E+01  3.08233202689E+01  1.48089301413E+02  1.52948955009E+02  1.77680000000E+00  0.00000000000E+00  1.
</event>
<event>
 9   0   1.2848063E-13   6.2499658E+01   7.8125000E-03   1.3828951E-01
       21   -1    0    0  501  502  0.00000000000E+00  0.00000000000E+00  8.16745851462E+02  8.16745851462E+02  0.00000000000E+00  0.00000000000E+00  1.
       21   -1    0    0  502  501  0.00000000000E+00  0.00000000000E+00 -4.78264726007E+00  4.78264726007E+00  0.00000000000E+00  0.00000000000E+00  1.
       25    2    1    2    0    0 -3.55271367880E-15  2.66453525910E-15  8.11963204202E+02  8.21528498722E+02  1.24999316937E+02  0.00000000000E+00  1.
       23    2    3    3    0    0 -5.97353961246E+00 -5.79907701521E+00  4.51523798178E+01  4.98344032393E+01  1.93757031684E+01  0.00000000000E+00  1.
       23    2    3    3    0    0  5.97353961246E+00  5.79907701521E+00  7.66810824384E+02  7.71694095483E+02  8.62764402408E+01  0.00000000000E+00  1.
        5    1    4    4  803    0  2.63894591359E+00  8.97624699646E-02  3.16892565845E+01  3.21518829265E+01  4.75000000000E+00  0.00000000000E+00  1.
       -5    1    4    4    0  803 -8.61248552605E+00 -5.88883948517E+00  1.34631232333E+01  1.76825203128E+01  4.75000000000E+00  0.00000000000E+00  1.
        4    1    5    5  804    0 -2.10789278201E+01 -2.71226946613E+01  5.27288137506E+02  5.28407387669E+02  1.27499999997E+00  0.00000000000E+00  1.
       -4    1    5    5    0  804  2.70524674326E+01  3.29217716765E+01  2.39522686878E+02  2.43286707813E+02  1.27500000001E+00  0.00000000000E+00  1.
</event>
<event>
 9   0   3.7668099E-11   6.2498897E+01   7.8125000E-03   1.3828980E-01
       21   -1    0    0  501  502  0.00000000000E+00  0.00000000000E+00  8.15633011858E+02  8.15633011858E+02  0.00000000000E+00  0.00000000000E+00  1.
       21   -1    0    0  502  501  0.00000000000E+00  0.00000000000E+00 -4.78905598759E+00  4.78905598759E+00  0.00000000000E+00  0.00000000000E+00  1.
       25    2    1    2    0    0 -3.55271367880E-15  1.06581410364E-14  8.10843955871E+02  8.20422067846E+02  1.24997794526E+02  0.00000000000E+00  1.
       23    2    3    3    0    0  1.68979615329E+01  1.30891540423E+01  5.25193557773E+02  5.29463070165E+02  6.36081951073E+01  0.00000000000E+00  1.
       23    2    3    3    0    0 -1.68979615329E+01 -1.30891540423E+01  2.85650398098E+02  2.90958997681E+02  5.10305922027E+01  0.00000000000E+00  1.
        4    1    4    4  804    0  2.61319055102E+01  1.41285009706E+01  5.14000335603E+02  5.14859652382E+02  1.27500000002E+00  0.00000000000E+00  1.
       -4    1    4    4    0  804 -9.23394397730E+00 -1.03934692832E+00  1.11932221695E+01  1.46034177831E+01  1.27500000004E+00  0.00000000000E+00  1.
       12    1    5    5    0    0 -2.07418990778E+01 -2.70929110497E+01  2.52128044252E+02  2.54426419532E+02  2.69739830470E-06  0.00000000000E+00  1.
      -12    1    5    5    0    0  3.84393754491E+00  1.40037570074E+01  3.35223538456E+01  3.65325783490E+01  2.28683067480E-06  0.00000000000E+00  1.
</event>
<event>
 9   0   1.4726939E-12   6.2499527E+01   7.8125000E-03   1.3828956E-01
       21   -1    0    0  501  502  0.00000000000E+00  0.00000000000E+00  8.14956233520E+02  8.14956233520E+02  0.00000000000E+00  0.00000000000E+00  1.
       21   -1    0    0  502  501  0.00000000000E+00  0.00000000000E+00 -4.79312963335E+00  4.79312963335E+00  0.00000000000E+00  0.00000000000E+00  1.
       25    2    1    2    0    0  3.55271367880E-15 -1.77635683940E-15  8.10163103887E+02  8.19749363154E+02  1.24999053961E+02  0.00000000000E+00  1.
       23    2    3    3    0    0 -1.96572616056E+01  1.30820116559E+01  5.14811854415E+02  5.19753898579E+02  6.74931306056E+01  0.00000000000E+00  1.
       23    2    3    3    0    0  1.96572616056E+01 -1.30820116559E+01  2.95351249472E+02  2.99995464575E+02  4.69826695494E+01  0.00000000000E+00  1.
        3    1    4    4  804    0  7.55404976536E+00  1.33908640153E+01  4.37897629914E+02  4.38167448804E+02  0.00000000000E+00  0.00000000000E+00  1.
       -3    1    4    4    0  804 -2.72113113710E+01 -3.08852359348E-01  7.69142245005E+01  8.15864497746E+01  6.18051595536E-06  0.00000000000E+00  1.
        2    1    5    5  803    0 -7.92783555613E-01 -2.46706791045E+01  2.10717098373E+02  2.12157881076E+02  3.81469726562E-06  0.00000000000E+00  1.
       -2    1    5    5    0  803  2.04500451613E+01  1.15886674486E+01  8.46341510990E+01  8.78375836993E+01  3.43852164790E-06  0.00000000000E+00  1.
</event>
<event>
 9   0   1.4153096E-10   6.2499528E+01   7.8125000E-03   1.3828956E-01
       21   -1    0    0  501  502  0.00000000000E+00  0.00000000000E+00  7.45989078765E+02  7.45989078765E+02  0.00000000000E+00  0.00000000000E+00  1.
       21   -1    0    0  502  501  0.00000000000E+00  0.00000000000E+00 -5.23625766242E+00  5.23625766242E+00  0.00000000000E+00  0.00000000000E+00  1.
       25    2    1    2    0    0  3.55271367880E-15  5.32907051820E-15  7.40752821102E+02  7.51225336427E+02  1.24999056473E+02  0.00000000000E+00  1.
       23    2    3    3    0    0 -6.90295437763E+00 -1.22315670162E+01  4.29067370014E+02  4.36545933282E+02  7.92229880994E+01  0.00000000000E+00  1.
       23    2    3    3    0    0  6.90295437763E+00  1.22315670162E+01  3.11685451088E+02  3.14679403145E+02  4.09639394215E+01  0.00000000000E+00  1.
        1    1    4    4  804    0  1.71319188447E+01  2.49253967947E+00  3.76506753443E+02  3.76904564559E+02  0.00000000000E+00  0.00000000000E+00  1.
       -1    1    4    4    0  804 -2.40348732223E+01 -1.47241066956E+01  5.25606165713E+01  5.96413688230E+01  6.21719589730E-06  0.00000000000E+00  1.
        5    1    5    5  803    0 -1.43184500938E+01  8.02487101693E+00  2.05455748957E+02  2.06165088818E+02  4.75000000000E+00  0.00000000000E+00  1.
       -5    1    5    5    0  803  2.12214044714E+01  4.20669599923E+00  1.06229702131E+02  1.08514314327E+02  4.75000000000E+00  0.00000000000E+00  1.
</event>
<event>
 9   0   1.7250147E-22   6.2499585E+01   7.8125000E-03   1.3828954E-01
       21   -1    0    0  501  502  0.00000000000E+00  0.00000000000E+00  8.16716348069E+02  8.16716348069E+02  0.00000000000E+00  0.00000000000E+00  1.
       21   -1    0    0  502  501  0.00000000000E+00  0.00000000000E+00 -4.78280875487E+00  4.78280875487E+00  0.00000000000E+00  0.00000000000E+00  1.
       25    2    1    2    0    0  3.55271367880E-15  3.55271367880E-15  8.11933539314E+02  8.21499156824E+02  1.24999169594E+02  0.00000000000E+00  1.
       23    2    3    3    0    0  3.92417733288E+00  2.05781789475E+01  3.26404849287E+02  3.32139605238E+02  5.77731002561E+01  0.00000000000E+00  1.
       23    2    3    3    0    0 -3.92417733288E+00 -2.05781789475E+01  4.85528690027E+02  4.89359551586E+02  5.74090695979E+01  0.00000000000E+00  1.
        4    1    4    4  804    0  1.66873106767E+01  1.58497651717E+01  3.09688934894E+02  3.10545557712E+02  1.27499999998E+00  0.00000000000E+00  1.
       -4    1    4    4    0  804 -1.27631333438E+01  4.72841377580E+00  1.67159143927E+01  2.15940475264E+01  1.27499999999E+00  0.00000000000E+00  1.
        1    1    5    5  803    0 -1.51267678222E+01 -3.45612634356E+01  4.10117810045E+02  4.11849387803E+02  5.39479660939E-06  0.00000000000E+00  1.
       -1    1    5    5    0  803  1.12025904893E+01  1.39830844881E+01  7.54108799817E+01  7.75101639825E+01  4.95543710967E-06  0.00000000000E+00  1.
</event>
<event>
 9   0   1.0468003E-24   6.2499527E+01   7.8125000E-03   1.3828956E-01
       21   -1    0    0  501  502  0.00000000000E+00  0.00000000000E+00  8.16726731010E+02  8.16726731010E+02  0.00000000000E+00  0.00000000000E+00  1.
       21   -1    0    0  502  501  0.00000000000E+00  0.00000000000E+00 -4.78273903016E+00  4.78273903016E+00  0.00000000000E+00  0.00000000000E+00  1.
       25    2    1    2    0    0 -3.55271367880E-15  7.10542735760E-15  8.11943991980E+02  8.21509470040E+02  1.24999053010E+02  0.00000000000E+00  1.
       23    2    3    3    0    0  1.82774494862E+01 -1.47253501247E+01  3.66242924664E+02  3.71513651074E+02  5.77720691371E+01  0.00000000000E+00  1.
       23    2    3    3    0    0 -1.82774494862E+01  1.47253501247E+01  4.45701067316E+02  4.49995818966E+02  5.74098822845E+01  0.00000000000E+00  1.
       12    1    4    4    0    0  2.43054731005E+01 -1.42919550347E+00  3.44289487863E+02  3.45149315723E+02  7.62939453125E-06  0.00000000000E+00  1.
      -12    1    4    4    0    0 -6.02802361436E+00 -1.32961546212E+01  2.19534368011E+01  2.63643354513E+01  1.84678237257E-06  0.00000000000E+00  1.
       15    1    5    5    0    0 -2.18898820233E+01 -1.48875989269E+01  3.05222684311E+02  3.06373712275E+02  1.77680000000E+00  0.00000000000E+00  1.
      -15    1    5    5    0    0  3.61243253714E+00  2.96129490516E+01  1.40478383005E+02  1.43622106691E+02  1.77680000000E+00  0.00000000000E+00  1.
</event>
<event>
 9   0   1.4634544E-17   6.2499529E+01   7.8125000E-03   1.3828956E-01
       21   -1    0    0  501  502  0.00000000000E+00  0.00000000000E+00  8.16719721657E+02  8.16719721657E+02  0.00000000000E+00  0.00000000000E+00  1.
       21   -1    0    0  502  501  0.00000000000E+00  0.00000000000E+00 -4.78278042046E+00  4.78278042046E+00  0.00000000000E+00  0.00000000000E+00  1.
       25    2    1    2    0    0  3.55271367880E-15  0.00000000000E+00  8.11936941237E+02  8.21502502077E+02  1.24999057496E+02  0.00000000000E+00  1.
       23    2    3    3    0    0 -8.19967248370E+00  1.49039260780E+01  6.54341510414E+02  6.60509669729E+02  8.84355692762E+01  0.00000000000E+00  1.
       23    2    3    3    0    0  8.19967248370E+00 -1.49039260780E+01  1.57595430823E+02  1.60992832349E+02  2.81604440674E+01  0.00000000000E+00  1.
       11    1    4    4    0    0  1.83981334503E+01  1.68042276032E+01  5.94194046151E+02  5.94716266687E+02  5.11055549347E-04  0.00000000000E+00  1.
      -11    1    4    4    0    0 -2.65978059340E+01 -1.90030152523E+00  6.01474642625E+01  6.57934030421E+01  5.11077794358E-04  0.00000000000E+00  1.
        5    1    5    5  804    0 -5.84201733909E+00 -1.38669289339E+01  1.10161445254E+02  1.11285791569E+02  4.75000000000E+00  0.00000000000E+00  1.
       -5    1    5    5    0  804  1.40416898228E+01 -1.03699714410E+00  4.74339855684E+01  4.97070407796E+01  4.75000000000E+00  0.00000000000E+00  1.
</event>
<event>
 9   0   3.4876719E-19   6.2499529E+01   7.8125000E-03   1.3828956E-01
       21   -1    0    0  501  502  0.00000000000E+00  0.00000000000E+00  6.84047734829E+02  6.84047734829E+02  0.00000000000E+00  0.00000000000E+00  1.
       21   -1    0    0  502  501  0.00000000000E+00  0.00000000000E+00 -5.71040718160E+00  5.71040718160E+00  0.00000000000E+00  0.00000000000E+00  1.
       25    2    1    2    0    0  3.55271367880E-15  3.55271367880E-15  6.78337327648E+02  6.89758142011E+02  1.24999057557E+02  0.00000000000E+00  1.
       23    2    3    3    0    0  9.84310512269E+00  1.68280498638E+01  1.65994616857E+02  1.70857214864E+02  3.54669573648E+01  0.00000000000E+00  1.
       23    2    3    3    0    0 -9.84310512269E+00 -1.68280498638E+01  5.12342710791E+02  5.18900927147E+02  7.98939854648E+01  0.00000000000E+00  1.
        2    1    5    5  804    0  1.54698551125E+01 -1.33951550831E-01  4.42373534974E+02  4.42643964032E+02  7.62939453125E-06  0.00000000000E+00  1.
       -2    1    4    4    0  803  1.42609871185E+01  2.46131411036E+01  9.13175435519E+01  9.56455762075E+01  5.72204589844E-06  0.00000000000E+00  1.
        2    1    4    4  803    0 -4.41788199585E+00 -7.78509123977E+00  7.46770733053E+01  7.52116387562E+01  0.00000000000E+00  0.00000000000E+00  1.
       -2    1    5    5    0  804 -2.53129602351E+01 -1.66940983130E+01  6.99691758171E+01  7.62569633157E+01  1.34869915235E-06  0.00000000000E+00  1.
</event>
<event>
 9   0   9.9776186E-14   6.2499528E+01   7.8125000E-03   1.3828956E-01
       21   -1    0    0  501  502  0.00000000000E+00  0.00000000000E+00  8.16749479723E+02  8.16749479723E+02  0.00000000000E+00  0.00000000000E+00  1.
       21   -1    0    0  502  501  0.00000000000E+00  0.00000000000E+00 -4.78260597619E+00  4.78260597619E+00  0.00000000000E+00  0.00000000000E+00  1.
       25    2    1    2    0    0  0.00000000000E+00  0.00000000000E+00  8.11966873747E+02  8.21532085700E+02  1.24999055081E+02  0.00000000000E+00  1.
       23    2    3    3    0    0 -1.14674065128E+01 -2.04551160610E+01  4.46494818415E+02  4.50784098377E+02  5.74348961299E+01  0.00000000000E+00  1.
       23    2    3    3    0    0  1.14674065128E+01  2.04551160610E+01  3.65472055333E+02  3.70747987322E+02  5.77436896066E+01  0.00000000000E+00  1.
        5    1    4    4  804    0  8.92727703680E+00 -1.55013080902E+01  3.88258100593E+02  3.88698986369E+02  4.75000000000E+00  0.00000000000E+00  1.
       -5    1    4    4    0  804 -2.03946835496E+01 -4.95380797080E+00  5.82367178214E+01  6.20851120085E+01  4.75000000000E+00  0.00000000000E+00  1.
       15    1    5    5    0    0 -8.15393303091E+00 -1.40092423625E+01  1.96491156238E+02  1.97166622412E+02  1.77680000000E+00  0.00000000000E+00  1.
      -15    1    5    5    0    0  1.96213395437E+01  3.44643584235E+01  1.68980899095E+02  1.73581364910E+02  1.77680000000E+00  0.00000000000E+00  1.
</event>
<event>
 9   0   1.2817882E-15   6.2499527E+01   7.8125000E-03   1.3828956E-01
       21   -1    0    0  501  502  0.00000000000E+00  0.00000000000E+00  8.16753240769E+02  8.16753240769E+02  0.00000000000E+00  0.00000000000E+00  1.
       21   -1    0    0  502  501  0.00000000000E+00  0.00000000000E+00 -4.78258391557E+00  4.78258391557E+00  0.00000000000E+00  0.00000000000E+00  1.
       25    2    1    2    0    0 -1.77635683940E-15  0.00000000000E+00  8.11970656853E+02  8.21535824684E+02  1.24999054593E+02  0.00000000000E+00  1.
       23    2    3    3    0    0 -1.16605280773E+01 -1.89506298873E+01  5.20173868989E+02  5.24620953242E+02  6.44297781537E+01  0.00000000000E+00  1.
       23    2    3    3    0    0  1.16605280773E+01  1.89506298873E+01  2.91796787864E+02  2.96914871443E+02  5.01794897130E+01  0.00000000000E+00  1.
        3    1    4    4  804    0  1.07154959022E+01 -2.82782457974E+00  4.33996419203E+02  4.34137893215E+02  7.62939453125E-06  0.00000000000E+00  1.
       -3    1    4    4    0  804 -2.23760239796E+01 -1.61228053076E+01  8.61774497861E+01  9.04830601265E+01  1.34869915235E-06  0.00000000000E+00  1.
        5    1    5    5  803    0 -1.04392938776E+01 -8.86774875298E+00  1.48381004211E+02  1.49087560632E+02  4.75000000000E+00  0.00000000000E+00  1.
       -5    1    5    5    0  803  2.20998219549E+01  2.78183786403E+01  1.43415783653E+02  1.47827310810E+02  4.75000000000E+00  0.00000000000E+00  1.
</event>
<event>
 9   0   3.9284420E-14   6.2499527E+01   7.8125000E-03   1.3828956E-01
       21   -1    0    0  501  502  0.00000000000E+00  0.00000000000E+00  7.65403738124E+02  7.65403738124E+02  0.00000000000E+00  0.00000000000E+00  1.
       21   -1    0    0  502  501  0.00000000000E+00  0.00000000000E+00 -5.10343838994E+00  5.10343838994E+00  0.00000000000E+00  0.00000000000E+00  1.
       25    2    1    2    0    0 -5.32907051820E-15 -1.06581410364E-14  7.60300299734E+02  7.70507176514E+02  1.24999053132E+02  0.00000000000E+00  1.
       23    2    3    3    0    0  1.42097291973E+01  2.42780239085E+01  1.85205322373E+02  1.89080761644E+02  2.56745815879E+01  0.00000000000E+00  1.
       23    2    3    3    0    0 -1.42097291973E+01 -2.42780239085E+01  5.75094977361E+02  5.81426414870E+02  8.08152465453E+01  0.00000000000E+00  1.
        3    1    4    4  803    0  1.43516929565E+01  1.58590579536E+01  1.72610022375E+02  1.73930160220E+02  0.00000000000E+00  0.00000000000E+00  1.
       -3    1    4    4    0  803 -1.41963759211E-01  8.41896595488E+00  1.25952999982E+01  1.51506014238E+01  2.69739830470E-06  0.00000000000E+00  1.
        1    1    5    5  804    0 -3.09118750147E+01 -4.24777898040E+01  4.90305007416E+02  4.93111454887E+02  0.00000000000E+00  0.00000000000E+00  1.
       -1    1    5    5    0  804  1.67021458174E+01  1.81997658955E+01  8.47899699449E+01  8.83149600831E+01  1.65181236989E-06  0.00000000000E+00  1.
</event>
<event>
 9   0   7.3011705E-03   6.2499588E+01   7.8125000E-03   1.3828954E-01
       21   -1    0    0  501  502  0.00000000000E+00  0.00000000000E+00  8.16718394323E+02  8.16718394323E+02  0.00000000000E+00  0.00000000000E+00  1.
       21   -1    0    0  502  501  0.00000000000E+00  0.00000000000E+00 -4.78279723571E+00  4.78279723571E+00  0.00000000000E+00  0.00000000000E+00  1.
       25    2    1    2    0    0  8.88178419700E-16 -7.10542735760E-15  8.11935597087E+02  8.21501191558E+02  1.24999175657E+02  0.00000000000E+00  1.
       23    2    3    3    0    0  5.67460551203E+00 -2.04598780507E+01  3.11004672709E+02  3.16575881463E+02  5.51867241246E+01  0.00000000000E+00  1.
       23    2    3    3    0    0 -5.67460551203E+00  2.04598780507E+01  5.00930924378E+02  5.04925310095E+02  5.97241158939E+01  0.00000000000E+00  1.
       16    1    4    4    0    0  1.68377910620E+01 -3.50411821048E+00  2.72546287181E+02  2.73088389919E+02  3.81469726562E-06  0.00000000000E+00  1.
      -16    1    4    4    0    0 -1.11631855500E+01 -1.69557598403E+01  3.84583855285E+01  4.34874916446E+01  1.71926082395E-06  0.00000000000E+00  1.
       16    1    5    5    0    0 -9.72682442487E+00  6.51679946040E+00  1.62584825474E+01  2.00354197197E+01  5.25062454833E-06  0.00000000000E+00  1.
      -16    1    5    5    0    0  4.05221891283E+00  1.39430785903E+01  4.84672441830E+02  4.84889890375E+02  5.39479660939E-06  0.00000000000E+00  1.
</event>
<event>
 9   0   4.8583038E-18   6.2499527E+01   7.8125000E-03   1.3828956E-01
       21   -1    0    0  501  502  0.00000000000E+00  0.00000000000E+00  8.16740043852E+02  8.16740043852E+02  0.00000000000E+00  0.00000000000E+00  1.
       21   -1    0    0  502  501  0.00000000000E+00  0.00000000000E+00 -4.78266114889E+00  4.78266114889E+00  0.00000000000E+00  0.00000000000E+00  1.
       25    2    1    2    0    0 -4.44089209850E-15 -3.55271367880E-15  8.11957382703E+02  8.21522705001E+02  1.24999054020E+02  0.00000000000E+00  1.
       23    2    3    3    0    0  3.17855814062E+00  5.38829841657E+00  1.01628195805E+02  1.05730893394E+02  2.84885002011E+01  0.00000000000E+00  1.
       23    2    3    3    0    0 -3.17855814062E+00 -5.38829841657E+00  7.10329186898E+02  7.15791811607E+02  8.80410518561E+01  0.00000000000E+00  1.
        1    1    4    4  804    0  8.35577166223E+00  5.05553241763E+00  9.97293847641E+01  1.00206424612E+02  1.34869915235E-06  0.00000000000E+00  1.
       -1    1    4    4    0  804 -5.17721352161E+00  3.32765998939E-01  1.89881104056E+00  5.52446888182E+00  1.60904943784E-06  0.00000000000E+00  1.
       11    1    5    5    0    0 -2.12778498391E+01 -3.70979335821E+01  5.34700843479E+02  5.36408422368E+02  5.10998597706E-04  0.00000000000E+00  1.
      -11    1    5    5    0    0  1.80992916985E+01  3.17096351656E+01  1.75628343419E+02  1.79383389239E+02  5.11030633785E-04  0.00000000000E+00  1.
</event>
<event>
 9   0   1.0725282E-22   6.2499011E+01   7.8125000E-03   1.3828976E-01
       21   -1    0    0  501  502  0.00000000000E+00  0.00000000000E+00  8.16738631042E+02  8.16738631042E+02  0.00000000000E+00  0.00000000000E+00  1.
       21   -1    0    0  502  501  0.00000000000E+00  0.00000000000E+00 -4.78259051747E+00  4.78259051747E+00  0.00000000000E+00  0.00000000000E+00  1.
       25    2    1    2    0    0  3.55271367880E-15  3.55271367880E-15  8.11956040524E+02  8.21521221559E+02  1.24998022897E+02  0.00000000000E+00  1.
       23    2    3    3    0    0  3.15428155926E+01  2.75920941226E+01  5.52927320540E+02  5.57925671247E+02  6.16129853536E+01  0.00000000000E+00  1.
       23    2    3    3    0    0 -3.15428155926E+01 -2.75920941226E+01  2.59028719985E+02  2.63595550312E+02  2.51090321142E+01  0.00000000000E+00  1.
        5    1    4    4  803    0  9.19629893919E+00 -3.16786245786E+00  4.04109216344E+02  4.04254163245E+02  4.74999999999E+00  0.00000000000E+00  1.
       -5    1    4    4    0  803  2.23465166534E+01  3.07599565804E+01  1.48818104196E+02  1.53671508003E+02  4.75000000000E+00  0.00000000000E+00  1.
        5    1    5    5  804    0 -1.21256161744E+01 -1.29287531805E+01  1.75741163671E+02  1.76696639285E+02  4.75000000000E+00  0.00000000000E+00  1.
       -5    1    5    5    0  804 -1.94171994181E+01 -1.46633409421E+01  8.32875563138E+01  8.68989110263E+01  4.75000000000E+00  0.00000000000E+00  1.
</event>
<event>
 9   0   7.7080476E-21   6.2499528E+01   7.8125000E-03   1.3828956E-01
       21   -1    0    0  501  502  0.00000000000E+00  0.00000000000E+00  8.16719303805E+02  8.16719303805E+02  0.00000000000E+00  0.00000000000E+00  1.
       21   -1    0    0  502  501  0.00000000000E+00  0.00000000000E+00 -4.78278278518E+00  4.78278278518E+00  0.00000000000E+00  0.00000000000E+00  1.
       25    2    1    2    0    0 -3.55271367880E-15  3.55271367880E-15  8.11936521020E+02  8.21502086590E+02  1.24999056421E+02  0.00000000000E+00  1.
       23    2    3    3    0    0 -1.56153757143E+01  1.56774272989E+01  4.70544927236E+02  4.74550201900E+02  5.74085698333E+01  0.00000000000E+00  1.
       23    2    3    3    0    0  1.56153757143E+01 -1.56774272989E+01  3.41391593783E+02  3.46951884690E+02  5.77734220767E+01  0.00000000000E+00  1.
        4    1    4    4  804    0  6.66246529207E+00  1.39379157036E+01  4.04860504112E+02  4.05157139087E+02  1.27500000003E+00  0.00000000000E+00  1.
       -4    1    4    4    0  804 -2.22778410064E+01  1.73951159530E+00  6.56844231241E+01  6.93930628136E+01  1.27499999999E+00  0.00000000000E+00  1.
       15    1    5    5    0    0 -4.94840966809E+00 -3.02887267404E+01  2.57585337220E+02  2.59413293211E+02  1.77680000000E+00  0.00000000000E+00  1.
      -15    1    5    5    0    0  2.05637853824E+01  1.46112994415E+01  8.38062565635E+01  8.75385914786E+01  1.77680000000E+00  0.00000000000E+00  1.
</event>
<event>
 9   0   1.1756575E-18   6.2499528E+01   7.8125000E-03   1.3828956E-01
       21   -1    0    0  501  502  0.00000000000E+00  0.00000000000E+00  8.16731747879E+02  8.16731747879E+02  0.00000000000E+00  0.00000000000E+00  1.
       21   -1    0    0  502  501  0.00000000000E+00  0.00000000000E+00 -4.78270986121E+00  4.78270986121E+00  0.00000000000E+00  0.00000000000E+00  1.
       25    2    1    2    0    0 -3.55271367880E-15  0.00000000000E+00  8.11949038018E+02  8.21514457741E+02  1.24999055749E+02  0.00000000000E+00  1.
       23    2    3    3    0    0  1.18176372991E+01  2.00946365228E+01  1.34751291194E+02  1.38447944168E+02  2.15979581812E+01  0.00000000000E+00  1.
       23    2    3    3    0    0 -1.18176372991E+01 -2.00946365228E+01  6.77197746824E+02  6.83066513573E+02  8.62532474291E+01  0.00000000000E+00  1.
        2    1    4    4  804    0  1.13111639600E+01  1.20342714045E+01  1.23492726023E+02  1.24592212834E+02  1.90734863281E-06  0.00000000000E+00  1.
       -2    1    4    4    0  804  5.06473339092E-01  8.06036511826E+00  1.12585651711E+01  1.38557314338E+01  0.00000000000E+00  0.00000000000E+00  1.
        4    1    5    5  803    0 -3.09311541134E+01 -4.16704591026E+01  5.58711249124E+02  5.61117678370E+02  1.27499999990E+00  0.00000000000E+00  1.
       -4    1    5    5    0  803  1.91135168143E+01  2.15758225798E+01  1.18486497700E+02  1.21948835202E+02  1.27499999997E+00  0.00000000000E+00  1.
</event>
<event>
 9   0   1.0176868E-13   6.2499527E+01   7.8125000E-03   1.3828956E-01
       21   -1    0    0  501  502  0.00000000000E+00  0.00000000000E+00  8.16748443095E+02  8.16748443095E+02  0.00000000000E+00  0.00000000000E+00  1.
       21   -1    0    0  502  501  0.00000000000E+00  0.00000000000E+00 -4.78261191578E+00  4.78261191578E+00  0.00000000000E+00  0.00000000000E+00  1.
       25    2    1    2    0    0  1.06581410364E-14  5.32907051820E-15  8.11965831180E+02  8.21531055011E+02  1.24999053375E+02  0.00000000000E+00  1.
       23    2    3    3    0    0 -2.05963472947E+01 -2.71165073116E-01  2.11830201238E+02  2.15513520815E+02  3.39081176899E+01  0.00000000000E+00  1.
       23    2    3    3    0    0  2.05963472947E+01  2.71165073116E-01  6.00135629941E+02  6.06017534196E+02  8.16712579499E+01  0.00000000000E+00  1.
        3    1    4    4  803    0  6.12553086031E-01  3.31667727443E+00  1.50191690710E+02  1.50229556106E+02  0.00000000000E+00  0.00000000000E+00  1.
       -3    1    4    4    0  803 -2.12089003807E+01 -3.58784234755E+00  6.16385105282E+01  6.52839647096E+01  1.78416127528E-06  0.00000000000E+00  1.
       15    1    5    5    0    0 -8.73837243985E+00 -3.23108644559E+01  3.84792073058E+02  3.86249204039E+02  1.77680000000E+00  0.00000000000E+00  1.
      -15    1    5    5    0    0  2.93347197346E+01  3.25820295290E+01  2.15343556884E+02  2.19768330157E+02  1.77680000000E+00  0.00000000000E+00  1.
</event>
<event>
 9   0   1.8743035E-17   6.2499529E+01   7.8125000E-03   1.3828956E-01
       21   -1    0    0  501  502  0.00000000000E+00  0.00000000000E+00  8.16719863286E+02  8.16719863286E+02  0.00000000000E+00  0.00000000000E+00  1.
       21   -1    0    0  502  501  0.00000000000E+00  0.00000000000E+00 -4.78277957334E+00  4.78277957334E+00  0.00000000000E+00  0.00000000000E+00  1.
       25    2    1    2    0    0  5.32907051820E-15  0.00000000000E+00  8.11937083712E+02  8.21502642859E+02  1.24999057265E+02  0.00000000000E+00  1.
       23    2    3    3    0    0  1.32092807366E+01  2.14740424293E+01  1.59095218777E+02  1.62224806063E+02  1.92348503640E+01  0.00000000000E+00  1.
       23    2    3    3    0    0 -1.32092807366E+01 -2.14740424293E+01  6.52841864935E+02  6.59277836796E+02  8.83693718594E+01  0.00000000000E+00  1.
       16    1    4    4    0    0  1.20949513110E+01  1.36124712504E+01  1.44202030953E+02  1.45347215150E+02  2.69739830470E-06  0.00000000000E+00  1.
      -16    1    4    4    0    0  1.11432942559E+00  7.86157117888E+00  1.48931878243E+01  1.68775909133E+01  2.40790961703E-06  0.00000000000E+00  1.
       12    1    5    5    0    0 -3.15390280547E+01 -4.21514473196E+01  5.58413979058E+02  5.60890031041E+02  7.62939453125E-06  0.00000000000E+00  1.
      -12    1    5    5    0    0  1.83297473181E+01  2.06774048903E+01  9.44278858769E+01  9.83878059548E+01  3.56832255056E-06  0.00000000000E+00  1.
</event>
<event>
 9   0   1.2296232E-15   6.2499527E+01   7.8125000E-03   1.3828956E-01
       21   -1    0    0  501  502  0.00000000000E+00  0.00000000000E+00  8.16709836421E+02  8.16709836421E+02  0.00000000000E+00  0.00000000000E+00  1.
       21   -1    0    0  502  501  0.00000000000E+00  0.00000000000E+00 -4.78283800799E+00  4.78283800799E+00  0.00000000000E+00  0.00000000000E+00  1.
       25    2    1    2    0    0 -3.55271367880E-15  0.00000000000E+00  8.11926998413E+02  8.21492674429E+02  1.24999053550E+02  0.00000000000E+00  1.
       23    2    3    3    0    0  1.27088238200E+01  2.17142513734E+01  1.75461224996E+02  1.78615829014E+02  2.19988631927E+01  0.00000000000E+00  1.
       23    2    3    3    0    0 -1.27088238200E+01 -2.17142513734E+01  6.36465773417E+02  6.42876845415E+02  8.69996248464E+01  0.00000000000E+00  1.
        3    1    4    4  804    0  1.25615465256E+01  1.40873356424E+01  1.62376715318E+02  1.63470006995E+02  2.69739830470E-06  0.00000000000E+00  1.
       -3    1    4    4    0  804  1.47277294401E-01  7.62691573107E+00  1.30845096775E+01  1.51458222194E+01  1.80789838887E-06  0.00000000000E+00  1.
       14    1    5    5    0    0 -2.66943992958E+01 -4.63960315040E+01  5.30006221308E+02  5.32702334728E+02  1.32144989591E-05  0.00000000000E+00  1.
      -14    1    5    5    0    0  1.39855754758E+01  2.46817801306E+01  1.06459552110E+02  1.10174510887E+02  7.86419987796E-06  0.00000000000E+00  1.
</event>
<event>
 9   0   3.7862883E-17   6.2499586E+01   7.8125000E-03   1.3828954E-01
       21   -1    0    0  501  502  0.00000000000E+00  0.00000000000E+00  7.65092598259E+02  7.65092598259E+02  0.00000000000E+00  0.00000000000E+00  1.
       21   -1    0    0  502  501  0.00000000000E+00  0.00000000000E+00 -5.10552356926E+00  5.10552356926E+00  0.00000000000E+00  0.00000000000E+00  1.
       25    2    1    2    0    0  1.77635683940E-15  0.00000000000E+00  7.59987074689E+02  7.70198121828E+02  1.24999172687E+02  0.00000000000E+00  1.
       23    2    3    3    0    0  1.12797565229E+01  1.92672972595E+01  3.47125074708E+02  3.52766312067E+02  5.87349281774E+01  0.00000000000E+00  1.
       23    2    3    3    0    0 -1.12797565229E+01 -1.92672972595E+01  4.12861999982E+02  4.17431809760E+02  5.74092598807E+01  0.00000000000E+00  1.
        4    1    4    4  803    0  2.08994780924E+01  1.60186661377E+01  3.38086960576E+02  3.39113261885E+02  1.27500000001E+00  0.00000000000E+00  1.
       -4    1    4    4    0  803 -9.61972156955E+00  3.24863112186E+00  9.03811413129E+00  1.36530501827E+01  1.27500000000E+00  0.00000000000E+00  1.
       15    1    5    5    0    0 -3.03790145421E+01 -2.04617358817E+01  3.43649970785E+02  3.45600964407E+02  1.77679999999E+00  0.00000000000E+00  1.
      -15    1    5    5    0    0  1.90992580192E+01  1.19443862216E+00  6.92120291963E+01  7.18308453536E+01  1.77680000000E+00  0.00000000000E+00  1.
</event>
<event>
 9   0   2.4144974E-14   6.2499587E+01   7.8125000E-03   1.3828954E-01
       21   -1    0    0  501  502  0.00000000000E+00  0.00000000000E+00  7.65081582925E+02  7.65081582925E+02  0.00000000000E+00  0.00000000000E+00  1.
       21   -1    0    0  502  501  0.00000000000E+00  0.00000000000E+00 -5.10559726170E+00  5.10559726170E+00  0.00000000000E+00  0.00000000000E+00  1.
       25    2    1    2    0    0  1.77635683940E-15  3.55271367880E-15  7.59975985663E+02  7.70187180186E+02  1.24999174953E+02  0.00000000000E+00  1.
       23    2    3    3    0    0 -1.17804561832E+01 -2.00926742715E+01  4.21194375981E+02  4.25726445120E+02  5.74091369789E+01  0.00000000000E+00  1.
       23    2    3    3    0    0  1.17804561832E+01  2.00926742715E+01  3.38781609682E+02  3.44460735067E+02  5.77730407451E+01  0.00000000000E+00  1.
        5    1    4    4  803    0  6.93442938997E+00  3.20773316508E-01  3.34221389351E+02  3.34327218165E+02  4.75000000000E+00  0.00000000000E+00  1.
       -5    1    4    4    0  803 -1.87148855732E+01 -2.04134475881E+01  8.69729866307E+01  9.13992269547E+01  4.75000000000E+00  0.00000000000E+00  1.
        4    1    5    5  804    0 -1.14263384401E+01 -1.20715098935E+01  1.80976158614E+02  1.81742340067E+02  1.27500000000E+00  0.00000000000E+00  1.
       -4    1    5    5    0  804  2.32067946233E+01  3.21641841651E+01  1.57805451067E+02  1.62718394999E+02  1.27500000000E+00  0.00000000000E+00  1.
</event>
</LesHouchesEvents>
