<LesHouchesEvents version="1.0">
<!--
Output from the JHUGenerator v7.4.0 described in arXiv:1001.3396 [hep-ph], arXiv:1208.4018 [hep-ph], arXiv:1309.4819 [hep-ph], arXiv:1606.03107 [hep-ph]
   
   Command line: ./JHUGen Seed=765543533 PDFSet=3 Process=0 VegasNc0=100000 VegasNc2=100 DataFile=compare_to_reference/ggH_ZZ DecayMode1=9 DecayMode2=9 ghg2=0.383432074687728,0.918260989345657 ghg3=6294.49296087723,2253.12941717723 ghg4=0.335495485382528,0.17285803562226 ghz1=0.154934976270359,0.453918144016304 ghz2=0.469297059144414,0.745302300947002 ghz3=3947.40921062637,3597.4885961919 ghz4=0.177791270766536,0.920170534486048 ghzgs2=0.0240331049939919,0.232175381101053 ghzgs3=0.331962910170583,0.0450183240308457 ghzgs4=0.808286540247172,0.133184346613754 ghgsgs2=0.530394804029869,0.211218112389125 ghgsgs3=0.914978695198138,0.055650585081425 ghgsgs4=0.694524307167701,0.511424456076726 ghz1_prime=0.143354267833606,0.0910761280837012 ghz1_prime2=7416.7007267243,4861.35525489789 ghz1_prime3=4431.44656075298,4436.48625894176 ghz1_prime4=2441.69123517064,6946.16318931911 ghz1_prime5=78314042.889773,69465359.939181 ghz1_prime6=51233058.8130761,29537873.5850789 ghz1_prime7=47832192.9001564,59559649.9633293
   
   Input Parameter:
    Collider: P-P, sqrt(s)=13000.00
    Resonance: spin=0, mass= 125.00 width=   0.00407
    DecayMode1: 9  DecayMode2: 9
    Z boson: mass=91.188, width=2.4952
      m(gammastar) >=     4.00 GeV
    Random seed:   765543533
    To reproduce results using this seed, JHUGen should be compiled with the same compiler:
      GNU Fortran (GCC) 6.3.0
    
    OffXVV: TTT
    WidthScheme:   2
    PChannel: 0
    PDFSet:   3
    Unweighted: T
    Interference: T
    Intermediate off-shell photons: T
    
    Spin-0-VV couplings: 
      generate_as=F
      kappa_top=  0.10000000E+01  0.00000000E+00i
      kappa_bot=  0.10000000E+01  0.00000000E+00i
      ghg2=  0.38343207E+00  0.91826099E+00i
      ghg3=  0.62944930E+04  0.22531294E+04i
      ghg4=  0.33549549E+00  0.17285804E+00i
      ghz1=  0.15493498E+00  0.45391814E+00i
      ghz2=  0.46929706E+00  0.74530230E+00i
      ghz3=  0.39474092E+04  0.35974886E+04i
      ghz4=  0.17779127E+00  0.92017053E+00i
      ghz1_prime=   0.14335427E+00  0.91076128E-01i,    Lambda_z1=  1.0000E+04
      ghz1_prime2=  0.74167007E+04  0.48613553E+04i,    Lambda_z1=  1.0000E+04
      ghz1_prime3=  0.44314466E+04  0.44364863E+04i,    Lambda_z1=  1.0000E+04
      ghz1_prime4=  0.24416912E+04  0.69461632E+04i,    Lambda_z1=  1.0000E+04
      ghz1_prime5=  0.78314043E+08  0.69465360E+08i,    Lambda_z1=  1.0000E+04
      ghz1_prime6=  0.51233059E+08  0.29537874E+08i,    Lambda_z1=  1.0000E+04
      ghz1_prime7=  0.47832193E+08  0.59559650E+08i,    Lambda_z1=  1.0000E+04
      ghz2_prime=   0.57465793E+00  0.41992191E+00i,    Lambda_z2=  1.0000E+04
      ghz2_prime2=  0.43854587E+04  0.61761246E+04i,    Lambda_z2=  1.0000E+04
      ghz2_prime3=  0.45921696E+04  0.75499391E+04i,    Lambda_z2=  1.0000E+04
      ghz2_prime4=  0.84715906E+04  0.71997238E+04i,    Lambda_z2=  1.0000E+04
      ghz2_prime5=  0.19558280E+08  0.94843889E+08i,    Lambda_z2=  1.0000E+04
      ghz2_prime6=  0.23209661E+08  0.67617823E+08i,    Lambda_z2=  1.0000E+04
      ghz2_prime7=  0.70059904E+07  0.53660191E+08i,    Lambda_z2=  1.0000E+04
      ghz3_prime=   0.40457065E+04  0.19693161E+04i,    Lambda_z3=  1.0000E+04
      ghz3_prime2=  0.33402456E+08  0.37615919E+07i,    Lambda_z3=  1.0000E+04
      ghz3_prime3=  0.44855080E+08  0.12184926E+08i,    Lambda_z3=  1.0000E+04
      ghz3_prime4=  0.27878602E+08  0.78237524E+08i,    Lambda_z3=  1.0000E+04
      ghz3_prime5=  0.93246434E+12  0.63158085E+12i,    Lambda_z3=  1.0000E+04
      ghz3_prime6=  0.35811562E+12  0.41077746E+12i,    Lambda_z3=  1.0000E+04
      ghz3_prime7=  0.62298148E+12  0.61827857E+12i,    Lambda_z3=  1.0000E+04
      ghz4_prime=   0.41653395E+00  0.33115593E+00i,    Lambda_z4=  1.0000E+04
      ghz4_prime2=  0.75883756E+04  0.39234327E+04i,    Lambda_z4=  1.0000E+04
      ghz4_prime3=  0.89560755E+04  0.93020315E+04i,    Lambda_z4=  1.0000E+04
      ghz4_prime4=  0.32034411E+04  0.28637675E+04i,    Lambda_z4=  1.0000E+04
      ghz4_prime5=  0.49012574E+08  0.74595801E+08i,    Lambda_z4=  1.0000E+04
      ghz4_prime6=  0.73323810E+08  0.53968832E+08i,    Lambda_z4=  1.0000E+04
      ghz4_prime7=  0.68563876E+08  0.43025214E+08i,    Lambda_z4=  1.0000E+04
      ghzgs2=  0.24033105E-01  0.23217538E+00i
      ghzgs3=  0.33196291E+00  0.45018324E-01i
      ghzgs4=  0.80828654E+00  0.13318435E+00i
      ghzgs1_prime2=  0.56689643E+04  0.70176759E+04i,  Lambda_zgs1=  1.0000E+04
      ghgsgs2=  0.53039480E+00  0.21121811E+00i
      ghgsgs3=  0.91497870E+00  0.55650585E-01i
      ghgsgs4=  0.69452431E+00  0.51142446E+00i
      Lambda=  1000.0
      Lambda_Q=  10000.0
      Lambda_z11=   1.3888E+02
      Lambda_z21=   1.5452E+02
      Lambda_z31=   1.1998E+02
      Lambda_z41=   1.8136E+02
      Lambda_z12=   1.3667E+02
      Lambda_z22=   1.6659E+02
      Lambda_z32=   1.3884E+02
      Lambda_z42=   4.9064E+01
      Lambda_z10=   9.6973E+00
      Lambda_z20=   1.9326E+02
      Lambda_z30=   8.9204E+01
      Lambda_z40=   1.6167E+02
    
    LHE output: compare_to_reference/ggH_ZZ.lhe
    Histogram output: compare_to_reference/ggH_ZZ.dat
    Log file: compare_to_reference/ggH_ZZ.log
    
-->
<init>
2212 2212   6500.0000000000000000    6500.0000000000000000 0 0  263000  263000  3  1
 3.4368692E+09  3.6382693E+07  1.0000000E+00   0
</init>
<event>
 9   0   1.0000000E+00   6.2498976E+01   7.8125000E-03   1.3828977E-01
       21   -1    0    0  501  502  0.00000000000E+00  0.00000000000E+00  1.08170881545E+02  1.08170881545E+02  0.00000000000E+00 0.00000000000E+00  1.
       21   -1    0    0  502  501  0.00000000000E+00  0.00000000000E+00 -3.61106603302E+01  3.61106603302E+01  0.00000000000E+00 0.00000000000E+00  1.
       25    2    1    2    0    0  1.06581410364E-14 -3.99680288865E-15  7.20602212151E+01  1.44281541876E+02  1.24997951361E+02 0.00000000000E+00  1.
       23    2    3    3    0    0 -2.96973016910E+01  3.31130621160E+00  1.51604128167E+01  3.42894092495E+01  7.28223821042E+00 0.00000000000E+00  1.
       23    2    3    3    0    0  2.96973016910E+01 -3.31130621160E+00  5.68998083984E+01  1.09992132626E+02  8.92624588912E+01 0.00000000000E+00  1.
        3    1    4    4  803    0 -4.38711323668E-01 -7.89356417271E-01  1.47416591080E+00  1.72879041863E+00  0.00000000000E+00 0.00000000000E+00  1.
       -3    1    4    4    0  803 -2.92585903673E+01  4.10066262887E+00  1.36862469059E+01  3.25606188309E+01  0.00000000000E+00 0.00000000000E+00  1.
        5    1    5    5  804    0 -2.31748796305E+01  2.46172105566E+01  2.12397567067E+01  4.02091017860E+01  4.75000000000E+00 0.00000000000E+00  1.
       -5    1    5    5    0  804  5.28721813215E+01 -2.79285167682E+01  3.56600516917E+01  6.97830308401E+01  4.75000000000E+00 0.00000000000E+00  1.
</event>
<event>
 9   0   1.0000000E+00   6.2505933E+01   7.8125000E-03   1.3828717E-01
       21   -1    0    0  501  502  0.00000000000E+00  0.00000000000E+00  2.11676578266E+01  2.11676578266E+01  0.00000000000E+00 0.00000000000E+00  1.
       21   -1    0    0  502  501  0.00000000000E+00  0.00000000000E+00 -1.84573641462E+02  1.84573641462E+02  0.00000000000E+00 0.00000000000E+00  1.
       25    2    1    2    0    0  0.00000000000E+00  3.55271367880E-15 -1.63405983636E+02  2.05741299289E+02  1.25011866417E+02 0.00000000000E+00  1.
       23    2    3    3    0    0 -1.32849915434E+01  1.49536728790E+01 -5.00730895153E+00  2.14312203157E+01  5.84129509620E+00 0.00000000000E+00  1.
       23    2    3    3    0    0  1.32849915434E+01 -1.49536728790E+01 -1.58398674684E+02  1.84310078973E+02  9.20867077082E+01 0.00000000000E+00  1.
        4    1    4    4  803    0 -9.98939081521E+00  9.06904581794E+00 -1.25931333103E+00  1.36105479674E+01  1.27500000000E+00 0.00000000000E+00  1.
       -4    1    4    4    0  803 -3.29560072820E+00  5.88462706108E+00 -3.74799562049E+00  7.82067234827E+00  1.27500000000E+00 0.00000000000E+00  1.
        2    1    5    5  804    0  2.47371238033E+01 -3.78580055977E+01 -1.51041463631E+02  1.57666349034E+02  3.30362473978E-06 0.00000000000E+00  1.
       -2    1    5    5    0  804 -1.14521322599E+01  2.29043327187E+01 -7.35721105284E+00  2.66437299390E+01  2.12580615284E-06 0.00000000000E+00  1.
</event>
<event>
 9   0   1.0000000E+00   6.2507382E+01   7.8125000E-03   1.3828663E-01
       21   -1    0    0  501  502  0.00000000000E+00  0.00000000000E+00  7.17252064438E+00  7.17252064438E+00  0.00000000000E+00 0.00000000000E+00  1.
       21   -1    0    0  502  501  0.00000000000E+00  0.00000000000E+00 -5.44741933515E+02  5.44741933515E+02  0.00000000000E+00 0.00000000000E+00  1.
       25    2    1    2    0    0  3.55271367880E-15 -1.77635683940E-15 -5.37569412871E+02  5.51914454159E+02  1.25014763352E+02 0.00000000000E+00  1.
       23    2    3    3    0    0  1.00555203781E+01 -1.27436438916E+01 -4.25526892949E+02  4.35855114858E+02  9.29141032079E+01 0.00000000000E+00  1.
       23    2    3    3    0    0 -1.00555203781E+01  1.27436438916E+01 -1.12042519921E+02  1.16059339301E+02  2.55485815474E+01 0.00000000000E+00  1.
       13    1    4    4    0    0 -2.99372323224E+01  7.80082584728E+00 -5.93593459171E+01  6.69375371131E+01  1.05660000185E-01 0.00000000000E+00  1.
      -13    1    4    4    0    0  3.99927527005E+01 -2.05444697389E+01 -3.66167547032E+02  3.68917577745E+02  1.05660000228E-01 0.00000000000E+00  1.
       15    1    5    5    0    0 -4.57813543544E+00  1.53478802827E+01 -3.25945070519E+01  3.63603583788E+01  1.77680000000E+00 0.00000000000E+00  1.
      -15    1    5    5    0    0 -5.47738494265E+00 -2.60423639110E+00 -7.94480128694E+01  7.96989809227E+01  1.77680000000E+00 0.00000000000E+00  1.
</event>
<event>
 9   0   1.0000000E+00   6.2501307E+01   7.8125000E-03   1.3828890E-01
       21   -1    0    0  501  502  0.00000000000E+00  0.00000000000E+00  9.54377345743E+00  9.54377345743E+00  0.00000000000E+00 0.00000000000E+00  1.
       21   -1    0    0  502  501  0.00000000000E+00  0.00000000000E+00 -4.09315395329E+02  4.09315395329E+02  0.00000000000E+00 0.00000000000E+00  1.
       25    2    1    2    0    0 -3.55271367880E-15  1.42108547152E-14 -3.99771621872E+02  4.18859168787E+02  1.25002614463E+02 0.00000000000E+00  1.
       23    2    3    3    0    0  1.33690563355E+01 -7.31954147004E+00 -8.76404648071E+01  9.33089108775E+01  2.81672579939E+01 0.00000000000E+00  1.
       23    2    3    3    0    0 -1.33690563355E+01  7.31954147004E+00 -3.12131157065E+02  3.25550257909E+02  9.12403631053E+01 0.00000000000E+00  1.
        1    1    4    4  804    0  1.23653263431E+01  9.23915551718E+00 -4.17606060226E+01  4.45220339339E+01  0.00000000000E+00 0.00000000000E+00  1.
       -1    1    4    4    0  804  1.00372999239E+00 -1.65586969872E+01 -4.58798587846E+01  4.87868770435E+01  0.00000000000E+00 0.00000000000E+00  1.
       14    1    5    5    0    0 -4.53808836495E+00 -2.85188882879E+01 -3.24283790313E+01  4.34225864092E+01  3.26903085728E-06 0.00000000000E+00  1.
      -14    1    5    5    0    0 -8.83096797052E+00  3.58384297580E+01 -2.79702778034E+02  2.82127671700E+02  5.39479660939E-06 0.00000000000E+00  1.
</event>
<event>
 9   0   1.0000000E+00   6.2499287E+01   7.8125000E-03   1.3828965E-01
       21   -1    0    0  501  502  0.00000000000E+00  0.00000000000E+00  6.37099032601E+02  6.37099032601E+02  0.00000000000E+00 0.00000000000E+00  1.
       21   -1    0    0  502  501  0.00000000000E+00  0.00000000000E+00 -6.13116753678E+00  6.13116753678E+00  0.00000000000E+00 0.00000000000E+00  1.
       25    2    1    2    0    0  1.06581410364E-14  0.00000000000E+00  6.30967865064E+02  6.43230200138E+02  1.24998574494E+02 0.00000000000E+00  1.
       23    2    3    3    0    0 -1.31902014396E+01 -2.21314772808E+00  4.50529532509E+02  4.59875900957E+02  9.12694098863E+01 0.00000000000E+00  1.
       23    2    3    3    0    0  1.31902014396E+01  2.21314772808E+00  1.80438332555E+02  1.83354299181E+02  2.96972681576E+01 0.00000000000E+00  1.
        1    1    5    5  804    0 -4.06840974121E+00 -6.68253922664E+00  1.63963558651E+01  1.81672446350E+01  5.18526152871E-06 0.00000000000E+00  1.
       -1    1    4    4    0  803 -2.55946309586E+01 -3.79713292515E+01  3.39460627771E+02  3.42535289940E+02  6.60724947956E-06 0.00000000000E+00  1.
        1    1    4    4  803    0  1.24044295189E+01  3.57581815234E+01  1.11068904739E+02  1.17340611218E+02  3.01578298585E-06 0.00000000000E+00  1.
       -1    1    5    5    0  804  1.72586111808E+01  8.89568695472E+00  1.64041976690E+02  1.65187054646E+02  2.69739830470E-06 0.00000000000E+00  1.
</event>
<event>
 9   0   1.0000000E+00   6.2500988E+01   7.8125000E-03   1.3828902E-01
       21   -1    0    0  501  502  0.00000000000E+00  0.00000000000E+00  2.79532821113E+02  2.79532821113E+02  0.00000000000E+00 0.00000000000E+00  1.
       21   -1    0    0  502  501  0.00000000000E+00  0.00000000000E+00 -1.39746505621E+01  1.39746505621E+01  0.00000000000E+00 0.00000000000E+00  1.
       25    2    1    2    0    0  0.00000000000E+00 -8.88178419700E-16  2.65558170551E+02  2.93507471675E+02  1.25001975916E+02 0.00000000000E+00  1.
       23    2    3    3    0    0 -1.04451697739E+01 -4.59032841655E+00  1.34630222053E+02  1.59611845264E+02  8.49733591887E+01 0.00000000000E+00  1.
       23    2    3    3    0    0  1.04451697739E+01  4.59032841655E+00  1.30927948498E+02  1.33895626412E+02  2.56073893188E+01 0.00000000000E+00  1.
        2    1    4    4  804    0  1.32069120219E+01 -3.95230566264E+01  5.03077078062E+01  6.53250334479E+01  1.34869915235E-06 0.00000000000E+00  1.
       -2    1    4    4    0  804 -2.36520817957E+01  3.49327282099E+01  8.43225142470E+01  9.42868119158E+01  0.00000000000E+00 0.00000000000E+00  1.
        3    1    5    5  803    0 -5.04099460767E+00  2.81870474937E+00  7.39465536837E+00  9.38283821625E+00  2.20456624137E-06 0.00000000000E+00  1.
       -3    1    5    5    0  803  1.54861643815E+01  1.77162366718E+00  1.23533293129E+02  1.24512788395E+02  3.01578298585E-06 0.00000000000E+00  1.
</event>
<event>
 9   0   1.0000000E+00   6.2497702E+01   7.8125000E-03   1.3829024E-01
       21   -1    0    0  501  502  0.00000000000E+00  0.00000000000E+00  7.38242248295E+02  7.38242248295E+02  0.00000000000E+00 0.00000000000E+00  1.
       21   -1    0    0  502  501  0.00000000000E+00  0.00000000000E+00 -5.29089575339E+00  5.29089575339E+00  0.00000000000E+00 0.00000000000E+00  1.
       25    2    1    2    0    0 -3.55271367880E-15 -1.77635683940E-15  7.32951352542E+02  7.43533144049E+02  1.24995404339E+02 0.00000000000E+00  1.
       23    2    3    3    0    0 -2.55756717897E+01 -1.28529208448E+00  5.38597695473E+02  5.47453932377E+02  9.46708167450E+01 0.00000000000E+00  1.
       23    2    3    3    0    0  2.55756717897E+01  1.28529208448E+00  1.94353657069E+02  1.96079211671E+02  4.23630386449E+00 0.00000000000E+00  1.
        2    1    4    4  803    0 -5.50281903228E+01  1.37952815391E+01  4.35422268652E+02  4.39102452338E+02  5.39479660939E-06 0.00000000000E+00  1.
       -2    1    4    4    0  803  2.94525185331E+01 -1.50805736236E+01  1.03175426821E+02  1.08351480240E+02  5.22348935609E-06 0.00000000000E+00  1.
        2    1    5    5  804    0  2.50318957916E+01  8.39983779010E-01  1.91877531195E+02  1.93505267102E+02  2.69739830470E-06 0.00000000000E+00  1.
       -2    1    5    5    0  804  5.43775998068E-01  4.45308305473E-01  2.47612587335E+00  2.57394476989E+00  2.49717854482E-06 0.00000000000E+00  1.
</event>
<event>
 9   0   1.0000000E+00   6.2496195E+01   7.8125000E-03   1.3829081E-01
       21   -1    0    0  501  502  0.00000000000E+00  0.00000000000E+00  1.56617407443E+01  1.56617407443E+01  0.00000000000E+00 0.00000000000E+00  1.
       21   -1    0    0  502  501  0.00000000000E+00  0.00000000000E+00 -2.49383155490E+02  2.49383155490E+02  0.00000000000E+00 0.00000000000E+00  1.
       25    2    1    2    0    0  6.66133814775E-16 -1.77635683940E-15 -2.33721414746E+02  2.65044896235E+02  1.24992389005E+02 0.00000000000E+00  1.
       23    2    3    3    0    0 -1.66482836669E+00  1.05394822893E+01 -2.34245231374E+02  2.53421388811E+02  9.61130560599E+01 0.00000000000E+00  1.
       23    2    3    3    0    0  1.66482836669E+00 -1.05394822893E+01  5.23816627640E-01  1.16235074236E+01  4.58030572653E+00 0.00000000000E+00  1.
        4    1    4    4  804    0  3.77271991338E+00  8.05211918625E+00  7.43683840120E+00  1.16619993715E+01  1.27500000000E+00 0.00000000000E+00  1.
       -4    1    4    4    0  804 -5.43754828006E+00  2.48736310310E+00 -2.41682069775E+02  2.41759389440E+02  1.27500000000E+00 0.00000000000E+00  1.
       11    1    5    5    0    0  1.78579493892E+00 -1.93758706281E+00 -1.12337352986E+00  2.86448521353E+00  5.11000004280E-04 0.00000000000E+00  1.
      -11    1    5    5    0    0 -1.20966572230E-01 -8.60189522654E+00  1.64719015750E+00  8.75902221005E+00  5.10999957786E-04 0.00000000000E+00  1.
</event>
<event>
 9   0   1.0000000E+00   6.2499633E+01   7.8125000E-03   1.3828952E-01
       21   -1    0    0  501  502  0.00000000000E+00  0.00000000000E+00  6.37832560675E+02  6.37832560675E+02  0.00000000000E+00 0.00000000000E+00  1.
       21   -1    0    0  502  501  0.00000000000E+00  0.00000000000E+00 -6.12418420944E+00  6.12418420944E+00  0.00000000000E+00 0.00000000000E+00  1.
       25    2    1    2    0    0  0.00000000000E+00 -7.10542735760E-15  6.31708376466E+02  6.43956744885E+02  1.24999265540E+02 0.00000000000E+00  1.
       23    2    3    3    0    0  5.24743040706E+00 -5.14429887491E+00  4.65946439068E+02  4.74921665647E+02  9.15997002389E+01 0.00000000000E+00  1.
       23    2    3    3    0    0 -5.24743040706E+00  5.14429887491E+00  1.65761937398E+02  1.69035079238E+02  3.22775275737E+01 0.00000000000E+00  1.
       12    1    4    4    0    0 -9.30503169895E+00 -4.68263188521E+01  2.43916478983E+02  2.48544837950E+02  2.69739830470E-06 0.00000000000E+00  1.
      -12    1    4    4    0    0  1.45524621060E+01  4.16820199772E+01  2.22029960085E+02  2.26376827797E+02  2.69739830470E-06 0.00000000000E+00  1.
        3    1    5    5  803    0  1.29493936973E+00 -3.89073896816E+00  1.45673403769E+00  4.35164251939E+00  2.63181675009E-06 0.00000000000E+00  1.
       -3    1    5    5    0  803 -6.54236977679E+00  9.03503784307E+00  1.64305203360E+02  1.64683436819E+02  0.00000000000E+00 0.00000000000E+00  1.
</event>
<event>
 9   0   1.0000000E+00   6.2500029E+01   7.8125000E-03   1.3828938E-01
       21   -1    0    0  501  502  0.00000000000E+00  0.00000000000E+00  1.20346433129E+02  1.20346433129E+02  0.00000000000E+00 0.00000000000E+00  1.
       21   -1    0    0  502  501  0.00000000000E+00  0.00000000000E+00 -3.24584076675E+01  3.24584076675E+01  0.00000000000E+00 0.00000000000E+00  1.
       25    2    1    2    0    0 -3.55271367880E-15 -7.10542735760E-15  8.78880254613E+01  1.52804840796E+02  1.25000057405E+02 0.00000000000E+00  1.
       23    2    3    3    0    0 -1.97999586730E+01 -1.87776316877E+01  1.53972071843E+01  5.88062480285E+01  4.97640734151E+01 0.00000000000E+00  1.
       23    2    3    3    0    0  1.97999586730E+01  1.87776316877E+01  7.24908182770E+01  9.39985927678E+01  5.32557874095E+01 0.00000000000E+00  1.
        3    1    4    4  804    0 -2.09067704901E+01  1.31525948633E+01  8.49404998453E+00  2.61195844976E+01  0.00000000000E+00 0.00000000000E+00  1.
       -3    1    4    4    0  804  1.10681181710E+00 -3.19302265510E+01  6.90315719974E+00  3.26866636309E+01  0.00000000000E+00 0.00000000000E+00  1.
        1    1    5    5  803    0  2.31210811168E+01  8.79542781767E+00  7.82067646230E+01  8.20258616249E+01  0.00000000000E+00 0.00000000000E+00  1.
       -1    1    5    5    0  803 -3.32112244389E+00  9.98220387001E+00 -5.71594634599E+00  1.19727312429E+01  1.24172369575E-06 0.00000000000E+00  1.
</event>
<event>
 9   0   1.0000000E+00   6.2500304E+01   7.8125000E-03   1.3828927E-01
       21   -1    0    0  501  502  0.00000000000E+00  0.00000000000E+00  2.66811785924E+02  2.66811785924E+02  0.00000000000E+00 0.00000000000E+00  1.
       21   -1    0    0  502  501  0.00000000000E+00  0.00000000000E+00 -1.46406126912E+01  1.46406126912E+01  0.00000000000E+00 0.00000000000E+00  1.
       25    2    1    2    0    0  1.77635683940E-15  0.00000000000E+00  2.52171173233E+02  2.81452398615E+02  1.25000608305E+02 0.00000000000E+00  1.
       23    2    3    3    0    0 -9.21032053844E+00 -1.50442844909E+01  3.40000081517E+01  4.46178261042E+01  2.28820748991E+01 0.00000000000E+00  1.
       23    2    3    3    0    0  9.21032053844E+00  1.50442844909E+01  2.18171165081E+02  2.36834572511E+02  9.04477581995E+01 0.00000000000E+00  1.
       15    1    4    4    0    0 -4.80750024793E+00  3.92293981533E+00  1.87247083182E+01  1.98058889038E+01  1.77680000000E+00 0.00000000000E+00  1.
      -15    1    4    4    0    0 -4.40282029050E+00 -1.89672243063E+01  1.52752998334E+01  2.48119372004E+01  1.77680000000E+00 0.00000000000E+00  1.
        1    1    5    5  804    0  4.38245539327E+01  2.30156117327E+01  7.92074536620E+01  9.34030547955E+01  1.90734863281E-06 0.00000000000E+00  1.
       -1    1    5    5    0  804 -3.46142333942E+01 -7.97132724178E+00  1.38963711419E+02  1.43431517916E+02  1.90734863281E-06 0.00000000000E+00  1.
</event>
<event>
 9   0   1.0000000E+00   6.2468677E+01   7.8125000E-03   1.3830108E-01
       21   -1    0    0  501  502  0.00000000000E+00  0.00000000000E+00  3.52005257287E+01  3.52005257287E+01  0.00000000000E+00 0.00000000000E+00  1.
       21   -1    0    0  502  501  0.00000000000E+00  0.00000000000E+00 -1.10860152233E+02  1.10860152233E+02  0.00000000000E+00 0.00000000000E+00  1.
       25    2    1    2    0    0 -3.55271367880E-15  3.55271367880E-15 -7.56596265043E+01  1.46060677962E+02  1.24937354558E+02 0.00000000000E+00  1.
       23    2    3    3    0    0  1.11285372502E+01 -2.40732536025E+01 -6.85721055384E+01  1.16467289163E+02  9.03279021486E+01 0.00000000000E+00  1.
       23    2    3    3    0    0 -1.11285372502E+01  2.40732536025E+01 -7.08752096589E+00  2.95933887991E+01  1.10530460433E+01 0.00000000000E+00  1.
        1    1    4    4  804    0  4.61583293134E+00 -2.70081424608E+01 -8.98958786223E+01  9.39787990246E+01  0.00000000000E+00 0.00000000000E+00  1.
       -1    1    4    4    0  804  6.51270431889E+00  2.93488885833E+00  2.13237730838E+01  2.24884901380E+01  1.48892354927E-06 0.00000000000E+00  1.
       15    1    5    5    0    0 -8.41372033061E+00  2.26654944269E+01 -3.39197696756E+00  2.44781096780E+01  1.77680000000E+00 0.00000000000E+00  1.
      -15    1    5    5    0    0 -2.71481691962E+00  1.40775917554E+00 -3.69554399833E+00  5.11527912112E+00  1.77680000000E+00 0.00000000000E+00  1.
</event>
<event>
 9   0   1.0000000E+00   6.2498790E+01   7.8125000E-03   1.3828984E-01
       21   -1    0    0  501  502  0.00000000000E+00  0.00000000000E+00  3.78273847239E+00  3.78273847239E+00  0.00000000000E+00 0.00000000000E+00  1.
       21   -1    0    0  502  501  0.00000000000E+00  0.00000000000E+00 -1.03261135685E+03  1.03261135685E+03  0.00000000000E+00 0.00000000000E+00  1.
       25    2    1    2    0    0  0.00000000000E+00 -4.44089209850E-16 -1.02882861838E+03  1.03639409532E+03  1.24997579282E+02 0.00000000000E+00  1.
       23    2    3    3    0    0  9.84042017072E+00 -5.60592289593E+00 -5.28243564625E+02  5.35008157075E+02  8.40488211026E+01 0.00000000000E+00  1.
       23    2    3    3    0    0 -9.84042017072E+00  5.60592289593E+00 -5.00585053755E+02  5.01385938249E+02  2.59654152817E+01 0.00000000000E+00  1.
        3    1    5    5  804    0  5.70138757484E+00  2.99891252228E+00 -3.32823796225E+02  3.32886134732E+02  7.62939453125E-06 0.00000000000E+00  1.
       -3    1    4    4    0  803  4.57729688247E+01 -2.42162598446E-01 -3.59187278387E+02  3.62092148969E+02  5.39479660939E-06 0.00000000000E+00  1.
        3    1    4    4  803    0 -3.59325486540E+01 -5.36376029748E+00 -1.69056286238E+02  1.72916008306E+02  4.26496119976E-06 0.00000000000E+00  1.
       -3    1    5    5    0  804 -1.55418077456E+01  2.60701037365E+00 -1.67761257530E+02  1.68499803717E+02  3.30362473978E-06 0.00000000000E+00  1.
</event>
<event>
 9   0   1.0000000E+00   6.2500413E+01   7.8125000E-03   1.3828923E-01
       21   -1    0    0  501  502  0.00000000000E+00  0.00000000000E+00  2.01781469706E+01  2.01781469706E+01  0.00000000000E+00 0.00000000000E+00  1.
       21   -1    0    0  502  501  0.00000000000E+00  0.00000000000E+00 -1.93590703318E+02  1.93590703318E+02  0.00000000000E+00 0.00000000000E+00  1.
       25    2    1    2    0    0  0.00000000000E+00 -3.55271367880E-15 -1.73412556348E+02  2.13768850289E+02  1.25000826616E+02 0.00000000000E+00  1.
       23    2    3    3    0    0 -8.53643101391E+00 -1.10767323582E+01 -4.88916787756E+01  5.69034267913E+01  2.55350557648E+01 0.00000000000E+00  1.
       23    2    3    3    0    0  8.53643101391E+00  1.10767323582E+01 -1.24520877572E+02  1.56865423497E+02  9.43702680060E+01 0.00000000000E+00  1.
        4    1    4    4  803    0  2.19666901160E-01 -5.49273532751E+00  1.16742692358E+00  5.76254332283E+00  1.27500000000E+00 0.00000000000E+00  1.
       -4    1    4    4    0  803 -8.75609791507E+00 -5.58399703065E+00 -5.00591056991E+01  5.11408834685E+01  1.27500000000E+00 0.00000000000E+00  1.
       16    1    5    5    0    0 -9.62532782980E-01 -2.54256290448E+01  1.33529985025E+00  2.54788560845E+01  2.43569040610E-06 0.00000000000E+00  1.
      -16    1    5    5    0    0  9.49896379689E+00  3.65023614030E+01 -1.25856177422E+02  1.31386567413E+02  1.90734863281E-06 0.00000000000E+00  1.
</event>
<event>
 9   0   1.0000000E+00   6.2499116E+01   7.8125000E-03   1.3828972E-01
       21   -1    0    0  501  502  0.00000000000E+00  0.00000000000E+00  9.66836539296E+01  9.66836539296E+01  0.00000000000E+00 0.00000000000E+00  1.
       21   -1    0    0  502  501  0.00000000000E+00  0.00000000000E+00 -4.04012403990E+01  4.04012403990E+01  0.00000000000E+00 0.00000000000E+00  1.
       25    2    1    2    0    0  5.32907051820E-15  5.32907051820E-15  5.62824135306E+01  1.37084894329E+02  1.24998232709E+02 0.00000000000E+00  1.
       23    2    3    3    0    0  1.39887147511E+01 -1.03719834999E+01  4.62660210200E+01  1.04563046261E+02  9.21391543273E+01 0.00000000000E+00  1.
       23    2    3    3    0    0 -1.39887147511E+01  1.03719834999E+01  1.00163925106E+01  3.25218480681E+01  2.55749936604E+01 0.00000000000E+00  1.
        1    1    4    4  804    0 -3.60292539271E+00  3.42757455317E+01 -4.43964708910E+00  3.47493635829E+01  1.72956205947E-06 0.00000000000E+00  1.
       -1    1    4    4    0  804  1.75916401438E+01 -4.46477290316E+01  5.07056681091E+01  6.98136826777E+01  1.65181236989E-06 0.00000000000E+00  1.
        5    1    5    5  803    0 -8.87895915734E-01  1.49808151743E+01  2.20383114457E+00  1.58944189626E+01  4.75000000000E+00 0.00000000000E+00  1.
       -5    1    5    5    0  803 -1.31008188354E+01 -4.60883167444E+00  7.81256136600E+00  1.66274291055E+01  4.75000000000E+00 0.00000000000E+00  1.
</event>
<event>
 9   0   1.0000000E+00   6.2500334E+01   7.8125000E-03   1.3828926E-01
       21   -1    0    0  501  502  0.00000000000E+00  0.00000000000E+00  2.09205532456E+01  2.09205532456E+01  0.00000000000E+00 0.00000000000E+00  1.
       21   -1    0    0  502  501  0.00000000000E+00  0.00000000000E+00 -1.86720286521E+02  1.86720286521E+02  0.00000000000E+00 0.00000000000E+00  1.
       25    2    1    2    0    0 -2.66453525910E-15  0.00000000000E+00 -1.65799733275E+02  2.07640839767E+02  1.25000667137E+02 0.00000000000E+00  1.
       23    2    3    3    0    0 -5.13535139736E+00 -1.92615934514E+01 -4.37193492220E+01  5.42597523557E+01  2.52063169274E+01 0.00000000000E+00  1.
       23    2    3    3    0    0  5.13535139736E+00  1.92615934514E+01 -1.22080384053E+02  1.53381087411E+02  9.06904459602E+01 0.00000000000E+00  1.
        1    1    4    4  803    0  6.93234957997E+00 -9.27320757052E+00 -3.37760308053E+01  3.57053232209E+01  0.00000000000E+00 0.00000000000E+00  1.
       -1    1    4    4    0  803 -1.20677009773E+01 -9.98838588086E+00 -9.94331841669E+00  1.85544292348E+01  0.00000000000E+00 0.00000000000E+00  1.
        3    1    5    5  804    0 -3.91093439572E+01 -4.58758675836E+00 -3.42647583865E+01  5.21982798065E+01  1.50789149292E-06 0.00000000000E+00  1.
       -3    1    5    5    0  804  4.42446953545E+01  2.38491802097E+01 -8.78156256668E+01  1.01182807804E+02  1.34869915235E-06 0.00000000000E+00  1.
</event>
<event>
 9   0   1.0000000E+00   6.2500193E+01   7.8125000E-03   1.3828931E-01
       21   -1    0    0  501  502  0.00000000000E+00  0.00000000000E+00  3.72896137657E+01  3.72896137657E+01  0.00000000000E+00 0.00000000000E+00  1.
       21   -1    0    0  502  501  0.00000000000E+00  0.00000000000E+00 -1.04755016667E+02  1.04755016667E+02  0.00000000000E+00 0.00000000000E+00  1.
       25    2    1    2    0    0  0.00000000000E+00  0.00000000000E+00 -6.74654029010E+01  1.42044630432E+02  1.25000385784E+02 0.00000000000E+00  1.
       23    2    3    3    0    0  6.26566392561E+00 -2.79060623463E+01 -2.48561151408E+01  3.83358822199E+01  5.81433965142E+00 0.00000000000E+00  1.
       23    2    3    3    0    0 -6.26566392561E+00  2.79060623463E+01 -4.26092877603E+01  1.03708748213E+02  9.01218408172E+01 0.00000000000E+00  1.
       13    1    5    5    0    0 -2.75075018149E+01  5.40717257893E+01 -3.04522048414E+01  6.78804988908E+01  1.05660000010E-01 0.00000000000E+00  1.
      -13    1    4    4    0    0  3.64974172725E+00 -2.44233462828E+01 -1.97324037324E+01  3.16101151441E+01  1.05660000007E-01 0.00000000000E+00  1.
       13    1    4    4    0    0  2.61592219836E+00 -3.48271606347E+00 -5.12371140833E+00  6.72576707581E+00  1.05660000000E-01 0.00000000000E+00  1.
      -13    1    5    5    0    0  2.12418378893E+01 -2.61656634431E+01 -1.21570829189E+01  3.58282493217E+01  1.05660000001E-01 0.00000000000E+00  1.
</event>
<event>
 9   0   1.0000000E+00   6.2498817E+01   7.8125000E-03   1.3828983E-01
       21   -1    0    0  501  502  0.00000000000E+00  0.00000000000E+00  5.61579852436E+01  5.61579852436E+01  0.00000000000E+00 0.00000000000E+00  1.
       21   -1    0    0  502  501  0.00000000000E+00  0.00000000000E+00 -6.95555965948E+01  6.95555965948E+01  0.00000000000E+00 0.00000000000E+00  1.
       25    2    1    2    0    0  3.55271367880E-15 -4.44089209850E-15 -1.33976113512E+01  1.25713581838E+02  1.24997634652E+02 0.00000000000E+00  1.
       23    2    3    3    0    0  1.90342499885E+01 -4.44434314753E+00 -3.08252451574E+01  9.80091114931E+01  9.09589761267E+01 0.00000000000E+00  1.
       23    2    3    3    0    0 -1.90342499885E+01  4.44434314753E+00  1.74276338062E+01  2.77044703453E+01  9.04214567409E+00 0.00000000000E+00  1.
        1    1    4    4  804    0  4.34588201935E+01  2.57220553744E+01 -3.66030950865E+00  5.06329048247E+01  1.46000966000E-06 0.00000000000E+00  1.
       -1    1    4    4    0  804 -2.44245702050E+01 -3.01663985219E+01 -2.71649356487E+01  4.73762066683E+01  1.61703347757E-06 0.00000000000E+00  1.
       13    1    5    5    0    0 -4.77162583120E+00 -2.45227278867E+00  6.64199589818E+00  8.53869594552E+00  1.05660000000E-01 0.00000000000E+00  1.
      -13    1    5    5    0    0 -1.42626241573E+01  6.89661593619E+00  1.07856379080E+01  1.91657743997E+01  1.05660000001E-01 0.00000000000E+00  1.
</event>
<event>
 9   0   1.0000000E+00   6.2494969E+01   7.8125000E-03   1.3829126E-01
       21   -1    0    0  501  502  0.00000000000E+00  0.00000000000E+00  2.45060615490E+02  2.45060615490E+02  0.00000000000E+00 0.00000000000E+00  1.
       21   -1    0    0  502  501  0.00000000000E+00  0.00000000000E+00 -1.59373676011E+01  1.59373676011E+01  0.00000000000E+00 0.00000000000E+00  1.
       25    2    1    2    0    0  0.00000000000E+00 -3.55271367880E-15  2.29123247889E+02  2.60997983091E+02  1.24989937413E+02 0.00000000000E+00  1.
       23    2    3    3    0    0 -1.00303112503E+01  2.50684896686E+01  1.68915572915E+02  1.94063793735E+02  9.16474164823E+01 0.00000000000E+00  1.
       23    2    3    3    0    0  1.00303112503E+01 -2.50684896686E+01  6.02076749741E+01  6.69341893555E+01  1.12332213034E+01 0.00000000000E+00  1.
        1    1    4    4  803    0 -2.19295720162E+01  1.90754993770E+01  1.76402574151E+02  1.78781008522E+02  3.30362473978E-06 0.00000000000E+00  1.
       -1    1    4    4    0  803  1.18992607659E+01  5.99299029160E+00 -7.48700123665E+00  1.52827854131E+01  3.87017323512E-06 0.00000000000E+00  1.
       13    1    5    5    0    0  5.13621369287E+00 -1.90215034002E+01  3.11936633871E+01  3.68951769510E+01  1.05660000001E-01 0.00000000000E+00  1.
      -13    1    5    5    0    0  4.89409755745E+00 -6.04698626833E+00  2.90140115869E+01  3.00390124044E+01  1.05660000000E-01 0.00000000000E+00  1.
</event>
<event>
 9   0   1.0000000E+00   6.2500551E+01   7.8125000E-03   1.3828918E-01
       21   -1    0    0  501  502  0.00000000000E+00  0.00000000000E+00  7.80911428678E+00  7.80911428678E+00  0.00000000000E+00 0.00000000000E+00  1.
       21   -1    0    0  502  501  0.00000000000E+00  0.00000000000E+00 -5.00225597274E+02  5.00225597274E+02  0.00000000000E+00 0.00000000000E+00  1.
       25    2    1    2    0    0 -1.77635683940E-15  7.10542735760E-15 -4.92416482988E+02  5.08034711561E+02  1.25001101728E+02 0.00000000000E+00  1.
       23    2    3    3    0    0 -1.21453289677E+01  1.87424732353E+01 -4.02857371477E+02  4.13821075113E+02  9.19512432482E+01 0.00000000000E+00  1.
       23    2    3    3    0    0  1.21453289677E+01 -1.87424732353E+01 -8.95591115101E+01  9.42136364485E+01  1.88834721296E+01 0.00000000000E+00  1.
       14    1    4    4    0    0  2.13252434207E+01  1.28378298271E+01 -2.81544611400E+01  3.75799090434E+01  6.22633211956E-06 0.00000000000E+00  1.
      -14    1    4    4    0    0 -3.34705723884E+01  5.90464340821E+00 -3.74702910337E+02  3.76241166069E+02  5.39479660939E-06 0.00000000000E+00  1.
        1    1    5    5  804    0  5.82799978392E-01  3.71876370430E+00 -1.60213465702E+01  1.64575942506E+01  1.63451542864E-06 0.00000000000E+00  1.
       -1    1    5    5    0  804  1.15625289893E+01 -2.24612369396E+01 -7.35377649399E+01  7.77560423979E+01  1.65181236989E-06 0.00000000000E+00  1.
</event>
<event>
 9   0   1.0000000E+00   6.2502843E+01   7.8125000E-03   1.3828832E-01
       21   -1    0    0  501  502  0.00000000000E+00  0.00000000000E+00  3.32166879472E+01  3.32166879472E+01  0.00000000000E+00 0.00000000000E+00  1.
       21   -1    0    0  502  501  0.00000000000E+00  0.00000000000E+00 -1.17609720429E+02  1.17609720429E+02  0.00000000000E+00 0.00000000000E+00  1.
       25    2    1    2    0    0  0.00000000000E+00  3.55271367880E-15 -8.43930324820E+01  1.50826408376E+02  1.25005686000E+02 0.00000000000E+00  1.
       23    2    3    3    0    0  1.04455601497E+01 -8.84182928339E+00 -6.84775219767E+01  1.15234888978E+02  9.16658112376E+01 0.00000000000E+00  1.
       23    2    3    3    0    0 -1.04455601497E+01  8.84182928339E+00 -1.59155105054E+01  3.55915193982E+01  2.87430879779E+01 0.00000000000E+00  1.
        4    1    4    4  803    0  1.35118288632E+01 -1.61721419206E+01  1.83880256324E+01  2.79973713978E+01  1.27500000000E+00 0.00000000000E+00  1.
       -4    1    4    4    0  803 -3.06626871358E+00  7.33031263719E+00 -8.68655476090E+01  8.72375175804E+01  1.27500000000E+00 0.00000000000E+00  1.
        3    1    5    5  804    0 -1.80742978091E+01  1.08858080121E+01 -1.76467758457E+01  2.75061766721E+01  0.00000000000E+00 0.00000000000E+00  1.
       -3    1    5    5    0  804  7.62873765944E+00 -2.04397872868E+00  1.73126534032E+00  8.08534272610E+00  0.00000000000E+00 0.00000000000E+00  1.
</event>
<event>
 9   0   1.0000000E+00   6.2500148E+01   7.8125000E-03   1.3828933E-01
       21   -1    0    0  501  502  0.00000000000E+00  0.00000000000E+00  4.61061540733E+00  4.61061540733E+00  0.00000000000E+00 0.00000000000E+00  1.
       21   -1    0    0  502  501  0.00000000000E+00  0.00000000000E+00 -8.47233640382E+02  8.47233640382E+02  0.00000000000E+00 0.00000000000E+00  1.
       25    2    1    2    0    0  0.00000000000E+00  3.55271367880E-15 -8.42623024975E+02  8.51844255789E+02  1.25000295615E+02 0.00000000000E+00  1.
       23    2    3    3    0    0 -1.88532206987E+01  1.69469141068E+01 -5.54658003394E+02  5.62605406175E+02  9.07562697554E+01 0.00000000000E+00  1.
       23    2    3    3    0    0  1.88532206987E+01 -1.69469141068E+01 -2.87965021581E+02  2.89238849615E+02  9.62375414161E+00 0.00000000000E+00  1.
        5    1    4    4  804    0  8.13412132926E+00  2.81330468731E+01 -5.87607587439E+01  6.58256904584E+01  4.75000000000E+00 0.00000000000E+00  1.
       -5    1    4    4    0  804 -2.69873420280E+01 -1.11861327663E+01 -4.95897244650E+02  4.96779715716E+02  4.74999999999E+00 0.00000000000E+00  1.
        2    1    5    5  803    0  1.52853496220E+01 -1.54869820154E+01 -1.98161498868E+02  1.99352622753E+02  3.81469726562E-06 0.00000000000E+00  1.
       -2    1    5    5    0  803  3.56787107675E+00 -1.45993209135E+00 -8.98035227128E+01  8.98862269614E+01  0.00000000000E+00 0.00000000000E+00  1.
</event>
<event>
 9   0   1.0000000E+00   6.2501579E+01   7.8125000E-03   1.3828880E-01
       21   -1    0    0  501  502  0.00000000000E+00  0.00000000000E+00  4.58311533174E+00  4.58311533174E+00  0.00000000000E+00 0.00000000000E+00  1.
       21   -1    0    0  502  501  0.00000000000E+00  0.00000000000E+00 -8.52356340263E+02  8.52356340263E+02  0.00000000000E+00 0.00000000000E+00  1.
       25    2    1    2    0    0  7.77156117238E-16 -3.55271367880E-15 -8.47773224931E+02  8.56939455595E+02  1.25003158539E+02 0.00000000000E+00  1.
       23    2    3    3    0    0  7.09159818898E-01 -1.52876555929E+01 -8.17672807633E+02  8.22867266301E+02  9.10357198387E+01 0.00000000000E+00  1.
       23    2    3    3    0    0 -7.09159818898E-01  1.52876555929E+01 -3.01004172983E+01  3.40721892935E+01  4.54572772410E+00 0.00000000000E+00  1.
        2    1    4    4  804    0 -2.41563706435E+01 -1.80086798537E+01 -9.29216589063E+01  9.76845816219E+01  1.11216581246E-05 0.00000000000E+00  1.
       -2    1    4    4    0  804  2.48655304624E+01  2.72102426073E+00 -7.24751148727E+02  7.25182684679E+02  0.00000000000E+00 0.00000000000E+00  1.
       11    1    5    5    0    0 -9.64821073088E-01  8.54829387959E+00 -1.20715240157E+01  1.48231541946E+01  5.10999988203E-04 0.00000000000E+00  1.
      -11    1    5    5    0    0  2.55661254189E-01  6.73936171335E+00 -1.80288932826E+01  1.92490350988E+01  5.10999821343E-04 0.00000000000E+00  1.
</event>
<event>
 9   0   1.0000000E+00   6.2499829E+01   7.8125000E-03   1.3828945E-01
       21   -1    0    0  501  502  0.00000000000E+00  0.00000000000E+00  9.36776413351E+00  9.36776413351E+00  0.00000000000E+00 0.00000000000E+00  1.
       21   -1    0    0  502  501  0.00000000000E+00  0.00000000000E+00 -4.16986227234E+02  4.16986227234E+02  0.00000000000E+00 0.00000000000E+00  1.
       25    2    1    2    0    0 -8.88178419700E-15 -7.10542735760E-15 -4.07618463100E+02  4.26353991368E+02  1.24999657978E+02 0.00000000000E+00  1.
       23    2    3    3    0    0 -1.05287391812E+01  8.43695979147E+00 -2.39871331993E+02  2.56041368792E+02  8.85262107018E+01 0.00000000000E+00  1.
       23    2    3    3    0    0  1.05287391812E+01 -8.43695979147E+00 -1.67747131107E+02  1.70312622576E+02  2.61773332234E+01 0.00000000000E+00  1.
        1    1    4    4  803    0  3.23205017288E+01  1.66415796724E+01 -1.68619898065E+02  1.72494136218E+02  0.00000000000E+00 0.00000000000E+00  1.
       -1    1    4    4    0  803 -4.28492409100E+01 -8.20461988092E+00 -7.12514339281E+01  8.35472325740E+01  0.00000000000E+00 0.00000000000E+00  1.
        4    1    5    5  804    0  7.67253045339E+00 -1.15482300355E+01 -1.63806662062E+02  1.64397315980E+02  1.27500000000E+00 0.00000000000E+00  1.
       -4    1    5    5    0  804  2.85620872784E+00  3.11127024405E+00 -3.94046904553E+00  5.91530659622E+00  1.27500000000E+00 0.00000000000E+00  1.
</event>
<event>
 9   0   1.0000000E+00   6.2503700E+01   7.8125000E-03   1.3828800E-01
       21   -1    0    0  501  502  0.00000000000E+00  0.00000000000E+00  1.63289857867E+03  1.63289857867E+03  0.00000000000E+00 0.00000000000E+00  1.
       21   -1    0    0  502  501  0.00000000000E+00  0.00000000000E+00 -2.39250163781E+00  2.39250163781E+00  0.00000000000E+00 0.00000000000E+00  1.
       25    2    1    2    0    0  0.00000000000E+00  1.06581410364E-14  1.63050607704E+03  1.63529108031E+03  1.25007400163E+02 0.00000000000E+00  1.
       23    2    3    3    0    0 -2.99457853427E+01  9.28741172902E+00  1.14230182121E+03  1.14603657945E+03  8.69677217298E+01 0.00000000000E+00  1.
       23    2    3    3    0    0  2.99457853427E+01 -9.28741172902E+00  4.88204255826E+02  4.89254500860E+02  6.60038860014E+00 0.00000000000E+00  1.
        4    1    4    4  804    0  1.74626251757E+01 -2.15593827015E+01  6.31662515346E+02  6.32272812304E+02  1.27499999993E+00 0.00000000000E+00  1.
       -4    1    4    4    0  804 -4.74084105184E+01  3.08467944305E+01  5.10639305864E+02  5.13763767147E+02  1.27500000003E+00 0.00000000000E+00  1.
       13    1    5    5    0    0  2.63623400783E+01 -8.57142951243E+00  3.90956851257E+02  3.91938404710E+02  1.05659999814E-01 0.00000000000E+00  1.
      -13    1    5    5    0    0  3.58344526433E+00 -7.15982216593E-01  9.72474045687E+01  9.73160961500E+01  1.05659999875E-01 0.00000000000E+00  1.
</event>
<event>
 9   0   1.0000000E+00   6.2499584E+01   7.8125000E-03   1.3828954E-01
       21   -1    0    0  501  502  0.00000000000E+00  0.00000000000E+00  4.44718788251E+01  4.44718788251E+01  0.00000000000E+00 0.00000000000E+00  1.
       21   -1    0    0  502  501  0.00000000000E+00  0.00000000000E+00 -8.78352358302E+01  8.78352358302E+01  0.00000000000E+00 0.00000000000E+00  1.
       25    2    1    2    0    0  7.10542735760E-15  1.77635683940E-15 -4.33633570052E+01  1.32307114655E+02  1.24999167428E+02 0.00000000000E+00  1.
       23    2    3    3    0    0  7.94313017220E+00 -2.91818280469E+00  5.77846094254E+00  2.77269077053E+01  2.57639611128E+01 0.00000000000E+00  1.
       23    2    3    3    0    0 -7.94313017220E+00  2.91818280469E+00 -4.91418179477E+01  1.04580206950E+02  9.19265593106E+01 0.00000000000E+00  1.
        1    1    5    5  804    0 -4.68837091572E+01  1.12358013165E+01 -1.10200240697E+01  4.94546899288E+01  0.00000000000E+00 0.00000000000E+00  1.
       -1    1    4    4    0  803  3.52089834136E+00 -1.10706660682E+00  1.60123813700E+01  1.64322451913E+01  0.00000000000E+00 0.00000000000E+00  1.
        1    1    4    4  803    0  4.42223183084E+00 -1.81111619786E+00 -1.02339204275E+01  1.12946626140E+01  0.00000000000E+00 0.00000000000E+00  1.
       -1    1    5    5    0  804  3.89405789850E+01 -8.31761851183E+00 -3.81217938780E+01  5.51255171212E+01  0.00000000000E+00 0.00000000000E+00  1.
</event>
<event>
 9   0   1.0000000E+00   6.2532219E+01   7.8125000E-03   1.3827736E-01
       21   -1    0    0  501  502  0.00000000000E+00  0.00000000000E+00  4.80644367274E+02  4.80644367274E+02  0.00000000000E+00 0.00000000000E+00  1.
       21   -1    0    0  502  501  0.00000000000E+00  0.00000000000E+00 -8.13549202395E+00  8.13549202395E+00  0.00000000000E+00 0.00000000000E+00  1.
       25    2    1    2    0    0  0.00000000000E+00  0.00000000000E+00  4.72508875250E+02  4.88779859298E+02  1.25064438052E+02 0.00000000000E+00  1.
       23    2    3    3    0    0  9.69745302955E+00 -1.81646108416E+01  4.36035454152E+02  4.46318807543E+02  9.30030483752E+01 0.00000000000E+00  1.
       23    2    3    3    0    0 -9.69745302955E+00  1.81646108416E+01  3.64734210984E+01  4.24610517549E+01  6.97400797460E+00 0.00000000000E+00  1.
        1    1    4    4  804    0  2.14087271089E+01 -1.57676339684E+01  2.99180656749E+01  4.00255235958E+01  8.02872573876E-06 0.00000000000E+00  1.
       -1    1    4    4    0  804 -1.17112740793E+01 -2.39697687316E+00  4.06117388477E+02  4.06293284047E+02  0.00000000000E+00 0.00000000000E+00  1.
       13    1    5    5    0    0 -8.10409084119E+00  1.40814433326E+01  2.20721964712E+01  2.74072318155E+01  1.05660000001E-01 0.00000000000E+00  1.
      -13    1    5    5    0    0 -1.59336218836E+00  4.08316750895E+00  1.44012246272E+01  1.50538199394E+01  1.05660000001E-01 0.00000000000E+00  1.
</event>
<event>
 9   0   1.0000000E+00   6.2498844E+01   7.8125000E-03   1.3828982E-01
       21   -1    0    0  501  502  0.00000000000E+00  0.00000000000E+00  4.97236438809E+02  4.97236438809E+02  0.00000000000E+00 0.00000000000E+00  1.
       21   -1    0    0  502  501  0.00000000000E+00  0.00000000000E+00 -7.85562996255E+00  7.85562996255E+00  0.00000000000E+00 0.00000000000E+00  1.
       25    2    1    2    0    0  2.66453525910E-15  0.00000000000E+00  4.89380808847E+02  5.05092068772E+02  1.24997687454E+02 0.00000000000E+00  1.
       23    2    3    3    0    0  7.92866784331E+00  1.01265180026E+01  4.43163906176E+02  4.52341309280E+02  8.97385212945E+01 0.00000000000E+00  1.
       23    2    3    3    0    0 -7.92866784331E+00 -1.01265180026E+01  4.62169026712E+01  5.27507594914E+01  2.19369640967E+01 0.00000000000E+00  1.
       16    1    4    4    0    0  2.35224599705E+01  1.87845270628E+01  4.27632443048E+02  4.28690647119E+02  1.07895932188E-05 0.00000000000E+00  1.
      -16    1    4    4    0    0 -1.55937921272E+01 -8.65800906021E+00  1.55314631275E+01  2.36506621614E+01  1.23161139663E-05 0.00000000000E+00  1.
       11    1    5    5    0    0 -1.13960802888E+00 -1.96449216119E+00 -2.21291615055E+00  3.17095160186E+00  5.10999966476E-04 0.00000000000E+00  1.
      -11    1    5    5    0    0 -6.78905981443E+00 -8.16202584140E+00  4.84298188217E+01  4.95798078895E+01  5.10999932583E-04 0.00000000000E+00  1.
</event>
<event>
 9   0   1.0000000E+00   6.2498737E+01   7.8125000E-03   1.3828986E-01
       21   -1    0    0  501  502  0.00000000000E+00  0.00000000000E+00  3.22762859687E+01  3.22762859687E+01  0.00000000000E+00 0.00000000000E+00  1.
       21   -1    0    0  502  501  0.00000000000E+00  0.00000000000E+00 -1.21020494625E+02  1.21020494625E+02  0.00000000000E+00 0.00000000000E+00  1.
       25    2    1    2    0    0  0.00000000000E+00 -1.77635683940E-15 -8.87442086565E+01  1.53296780594E+02  1.24997473456E+02 0.00000000000E+00  1.
       23    2    3    3    0    0 -8.03435240412E+00  4.75681302785E+00 -9.43433236614E+01  1.30240230289E+02  8.93010457812E+01 0.00000000000E+00  1.
       23    2    3    3    0    0  8.03435240412E+00 -4.75681302785E+00  5.59911500493E+00  2.30565503044E+01  2.03242794305E+01 0.00000000000E+00  1.
       13    1    4    4    0    0  1.04955586610E+00  4.13523109631E+01 -1.80391014881E+01  4.51279906049E+01  1.05659999990E-01 0.00000000000E+00  1.
      -13    1    4    4    0    0 -9.08390827022E+00 -3.65954979353E+01 -7.63042221733E+01  8.51122396844E+01  1.05659999995E-01 0.00000000000E+00  1.
        5    1    5    5  803    0  5.62314703272E+00  1.60842444351E+00 -5.40528285867E+00  9.27288490840E+00  4.75000000000E+00 0.00000000000E+00  1.
       -5    1    5    5    0  803  2.41120537140E+00 -6.36523747136E+00  1.10043978636E+01  1.37836653961E+01  4.75000000000E+00 0.00000000000E+00  1.
</event>
<event>
 9   0   1.0000000E+00   6.2472039E+01   7.8125000E-03   1.3829983E-01
       21   -1    0    0  501  502  0.00000000000E+00  0.00000000000E+00  1.36315687944E+01  1.36315687944E+01  0.00000000000E+00 0.00000000000E+00  1.
       21   -1    0    0  502  501  0.00000000000E+00  0.00000000000E+00 -2.86302756087E+02  2.86302756087E+02  0.00000000000E+00 0.00000000000E+00  1.
       25    2    1    2    0    0 -7.10542735760E-15 -8.88178419700E-16 -2.72671187293E+02  2.99934324881E+02  1.24944078941E+02 0.00000000000E+00  1.
       23    2    3    3    0    0 -1.80928349283E+01  3.84949621077E+00 -1.12860370213E+01  2.27203611763E+01  6.83160914543E+00 0.00000000000E+00  1.
       23    2    3    3    0    0  1.80928349283E+01 -3.84949621077E+00 -2.61385150271E+02  2.77213963705E+02  9.04611275296E+01 0.00000000000E+00  1.
       15    1    4    4    0    0 -3.49800779540E+00 -2.86327950190E-01 -4.58635953737E+00  6.04233020264E+00  1.77680000000E+00 0.00000000000E+00  1.
      -15    1    4    4    0    0 -1.45948271329E+01  4.13582416096E+00 -6.69967748390E+00  1.66780309736E+01  1.77680000000E+00 0.00000000000E+00  1.
        3    1    5    5  804    0 -2.72777636896E+01 -5.93560231980E+00 -2.83250384669E+01  3.97695306857E+01  2.02304872852E-06 0.00000000000E+00  1.
       -3    1    5    5    0  804  4.53705986179E+01  2.08610610903E+00 -2.33060111804E+02  2.37444433019E+02  0.00000000000E+00 0.00000000000E+00  1.
</event>
<event>
 9   0   1.0000000E+00   6.2499725E+01   7.8125000E-03   1.3828949E-01
       21   -1    0    0  501  502  0.00000000000E+00  0.00000000000E+00  6.10500208393E+00  6.10500208393E+00  0.00000000000E+00 0.00000000000E+00  1.
       21   -1    0    0  502  501  0.00000000000E+00  0.00000000000E+00 -6.39838541761E+02  6.39838541761E+02  0.00000000000E+00 0.00000000000E+00  1.
       25    2    1    2    0    0  7.10542735760E-15  0.00000000000E+00 -6.33733539677E+02  6.45943543845E+02  1.24999450092E+02 0.00000000000E+00  1.
       23    2    3    3    0    0 -1.76270903495E+01  1.71614477178E+01 -4.23517002800E+02  4.34207263238E+02  9.25422400093E+01 0.00000000000E+00  1.
       23    2    3    3    0    0  1.76270903495E+01 -1.71614477178E+01 -2.10216536877E+02  2.11736280607E+02  6.00254502101E+00 0.00000000000E+00  1.
        4    1    4    4  803    0 -3.40311213831E+01  3.69023293188E+01 -1.26822461336E+02  1.36401838169E+02  1.27499999999E+00 0.00000000000E+00  1.
       -4    1    4    4    0  803  1.64040310336E+01 -1.97408816010E+01 -2.96694541464E+02  2.97805425069E+02  1.27500000000E+00 0.00000000000E+00  1.
        2    1    5    5  804    0  1.37211460467E+01 -1.42139096919E+01 -1.45518547015E+02  1.46853507389E+02  1.90734863281E-06 0.00000000000E+00  1.
       -2    1    5    5    0  804  3.90594430282E+00 -2.94753802594E+00 -6.46979898620E+01  6.48827734185E+01  2.33601545599E-06 0.00000000000E+00  1.
</event>
<event>
 9   0   1.0000000E+00   6.2501928E+01   7.8125000E-03   1.3828867E-01
       21   -1    0    0  501  502  0.00000000000E+00  0.00000000000E+00  4.30131824599E+00  4.30131824599E+00  0.00000000000E+00 0.00000000000E+00  1.
       21   -1    0    0  502  501  0.00000000000E+00  0.00000000000E+00 -9.08207837920E+02  9.08207837920E+02  0.00000000000E+00 0.00000000000E+00  1.
       25    2    1    2    0    0 -3.55271367880E-15 -1.77635683940E-15 -9.03906519674E+02  9.12509156166E+02  1.25003855051E+02 0.00000000000E+00  1.
       23    2    3    3    0    0 -2.34740567959E+01 -9.28675050542E+00 -3.42164128840E+02  3.43388324496E+02  1.42117999505E+01 0.00000000000E+00  1.
       23    2    3    3    0    0  2.34740567959E+01  9.28675050542E+00 -5.61742390833E+02  5.69120831670E+02  8.77879963524E+01 0.00000000000E+00  1.
       13    1    4    4    0    0  1.88372456376E+00 -6.88147931898E-01 -1.56918365985E+01  1.58198250837E+01  1.05660000129E-01 0.00000000000E+00  1.
      -13    1    4    4    0    0 -2.53577813596E+01 -8.59860257352E+00 -3.26472292242E+02  3.27568499412E+02  1.05660000159E-01 0.00000000000E+00  1.
        4    1    5    5  803    0  3.21468631879E+01 -3.13098719122E+01 -3.82720021755E+02  3.85343962674E+02  1.27499999999E+00 0.00000000000E+00  1.
       -4    1    5    5    0  803 -8.67280639200E+00  4.05966224176E+01 -1.79022369078E+02  1.83776868996E+02  1.27500000000E+00 0.00000000000E+00  1.
</event>
<event>
 9   0   1.0000000E+00   6.2500200E+01   7.8125000E-03   1.3828931E-01
       21   -1    0    0  501  502  0.00000000000E+00  0.00000000000E+00  2.93677018264E+01  2.93677018264E+01  0.00000000000E+00 0.00000000000E+00  1.
       21   -1    0    0  502  501  0.00000000000E+00  0.00000000000E+00 -1.33012619469E+02  1.33012619469E+02  0.00000000000E+00 0.00000000000E+00  1.
       25    2    1    2    0    0  0.00000000000E+00  7.10542735760E-15 -1.03644917643E+02  1.62380321296E+02  1.25000399163E+02 0.00000000000E+00  1.
       23    2    3    3    0    0  1.55359600631E+01 -5.68878029883E+01 -6.24998203803E+01  9.02717852991E+01  2.76618779115E+01 0.00000000000E+00  1.
       23    2    3    3    0    0 -1.55359600631E+01  5.68878029883E+01 -4.11450972628E+01  7.21085359968E+01  5.39756898129E+00 0.00000000000E+00  1.
        2    1    4    4  803    0  6.72561178570E+00 -7.44005853300E+00  7.88762416546E-02  1.00296833616E+01  1.06358709822E-06 0.00000000000E+00  1.
       -2    1    4    4    0  803  8.81034827744E+00 -4.94477444553E+01 -6.25786966219E+01  8.02421021375E+01  1.65181236989E-06 0.00000000000E+00  1.
       13    1    5    5    0    0 -8.32830454954E+00  3.83136599076E+01 -2.90904311595E+01  4.88217322641E+01  1.05660000000E-01 0.00000000000E+00  1.
      -13    1    5    5    0    0 -7.20765551361E+00  1.85741430808E+01 -1.20546661033E+01  2.32868037327E+01  1.05660000000E-01 0.00000000000E+00  1.
</event>
<event>
 9   0   1.0000000E+00   6.2501871E+01   7.8125000E-03   1.3828869E-01
       21   -1    0    0  501  502  0.00000000000E+00  0.00000000000E+00  2.70176960248E+00  2.70176960248E+00  0.00000000000E+00 0.00000000000E+00  1.
       21   -1    0    0  502  501  0.00000000000E+00  0.00000000000E+00 -1.44589820963E+03  1.44589820963E+03  0.00000000000E+00 0.00000000000E+00  1.
       25    2    1    2    0    0  7.10542735760E-15 -3.55271367880E-15 -1.44319644002E+03  1.44859997923E+03  1.25003741241E+02 0.00000000000E+00  1.
       23    2    3    3    0    0  5.70770831295E+01 -2.01990164315E+01 -8.65134169522E+02  8.67298703848E+02  9.17151777986E+00 0.00000000000E+00  1.
       23    2    3    3    0    0 -5.70770831295E+01  2.01990164315E+01 -5.78062270502E+02  5.81301275381E+02  9.45465484930E+00 0.00000000000E+00  1.
       15    1    4    4    0    0  2.09047605028E+01 -9.95604905012E+00 -2.84660003041E+02  2.85605683196E+02  1.77680000002E+00 0.00000000000E+00  1.
      -15    1    4    4    0    0  3.61723226267E+01 -1.02429673814E+01 -5.80474166481E+02  5.81693020652E+02  1.77679999999E+00 0.00000000000E+00  1.
       13    1    5    5    0    0 -4.34229662375E+01  1.52292043919E+01 -4.74198842100E+02  4.76426317153E+02  1.05659999814E-01 0.00000000000E+00  1.
      -13    1    5    5    0    0 -1.36541168920E+01  4.96981203964E+00 -1.03863428403E+02  1.04874958228E+02  1.05660000185E-01 0.00000000000E+00  1.
</event>
<event>
 9   0   1.0000000E+00   6.2496577E+01   7.8125000E-03   1.3829066E-01
       21   -1    0    0  501  502  0.00000000000E+00  0.00000000000E+00  2.51847982953E+01  2.51847982953E+01  0.00000000000E+00 0.00000000000E+00  1.
       21   -1    0    0  502  501  0.00000000000E+00  0.00000000000E+00 -1.55086494755E+02  1.55086494755E+02  0.00000000000E+00 0.00000000000E+00  1.
       25    2    1    2    0    0 -3.55271367880E-15 -7.10542735760E-15 -1.29901696460E+02  1.80271293050E+02  1.24993153232E+02 0.00000000000E+00  1.
       23    2    3    3    0    0 -8.36341618153E+00  1.28333231497E+01 -4.67942157463E+01  7.68799838722E+01  5.90439868198E+01 0.00000000000E+00  1.
       23    2    3    3    0    0  8.36341618153E+00 -1.28333231497E+01 -8.31074807135E+01  1.03391309178E+02  5.95673446593E+01 0.00000000000E+00  1.
        1    1    4    4  804    0  4.62902040834E+00  2.27289900682E+01  3.98824545234E+00  2.35359495506E+01  1.24672059198E-06 0.00000000000E+00  1.
       -1    1    4    4    0  804 -1.29924365899E+01 -9.89566691851E+00 -5.07824611987E+01  5.33440343216E+01  1.50789149292E-06 0.00000000000E+00  1.
       12    1    5    5    0    0 -2.36436500743E+01 -1.94935048216E+00 -1.71471189600E+01  2.92719292969E+01  0.00000000000E+00 0.00000000000E+00  1.
      -12    1    5    5    0    0  3.20070662558E+01 -1.08839726675E+01 -6.59603617535E+01  7.41193798813E+01  0.00000000000E+00 0.00000000000E+00  1.
</event>
<event>
 9   0   1.0000000E+00   6.2504624E+01   7.8125000E-03   1.3828766E-01
       21   -1    0    0  501  502  0.00000000000E+00  0.00000000000E+00  1.23015037751E+02  1.23015037751E+02  0.00000000000E+00 0.00000000000E+00  1.
       21   -1    0    0  502  501  0.00000000000E+00  0.00000000000E+00 -3.17589461726E+01  3.17589461726E+01  0.00000000000E+00 0.00000000000E+00  1.
       25    2    1    2    0    0  0.00000000000E+00  2.66453525910E-15  9.12560915781E+01  1.54773983923E+02  1.25009247055E+02 0.00000000000E+00  1.
       23    2    3    3    0    0  2.62939183224E+01 -5.36301615572E+00  7.88186135407E+01  1.22052646160E+02  8.92431650675E+01 0.00000000000E+00  1.
       23    2    3    3    0    0 -2.62939183224E+01  5.36301615572E+00  1.24374780374E+01  3.27213377628E+01  1.39951063598E+01 0.00000000000E+00  1.
        3    1    4    4  803    0  5.44150259653E+01  6.86192103218E+00  2.53624093417E+01  6.04262593470E+01  1.46971082758E-06 0.00000000000E+00  1.
       -3    1    4    4    0  803 -2.81211076429E+01 -1.22249371879E+01  5.34562041990E+01  6.16263868135E+01  1.16800772800E-06 0.00000000000E+00  1.
        4    1    5    5  804    0 -8.48502700733E+00  2.18042177493E+00  1.15649356922E+01  1.45644527874E+01  1.27500000000E+00 0.00000000000E+00  1.
       -4    1    5    5    0  804 -1.78088913151E+01  3.18259438079E+00  8.72542345180E-01  1.81568849754E+01  1.27500000000E+00 0.00000000000E+00  1.
</event>
<event>
 9   0   1.0000000E+00   6.2501436E+01   7.8125000E-03   1.3828885E-01
       21   -1    0    0  501  502  0.00000000000E+00  0.00000000000E+00  1.47395749667E+01  1.47395749667E+01  0.00000000000E+00 0.00000000000E+00  1.
       21   -1    0    0  502  501  0.00000000000E+00  0.00000000000E+00 -2.65029993833E+02  2.65029993833E+02  0.00000000000E+00 0.00000000000E+00  1.
       25    2    1    2    0    0 -8.88178419700E-15  8.88178419700E-16 -2.50290418867E+02  2.79769568800E+02  1.25002871368E+02 0.00000000000E+00  1.
       23    2    3    3    0    0 -1.39655844932E+01  1.99266125735E+00 -6.48700218609E+01  8.49673592390E+01  5.30313506399E+01 0.00000000000E+00  1.
       23    2    3    3    0    0  1.39655844932E+01 -1.99266125735E+00 -1.85420397006E+02  1.94802209561E+02  5.80359283117E+01 0.00000000000E+00  1.
        5    1    4    4  804    0 -2.79627081320E+01  6.69267141726E+00 -6.29119880240E+01  6.93338707553E+01  4.75000000000E+00 0.00000000000E+00  1.
       -5    1    4    4    0  804  1.39971236388E+01 -4.70001015992E+00 -1.95803383685E+00  1.56334884837E+01  4.75000000000E+00 0.00000000000E+00  1.
        1    1    5    5  803    0  3.52733834298E+01 -6.73591966043E+00 -8.96369991662E+01  9.65628077010E+01  0.00000000000E+00 0.00000000000E+00  1.
       -1    1    5    5    0  803 -2.13077989366E+01  4.74325840309E+00 -9.57833978395E+01  9.82394020601E+01  1.34869915235E-06 0.00000000000E+00  1.
</event>
<event>
 9   0   1.0000000E+00   6.2506221E+01   7.8125000E-03   1.3828706E-01
       21   -1    0    0  501  502  0.00000000000E+00  0.00000000000E+00  4.60074197369E+02  4.60074197369E+02  0.00000000000E+00 0.00000000000E+00  1.
       21   -1    0    0  502  501  0.00000000000E+00  0.00000000000E+00 -8.49216853763E+00  8.49216853763E+00  0.00000000000E+00 0.00000000000E+00  1.
       25    2    1    2    0    0  3.55271367880E-15 -1.77635683940E-15  4.51582028831E+02  4.68566365906E+02  1.25012441363E+02 0.00000000000E+00  1.
       23    2    3    3    0    0 -9.22453356506E+00 -9.16810990153E+00  3.23980792781E+02  3.33789319168E+02  7.92629121398E+01 0.00000000000E+00  1.
       23    2    3    3    0    0  9.22453356506E+00  9.16810990153E+00  1.27601236051E+02  1.34777046739E+02  4.13960218787E+01 0.00000000000E+00  1.
       15    1    4    4    0    0 -1.35921852201E+01  3.39393253643E+01  1.64037627215E+02  1.68071786644E+02  1.77680000000E+00 0.00000000000E+00  1.
      -15    1    4    4    0    0  4.36765165501E+00 -4.31074352659E+01  1.59943165566E+02  1.65717532523E+02  1.77680000000E+00 0.00000000000E+00  1.
       16    1    5    5    0    0 -6.13657513893E+00 -1.41291434602E+01  4.93966886091E+01  5.17428554962E+01  1.50789149292E-06 0.00000000000E+00  1.
      -16    1    5    5    0    0  1.53611087040E+01  2.32972533617E+01  7.82045474415E+01  8.30341912428E+01  0.00000000000E+00 0.00000000000E+00  1.
</event>
<event>
 9   0   1.0000000E+00   6.2496646E+01   7.8125000E-03   1.3829064E-01
       21   -1    0    0  501  502  0.00000000000E+00  0.00000000000E+00  1.95475941625E+01  1.95475941625E+01  0.00000000000E+00 0.00000000000E+00  1.
       21   -1    0    0  502  501  0.00000000000E+00  0.00000000000E+00 -1.99811330020E+02  1.99811330020E+02  0.00000000000E+00 0.00000000000E+00  1.
       25    2    1    2    0    0  0.00000000000E+00 -4.44089209850E-16 -1.80263735858E+02  2.19358924183E+02  1.24993292433E+02 0.00000000000E+00  1.
       23    2    3    3    0    0  1.39463763182E+01  1.40898478669E+00 -1.29893837471E+02  1.60014875239E+02  9.23897431213E+01 0.00000000000E+00  1.
       23    2    3    3    0    0 -1.39463763182E+01 -1.40898478669E+00 -5.03698983862E+01  5.93440489440E+01  2.80731692385E+01 0.00000000000E+00  1.
        2    1    4    4  803    0  2.25203671964E+00  2.55936739481E+01 -1.30638388559E+02  1.33140889315E+02  2.69739830470E-06 0.00000000000E+00  1.
       -2    1    4    4    0  803  1.16943395986E+01 -2.41846891614E+01  7.44551087923E-01  2.68739861237E+01  2.15485423595E-06 0.00000000000E+00  1.
        4    1    5    5  804    0 -8.85947616209E+00 -7.15420623648E-01 -2.88377369829E-01  8.98392625987E+00  1.27500000000E+00 0.00000000000E+00  1.
       -4    1    5    5    0  804 -5.08690015616E+00 -6.93564163045E-01 -5.00815210163E+01  5.03601226841E+01  1.27500000000E+00 0.00000000000E+00  1.
</event>
<event>
 9   0   1.0000000E+00   6.2503033E+01   7.8125000E-03   1.3828825E-01
       21   -1    0    0  501  502  0.00000000000E+00  0.00000000000E+00  7.30580990410E+00  7.30580990410E+00  0.00000000000E+00 0.00000000000E+00  1.
       21   -1    0    0  502  501  0.00000000000E+00  0.00000000000E+00 -5.34729092394E+02  5.34729092394E+02  0.00000000000E+00 0.00000000000E+00  1.
       25    2    1    2    0    0  0.00000000000E+00  1.42108547152E-14 -5.27423282490E+02  5.42034902299E+02  1.25006065440E+02 0.00000000000E+00  1.
       23    2    3    3    0    0  9.16150826802E+00 -4.91748887251E+01 -3.05431385408E+02  3.13873106677E+02  5.22100851201E+01 0.00000000000E+00  1.
       23    2    3    3    0    0 -9.16150826802E+00  4.91748887251E+01 -2.21991897082E+02  2.28161795621E+02  1.65921576637E+01 0.00000000000E+00  1.
       11    1    4    4    0    0  2.99771953374E+00  1.03841662846E+01 -2.71388238452E+01  2.92118638877E+01  5.10977684182E-04 0.00000000000E+00  1.
      -11    1    4    4    0    0  6.16378873428E+00 -5.95590550097E+01 -2.78292561563E+02  2.84661242790E+02  5.10998597706E-04 0.00000000000E+00  1.
        2    1    5    5  804    0 -7.19094219372E+00  9.06500902348E+00 -7.02187836928E+01  7.11657334785E+01  2.86102294922E-06 0.00000000000E+00  1.
       -2    1    5    5    0  804 -1.97056607430E+00  4.01098797017E+01 -1.51773113390E+02  1.56996062143E+02  1.90734863281E-06 0.00000000000E+00  1.
</event>
<event>
 9   0   1.0000000E+00   6.2497924E+01   7.8125000E-03   1.3829016E-01
       21   -1    0    0  501  502  0.00000000000E+00  0.00000000000E+00  7.60803729966E+01  7.60803729966E+01  0.00000000000E+00 0.00000000000E+00  1.
       21   -1    0    0  502  501  0.00000000000E+00  0.00000000000E+00 -5.13403170699E+01  5.13403170699E+01  0.00000000000E+00 0.00000000000E+00  1.
       25    2    1    2    0    0  0.00000000000E+00  4.44089209850E-16  2.47400559268E+01  1.27420690067E+02  1.24995847490E+02 0.00000000000E+00  1.
       23    2    3    3    0    0 -8.67881846016E+00 -3.06678019188E+00  4.87151302765E+01  1.00200142392E+02  8.70757003244E+01 0.00000000000E+00  1.
       23    2    3    3    0    0  8.67881846016E+00  3.06678019188E+00 -2.39750743498E+01  2.72205476741E+01  9.02369076334E+00 0.00000000000E+00  1.
        5    1    4    4  803    0  1.91803775482E+01  3.12617337643E-02  6.46542791473E+01  6.76064062959E+01  4.75000000000E+00 0.00000000000E+00  1.
       -5    1    4    4    0  803 -2.78591960083E+01 -3.09804192564E+00 -1.59391488708E+01  3.25937360965E+01  4.75000000000E+00 0.00000000000E+00  1.
       13    1    5    5    0    0  5.86291184770E+00 -1.29544584581E+00 -5.91690655937E+00  8.43047226087E+00  1.05660000000E-01 0.00000000000E+00  1.
      -13    1    5    5    0    0  2.81590661246E+00  4.36222603768E+00 -1.80581677904E+01  1.87900754133E+01  1.05660000000E-01 0.00000000000E+00  1.
</event>
<event>
 9   0   1.0000000E+00   6.2502384E+01   7.8125000E-03   1.3828850E-01
       21   -1    0    0  501  502  0.00000000000E+00  0.00000000000E+00  5.99083603367E+01  5.99083603367E+01  0.00000000000E+00 0.00000000000E+00  1.
       21   -1    0    0  502  501  0.00000000000E+00  0.00000000000E+00 -6.52087282490E+01  6.52087282490E+01  0.00000000000E+00 0.00000000000E+00  1.
       25    2    1    2    0    0 -3.55271367880E-15  0.00000000000E+00 -5.30036791230E+00  1.25117088586E+02  1.25004767734E+02 0.00000000000E+00  1.
       23    2    3    3    0    0  1.51328120526E+01 -1.38494235378E+01  1.19565574763E+01  2.93120474425E+01  1.71880285558E+01 0.00000000000E+00  1.
       23    2    3    3    0    0 -1.51328120526E+01  1.38494235378E+01 -1.72569253886E+01  9.58050411433E+01  9.19782360216E+01 0.00000000000E+00  1.
        2    1    4    4  803    0  4.41296661154E+00  3.99020470838E+00  2.58571097073E+00  6.48705704873E+00  0.00000000000E+00 0.00000000000E+00  1.
       -2    1    4    4    0  803  1.07198454411E+01 -1.78396282462E+01  9.37084650557E+00  2.28249904938E+01  0.00000000000E+00 0.00000000000E+00  1.
        4    1    5    5  804    0  2.50092905937E+00 -3.60916913466E+01  8.06208508607E+00  3.70875676117E+01  1.27500000000E+00 0.00000000000E+00  1.
       -4    1    5    5    0  804 -1.76337411120E+01  4.99411148845E+01 -2.53190104747E+01  5.87174735315E+01  1.27500000000E+00 0.00000000000E+00  1.
</event>
<event>
 9   0   1.0000000E+00   6.2497406E+01   7.8125000E-03   1.3829035E-01
       21   -1    0    0  501  502  0.00000000000E+00  0.00000000000E+00  1.19848181530E+02  1.19848181530E+02  0.00000000000E+00 0.00000000000E+00  1.
       21   -1    0    0  502  501  0.00000000000E+00  0.00000000000E+00 -3.25906137089E+01  3.25906137089E+01  0.00000000000E+00 0.00000000000E+00  1.
       25    2    1    2    0    0  0.00000000000E+00  3.55271367880E-15  8.72575678206E+01  1.52438795239E+02  1.24994812500E+02 0.00000000000E+00  1.
       23    2    3    3    0    0  4.79793618205E+01  8.47961845710E+00  4.93235084410E+01  8.11451860701E+01  4.21640800629E+01 0.00000000000E+00  1.
       23    2    3    3    0    0 -4.79793618205E+01 -8.47961845710E+00  3.79340593797E+01  7.12936091684E+01  3.56351337497E+01 0.00000000000E+00  1.
        3    1    4    4  804    0  4.45763571552E+01  1.92930472328E+01  5.01026939006E+01  6.97821841508E+01  0.00000000000E+00 0.00000000000E+00  1.
       -3    1    4    4    0  804  3.40300466530E+00 -1.08134287757E+01 -7.79185459638E-01  1.13630020194E+01  0.00000000000E+00 0.00000000000E+00  1.
        5    1    5    5  803    0 -3.66986752883E+01 -1.57544087655E+01  1.24503815323E+01  4.21018843256E+01  4.75000000000E+00 0.00000000000E+00  1.
       -5    1    5    5    0  803 -1.12806865321E+01  7.27479030836E+00  2.54836778474E+01  2.91917248428E+01  4.75000000000E+00 0.00000000000E+00  1.
</event>
<event>
 9   0   1.0000000E+00   6.2502477E+01   7.8125000E-03   1.3828846E-01
       21   -1    0    0  501  502  0.00000000000E+00  0.00000000000E+00  9.12137226556E+00  9.12137226556E+00  0.00000000000E+00 0.00000000000E+00  1.
       21   -1    0    0  502  501  0.00000000000E+00  0.00000000000E+00 -4.28286400213E+02  4.28286400213E+02  0.00000000000E+00 0.00000000000E+00  1.
       25    2    1    2    0    0  3.55271367880E-15 -1.11022302463E-15 -4.19165027947E+02  4.37407772478E+02  1.25004954984E+02 0.00000000000E+00  1.
       23    2    3    3    0    0 -1.03357654567E+01  1.34246753525E+00 -3.92182766600E+02  4.02496833031E+02  8.99319071032E+01 0.00000000000E+00  1.
       23    2    3    3    0    0  1.03357654567E+01 -1.34246753525E+00 -2.69822613468E+01  3.49109394470E+01  1.95474038948E+01 0.00000000000E+00  1.
        2    1    4    4  804    0 -4.76159740438E+01  1.41052307904E+01 -2.53812069222E+02  2.58624834566E+02  3.81469726562E-06 0.00000000000E+00  1.
       -2    1    4    4    0  804  3.72802085871E+01 -1.27627632551E+01 -1.38370697378E+02  1.43871998565E+02  0.00000000000E+00 0.00000000000E+00  1.
        1    1    5    5  803    0 -4.76031065697E+00 -2.96928498072E+00 -1.34463084270E+01  1.45698462985E+01  0.00000000000E+00 0.00000000000E+00  1.
       -1    1    5    5    0  803  1.50960761137E+01  1.62681744547E+00 -1.35359529198E+01  2.03410931485E+01  0.00000000000E+00 0.00000000000E+00  1.
</event>
<event>
 9   0   1.0000000E+00   6.2500071E+01   7.8125000E-03   1.3828936E-01
       21   -1    0    0  501  502  0.00000000000E+00  0.00000000000E+00  2.44650226831E+02  2.44650226831E+02  0.00000000000E+00 0.00000000000E+00  1.
       21   -1    0    0  502  501  0.00000000000E+00  0.00000000000E+00 -1.59667084667E+01  1.59667084667E+01  0.00000000000E+00 0.00000000000E+00  1.
       25    2    1    2    0    0 -8.88178419700E-16 -7.10542735760E-15  2.28683518364E+02  2.60616935298E+02  1.25000141570E+02 0.00000000000E+00  1.
       23    2    3    3    0    0  4.55727343769E+00 -6.74527940082E+00  1.66036425712E+02  1.81604466635E+02  7.31151154223E+01 0.00000000000E+00  1.
       23    2    3    3    0    0 -4.55727343769E+00  6.74527940082E+00  6.26470926525E+01  7.90124686627E+01  4.74557104150E+01 0.00000000000E+00  1.
        2    1    4    4  804    0 -1.71201325112E+01 -2.28330848089E+00  3.56910529925E+00  1.76366366120E+01  3.40112271731E-06 0.00000000000E+00  1.
       -2    1    4    4    0  804  2.16774059489E+01 -4.46197091993E+00  1.62467320413E+02  1.63967830223E+02  3.30362473978E-06 0.00000000000E+00  1.
        3    1    5    5  803    0 -3.34042595770E+00 -2.04154698119E+01  2.29488710402E+01  3.08966105166E+01  0.00000000000E+00 0.00000000000E+00  1.
       -3    1    5    5    0  803 -1.21684747999E+00  2.71607492127E+01  3.96982216122E+01  4.81158582461E+01  0.00000000000E+00 0.00000000000E+00  1.
</event>
<event>
 9   0   1.0000000E+00   6.2499830E+01   7.8125000E-03   1.3828945E-01
       21   -1    0    0  501  502  0.00000000000E+00  0.00000000000E+00  1.18429214732E+01  1.18429214732E+01  0.00000000000E+00 0.00000000000E+00  1.
       21   -1    0    0  502  501  0.00000000000E+00  0.00000000000E+00 -3.29836585376E+02  3.29836585376E+02  0.00000000000E+00 0.00000000000E+00  1.
       25    2    1    2    0    0  5.32907051820E-15 -3.55271367880E-15 -3.17993663903E+02  3.41679506849E+02  1.24999660473E+02 0.00000000000E+00  1.
       23    2    3    3    0    0  1.40094595004E+01 -1.30925324122E+01 -7.12599693263E+01  7.67886389266E+01  2.12328160958E+01 0.00000000000E+00  1.
       23    2    3    3    0    0 -1.40094595004E+01  1.30925324122E+01 -2.46733694576E+02  2.64890867923E+02  9.44562147715E+01 0.00000000000E+00  1.
        1    1    4    4  803    0  1.91399611856E+01 -7.80542708223E+00 -5.86299015376E+01  6.21669379403E+01  0.00000000000E+00 0.00000000000E+00  1.
       -1    1    4    4    0  803 -5.13050168519E+00 -5.28710533001E+00 -1.26300677887E+01  1.46217011864E+01  0.00000000000E+00 0.00000000000E+00  1.
        5    1    5    5  804    0 -2.57534432503E+01  4.16133732642E+01 -2.14351805328E+02  2.19918556791E+02  4.75000000000E+00 0.00000000000E+00  1.
       -5    1    5    5    0  804  1.17439837498E+01 -2.85208408520E+01 -3.23818892488E+01  4.49723111319E+01  4.75000000000E+00 0.00000000000E+00  1.
</event>
<event>
 9   0   1.0000000E+00   6.2496279E+01   7.8125000E-03   1.3829078E-01
       21   -1    0    0  501  502  0.00000000000E+00  0.00000000000E+00  5.62687180533E+01  5.62687180533E+01  0.00000000000E+00 0.00000000000E+00  1.
       21   -1    0    0  502  501  0.00000000000E+00  0.00000000000E+00 -6.94130778597E+01  6.94130778597E+01  0.00000000000E+00 0.00000000000E+00  1.
       25    2    1    2    0    0  0.00000000000E+00  3.55271367880E-15 -1.31443598064E+01  1.25681795913E+02  1.24992558295E+02 0.00000000000E+00  1.
       23    2    3    3    0    0  2.20776969538E+01 -1.60758498785E+01 -1.53585711986E+01  9.40417751470E+01  8.86685519868E+01 0.00000000000E+00  1.
       23    2    3    3    0    0 -2.20776969538E+01  1.60758498785E+01  2.21421139217E+00  3.16400207660E+01  1.58218371210E+01 0.00000000000E+00  1.
       13    1    4    4    0    0  2.32996747808E+01 -5.06035746464E+01 -1.99800612680E+01  5.91845471740E+01  1.05660000002E-01 0.00000000000E+00  1.
      -13    1    4    4    0    0 -1.22197782702E+00  3.45277247680E+01  4.62149006937E+00  3.48572279729E+01  1.05660000006E-01 0.00000000000E+00  1.
        4    1    5    5  803    0 -1.09510852378E+01  1.19016044055E+01  8.30488081703E+00  1.82255624246E+01  1.27500000000E+00 0.00000000000E+00  1.
       -4    1    5    5    0  803 -1.11266117161E+01  4.17424547298E+00 -6.09066942487E+00  1.34144583413E+01  1.27500000000E+00 0.00000000000E+00  1.
</event>
<event>
 9   0   1.0000000E+00   6.2500795E+01   7.8125000E-03   1.3828909E-01
       21   -1    0    0  501  502  0.00000000000E+00  0.00000000000E+00  3.68572691289E+01  3.68572691289E+01  0.00000000000E+00 0.00000000000E+00  1.
       21   -1    0    0  502  501  0.00000000000E+00  0.00000000000E+00 -1.05985859304E+02  1.05985859304E+02  0.00000000000E+00 0.00000000000E+00  1.
       25    2    1    2    0    0  0.00000000000E+00  3.55271367880E-15 -6.91285901753E+01  1.42843128433E+02  1.25001589434E+02 0.00000000000E+00  1.
       23    2    3    3    0    0  2.07606947556E+00  7.79016490389E+00  2.97011332560E+00  2.72989190591E+01  2.59116320391E+01 0.00000000000E+00  1.
       23    2    3    3    0    0 -2.07606947556E+00 -7.79016490389E+00 -7.20987035009E+01  1.15544209374E+02  8.99291084114E+01 0.00000000000E+00  1.
       15    1    4    4    0    0  1.24057917791E+01  5.71138150111E+00 -4.23763529713E+00  1.44096536901E+01  1.77680000000E+00 0.00000000000E+00  1.
      -15    1    4    4    0    0 -1.03297223035E+01  2.07878340279E+00  7.20774862273E+00  1.28892653690E+01  1.77680000000E+00 0.00000000000E+00  1.
        5    1    5    5  803    0  8.73053870804E+00 -4.06595192406E+01 -6.87102413052E+01  8.04554446338E+01  4.75000000000E+00 0.00000000000E+00  1.
       -5    1    5    5    0  803 -1.08066081836E+01  3.28693543367E+01 -3.38846219574E+00  3.50887647402E+01  4.75000000000E+00 0.00000000000E+00  1.
</event>
<event>
 9   0   1.0000000E+00   6.2502702E+01   7.8125000E-03   1.3828838E-01
       21   -1    0    0  501  502  0.00000000000E+00  0.00000000000E+00  6.86182453303E+02  6.86182453303E+02  0.00000000000E+00 0.00000000000E+00  1.
       21   -1    0    0  502  501  0.00000000000E+00  0.00000000000E+00 -5.69322007149E+00  5.69322007149E+00  0.00000000000E+00 0.00000000000E+00  1.
       25    2    1    2    0    0  0.00000000000E+00  3.55271367880E-15  6.80489233232E+02  6.91875673375E+02  1.25005403337E+02 0.00000000000E+00  1.
       23    2    3    3    0    0 -1.36269506926E+01 -2.67548821036E+01  3.20018761999E+02  3.28773193720E+02  6.91251573304E+01 0.00000000000E+00  1.
       23    2    3    3    0    0  1.36269506926E+01  2.67548821036E+01  3.60470471232E+02  3.63102479654E+02  3.16691111191E+01 0.00000000000E+00  1.
        3    1    4    4  804    0 -2.45992080856E+01 -6.52698917632E+00  3.75118327791E+01  4.53305661182E+01  4.95543710967E-06 0.00000000000E+00  1.
       -3    1    4    4    0  804  1.09722573930E+01 -2.02278929273E+01  2.82506929220E+02  2.83442627602E+02  3.81469726562E-06 0.00000000000E+00  1.
       16    1    5    5    0    0  1.72964121145E+01  3.22869517046E+01  3.20253112337E+02  3.22340920685E+02  5.39479660939E-06 0.00000000000E+00  1.
      -16    1    5    5    0    0 -3.66946142185E+00 -5.53206960105E+00  4.02173588958E+01  4.07615590692E+01  1.84678237257E-06 0.00000000000E+00  1.
</event>
<event>
 9   0   1.0000000E+00   6.2501661E+01   7.8125000E-03   1.3828877E-01
       21   -1    0    0  501  502  0.00000000000E+00  0.00000000000E+00  1.67767238507E+02  1.67767238507E+02  0.00000000000E+00 0.00000000000E+00  1.
       21   -1    0    0  502  501  0.00000000000E+00  0.00000000000E+00 -2.32849853194E+01  2.32849853194E+01  0.00000000000E+00 0.00000000000E+00  1.
       25    2    1    2    0    0 -1.77635683940E-15 -3.55271367880E-15  1.44482253187E+02  1.91052223826E+02  1.25003322927E+02 0.00000000000E+00  1.
       23    2    3    3    0    0  1.29569018391E+01 -1.46830307509E+01  6.71913912434E+01  7.02643488733E+01  6.23882746002E+00 0.00000000000E+00  1.
       23    2    3    3    0    0 -1.29569018391E+01  1.46830307509E+01  7.72908619439E+01  1.20787874953E+02  9.07323575042E+01 0.00000000000E+00  1.
        4    1    4    4  803    0  1.18736251458E+01 -1.24867605331E+01  5.12094103323E+01  5.40456426948E+01  1.27500000000E+00 0.00000000000E+00  1.
       -4    1    4    4    0  803  1.08327669333E+00 -2.19627021780E+00  1.59819809110E+01  1.62187061785E+01  1.27500000000E+00 0.00000000000E+00  1.
        5    1    5    5  804    0 -1.22892531879E+01  5.26552055545E+01  4.07633515850E+01  6.78808496437E+01  4.75000000000E+00 0.00000000000E+00  1.
       -5    1    5    5    0  804 -6.67648651233E-01 -3.79721748036E+01  3.65275103589E+01  5.29070253091E+01  4.75000000000E+00 0.00000000000E+00  1.
</event>
<event>
 9   0   1.0000000E+00   6.2500574E+01   7.8125000E-03   1.3828917E-01
       21   -1    0    0  501  502  0.00000000000E+00  0.00000000000E+00  3.47679329334E+02  3.47679329334E+02  0.00000000000E+00 0.00000000000E+00  1.
       21   -1    0    0  502  501  0.00000000000E+00  0.00000000000E+00 -1.12354156830E+01  1.12354156830E+01  0.00000000000E+00 0.00000000000E+00  1.
       25    2    1    2    0    0  7.10542735760E-15 -7.10542735760E-15  3.36443913651E+02  3.58914745017E+02  1.25001148626E+02 0.00000000000E+00  1.
       23    2    3    3    0    0 -2.65800478978E+01  1.68318935281E+01  2.29951266317E+02  2.38467935273E+02  5.47682361114E+01 0.00000000000E+00  1.
       23    2    3    3    0    0  2.65800478978E+01 -1.68318935281E+01  1.06492647333E+02  1.20446809743E+02  4.66576730583E+01 0.00000000000E+00  1.
       16    1    4    4    0    0 -1.50661620398E+01 -1.77276721245E+01  5.42143626128E+01  5.89953956769E+01  0.00000000000E+00 0.00000000000E+00  1.
      -16    1    4    4    0    0 -1.15138858580E+01  3.45595656526E+01  1.75736903704E+02  1.79472539597E+02  0.00000000000E+00 0.00000000000E+00  1.
       12    1    5    5    0    0 -1.30963197095E+01 -2.81942089551E+00  1.77905072118E+01  2.22702688674E+01  0.00000000000E+00 0.00000000000E+00  1.
      -12    1    5    5    0    0  3.96763676073E+01 -1.40124726326E+01  8.87021401216E+01  9.81765410756E+01  0.00000000000E+00 0.00000000000E+00  1.
</event>
<event>
 9   0   1.0000000E+00   6.2499304E+01   7.8125000E-03   1.3828965E-01
       21   -1    0    0  501  502  0.00000000000E+00  0.00000000000E+00  1.11061993788E+01  1.11061993788E+01  0.00000000000E+00 0.00000000000E+00  1.
       21   -1    0    0  502  501  0.00000000000E+00  0.00000000000E+00 -3.51710141113E+02  3.51710141113E+02  0.00000000000E+00 0.00000000000E+00  1.
       25    2    1    2    0    0 -7.10542735760E-15  0.00000000000E+00 -3.40603941734E+02  3.62816340492E+02  1.24998607204E+02 0.00000000000E+00  1.
       23    2    3    3    0    0  1.25866146959E+01 -1.46862285256E+01 -1.52148527688E+02  1.59456236025E+02  4.36234862396E+01 0.00000000000E+00  1.
       23    2    3    3    0    0 -1.25866146959E+01  1.46862285256E+01 -1.88455414046E+02  2.03360104467E+02  7.39309192949E+01 0.00000000000E+00  1.
        1    1    4    4  803    0  2.03873357855E+01  6.76085663994E+00 -1.03708039942E+02  1.05908971351E+02  1.90734863281E-06 0.00000000000E+00  1.
       -1    1    4    4    0  803 -7.80072108960E+00 -2.14470851655E+01 -4.84404877468E+01  5.35472648739E+01  1.50789149292E-06 0.00000000000E+00  1.
       12    1    5    5    0    0 -3.77454873082E+01  1.50803139598E+01 -1.61286399206E+02  1.66329312660E+02  0.00000000000E+00 0.00000000000E+00  1.
      -12    1    5    5    0    0  2.51588726123E+01 -3.94085434198E-01 -2.71690148402E+01  3.70307918068E+01  2.23656452171E-06 0.00000000000E+00  1.
</event>
<event>
 9   0   1.0000000E+00   6.2502115E+01   7.8125000E-03   1.3828860E-01
       21   -1    0    0  501  502  0.00000000000E+00  0.00000000000E+00  2.65020244632E+02  2.65020244632E+02  0.00000000000E+00 0.00000000000E+00  1.
       21   -1    0    0  502  501  0.00000000000E+00  0.00000000000E+00 -1.47404374685E+01  1.47404374685E+01  0.00000000000E+00 0.00000000000E+00  1.
       25    2    1    2    0    0  3.55271367880E-15  0.00000000000E+00  2.50279807164E+02  2.79760682101E+02  1.25004229431E+02 0.00000000000E+00  1.
       23    2    3    3    0    0  1.84164870680E+01 -4.91074567611E+01  1.67852803353E+02  1.76732945305E+02  1.75858197802E+01 0.00000000000E+00  1.
       23    2    3    3    0    0 -1.84164870680E+01  4.91074567611E+01  8.24270038112E+01  1.03027736796E+02  3.27077098941E+01 0.00000000000E+00  1.
        4    1    4    4  803    0  1.36248976342E+01 -4.26975681456E+01  1.56420578850E+02  1.62719830610E+02  1.27500000000E+00 0.00000000000E+00  1.
       -4    1    4    4    0  803  4.79158943378E+00 -6.40988861550E+00  1.14322245028E+01  1.40131146947E+01  1.27500000000E+00 0.00000000000E+00  1.
        3    1    5    5  804    0 -1.18920563317E+01  5.21068682054E+01  6.48216843903E+01  8.40142695330E+01  1.34869915235E-06 0.00000000000E+00  1.
       -3    1    5    5    0  804 -6.52443073635E+00 -2.99941144423E+00  1.76053194209E+01  1.90134673629E+01  0.00000000000E+00 0.00000000000E+00  1.
</event>
<event>
 9   0   1.0000000E+00   6.2498789E+01   7.8125000E-03   1.3828984E-01
       21   -1    0    0  501  502  0.00000000000E+00  0.00000000000E+00  7.26477278788E+01  7.26477278788E+01  0.00000000000E+00 0.00000000000E+00  1.
       21   -1    0    0  502  501  0.00000000000E+00  0.00000000000E+00 -5.37676638484E+01  5.37676638484E+01  0.00000000000E+00 0.00000000000E+00  1.
       25    2    1    2    0    0 -5.32907051820E-15 -7.10542735760E-15  1.88800640304E+01  1.26415391727E+02  1.24997577768E+02 0.00000000000E+00  1.
       23    2    3    3    0    0  2.03667023291E+00 -8.52398705591E+00  5.52685096588E+00  3.65175026848E+01  3.50167893983E+01 0.00000000000E+00  1.
       23    2    3    3    0    0 -2.03667023291E+00  8.52398705591E+00  1.33532130645E+01  8.98978890425E+01  8.84675973121E+01 0.00000000000E+00  1.
        4    1    4    4  803    0 -1.16313126954E+00  5.94276668425E+00  1.67694851081E+01  1.78748596080E+01  1.27500000000E+00 0.00000000000E+00  1.
       -4    1    4    4    0  803  3.19980150244E+00 -1.44667537402E+01 -1.12426341422E+01  1.86426430768E+01  1.27500000000E+00 0.00000000000E+00  1.
       15    1    5    5    0    0  3.31065916895E+01  2.91578425579E+01  2.01694986215E+01  4.85406210179E+01  1.77680000000E+00 0.00000000000E+00  1.
      -15    1    5    5    0    0 -3.51432619224E+01 -2.06338555020E+01 -6.81628555698E+00  4.13572680246E+01  1.77680000000E+00 0.00000000000E+00  1.
</event>
<event>
 9   0   1.0000000E+00   6.2500561E+01   7.8125000E-03   1.3828918E-01
       21   -1    0    0  501  502  0.00000000000E+00  0.00000000000E+00  3.70102751448E+00  3.70102751448E+00  0.00000000000E+00 0.00000000000E+00  1.
       21   -1    0    0  502  501  0.00000000000E+00  0.00000000000E+00 -1.05546908797E+03  1.05546908797E+03  0.00000000000E+00 0.00000000000E+00  1.
       25    2    1    2    0    0 -1.06581410364E-14  0.00000000000E+00 -1.05176806046E+03  1.05917011549E+03  1.25001122159E+02 0.00000000000E+00  1.
       23    2    3    3    0    0  1.99203668846E+01  1.84896377648E+00 -3.97123609269E+02  3.97882901414E+02  1.42619253713E+01 0.00000000000E+00  1.
       23    2    3    3    0    0 -1.99203668846E+01 -1.84896377648E+00 -6.54644451191E+02  6.61287214074E+02  9.13300735758E+01 0.00000000000E+00  1.
       13    1    4    4    0    0  1.06305447179E+01  9.11058541377E-01 -3.22623403535E+02  3.22799798918E+02  1.05660000021E-01 0.00000000000E+00  1.
      -13    1    4    4    0    0  9.28982216672E+00  9.37905235108E-01 -7.45002057335E+01  7.50831024964E+01  1.05660000142E-01 0.00000000000E+00  1.
        5    1    5    5  804    0 -5.38446233890E+01 -1.30763792686E+01 -3.30739638627E+02  3.35382626595E+02  4.75000000000E+00 0.00000000000E+00  1.
       -5    1    5    5    0  804  3.39242565044E+01  1.12274154921E+01 -3.23904812564E+02  3.25904587479E+02  4.75000000000E+00 0.00000000000E+00  1.
</event>
<event>
 9   0   1.0000000E+00   6.2500321E+01   7.8125000E-03   1.3828927E-01
       21   -1    0    0  501  502  0.00000000000E+00  0.00000000000E+00  2.20204418545E+03  2.20204418545E+03  0.00000000000E+00 0.00000000000E+00  1.
       21   -1    0    0  502  501  0.00000000000E+00  0.00000000000E+00 -1.77393814720E+00  1.77393814720E+00  0.00000000000E+00 0.00000000000E+00  1.
       25    2    1    2    0    0  7.10542735760E-15  1.77635683940E-15  2.20027024730E+03  2.20381812360E+03  1.25000642917E+02 0.00000000000E+00  1.
       23    2    3    3    0    0 -1.36639381361E+01 -4.80012989889E+00  2.98480231540E+02  2.99710287889E+02  2.29360762580E+01 0.00000000000E+00  1.
       23    2    3    3    0    0  1.36639381361E+01  4.80012989889E+00  1.90179001576E+03  1.90410783571E+03  9.27989304708E+01 0.00000000000E+00  1.
       11    1    4    4    0    0 -1.79172186790E+01  3.04542435400E+00  1.93762493445E+02  1.94612962572E+02  5.10998597706E-04 0.00000000000E+00  1.
      -11    1    4    4    0    0  4.25328054282E+00 -7.84555425289E+00  1.04717738095E+02  1.05097325318E+02  5.11007496819E-04 0.00000000000E+00  1.
       12    1    5    5    0    0  3.27135883331E+01  4.05683112114E+01  1.22223759584E+03  1.22334815462E+03  2.15791864376E-05 0.00000000000E+00  1.
      -12    1    5    5    0    0 -1.90496501969E+01 -3.57681813125E+01  6.79552419926E+02  6.80759681087E+02  2.15791864376E-05 0.00000000000E+00  1.
</event>
<event>
 9   0   1.0000000E+00   6.2499359E+01   7.8125000E-03   1.3828963E-01
       21   -1    0    0  501  502  0.00000000000E+00  0.00000000000E+00  8.04737918841E+01  8.04737918841E+01  0.00000000000E+00 0.00000000000E+00  1.
       21   -1    0    0  502  501  0.00000000000E+00  0.00000000000E+00 -4.85396529716E+01  4.85396529716E+01  0.00000000000E+00 0.00000000000E+00  1.
       25    2    1    2    0    0  0.00000000000E+00 -5.32907051820E-15  3.19341389125E+01  1.29013444856E+02  1.24998718895E+02 0.00000000000E+00  1.
       23    2    3    3    0    0  8.65558156592E+00 -1.29882997029E+01  1.79941335622E+01  9.37546079057E+01  9.06781265768E+01 0.00000000000E+00  1.
       23    2    3    3    0    0 -8.65558156592E+00  1.29882997029E+01  1.39400053502E+01  3.52588369500E+01  2.83768710834E+01 0.00000000000E+00  1.
        3    1    4    4  803    0  1.08156662808E+01  7.09386632150E+00  5.23374900919E+01  5.39120992506E+01  0.00000000000E+00 0.00000000000E+00  1.
       -3    1    4    4    0  803 -2.16008471485E+00 -2.00821660244E+01 -3.43433565297E+01  3.98425086551E+01  0.00000000000E+00 0.00000000000E+00  1.
        1    1    5    5  804    0 -1.64739674388E+01  2.39279635156E+00  8.14703282638E-01  1.66667580029E+01  0.00000000000E+00 0.00000000000E+00  1.
       -1    1    5    5    0  804  7.81838587291E+00  1.05955033513E+01  1.31253020676E+01  1.85920790470E+01  0.00000000000E+00 0.00000000000E+00  1.
</event>
<event>
 9   0   1.0000000E+00   6.2501347E+01   7.8125000E-03   1.3828888E-01
       21   -1    0    0  501  502  0.00000000000E+00  0.00000000000E+00  4.10261709843E+00  4.10261709843E+00  0.00000000000E+00 0.00000000000E+00  1.
       21   -1    0    0  502  501  0.00000000000E+00  0.00000000000E+00 -9.52177168866E+02  9.52177168866E+02  0.00000000000E+00 0.00000000000E+00  1.
       25    2    1    2    0    0  0.00000000000E+00 -3.55271367880E-15 -9.48074551768E+02  9.56279785965E+02  1.25002693311E+02 0.00000000000E+00  1.
       23    2    3    3    0    0 -1.87381288229E+01 -5.31337170498E+00 -6.75262631333E+02  6.79705621621E+02  7.51050024861E+01 0.00000000000E+00  1.
       23    2    3    3    0    0  1.87381288229E+01  5.31337170498E+00 -2.72811920435E+02  2.76574164343E+02  4.10801054056E+01 0.00000000000E+00  1.
        5    1    4    4  804    0 -1.93380631606E+01 -2.84703586622E+01 -1.52464451428E+02  1.56372930709E+02  4.75000000000E+00 0.00000000000E+00  1.
       -5    1    4    4    0  804  5.99934337634E-01  2.31569869573E+01 -5.22798179904E+02  5.23332690912E+02  4.75000000000E+00 0.00000000000E+00  1.
        1    1    5    5  803    0  2.17598033534E+01  4.56739384345E+00 -2.72544927963E+02  2.73450338977E+02  0.00000000000E+00 0.00000000000E+00  1.
       -1    1    5    5    0  803 -3.02167453051E+00  7.45977861534E-01 -2.66992472234E-01  3.12382536619E+00  2.77456610370E-06 0.00000000000E+00  1.
</event>
<event>
 9   0   1.0000000E+00   6.2501643E+01   7.8125000E-03   1.3828877E-01
       21   -1    0    0  501  502  0.00000000000E+00  0.00000000000E+00  4.51210557857E+01  4.51210557857E+01  0.00000000000E+00 0.00000000000E+00  1.
       21   -1    0    0  502  501  0.00000000000E+00  0.00000000000E+00 -8.65772160767E+01  8.65772160767E+01  0.00000000000E+00 0.00000000000E+00  1.
       25    2    1    2    0    0  1.06581410364E-14  7.10542735760E-15 -4.14561602910E+01  1.31698271862E+02  1.25003286299E+02 0.00000000000E+00  1.
       23    2    3    3    0    0  2.68312752646E+01  2.53689193725E+01  1.58614019870E+00  6.42111700285E+01  5.25077052750E+01 0.00000000000E+00  1.
       23    2    3    3    0    0 -2.68312752646E+01 -2.53689193725E+01 -4.30423004897E+01  6.74871018339E+01  3.65837379178E+01 0.00000000000E+00  1.
       11    1    4    4    0    0  3.38419722214E+01  3.43274216273E+01  1.10024130400E+01  4.94439485921E+01  5.11000919833E-04 0.00000000000E+00  1.
      -11    1    4    4    0    0 -7.01069695674E+00 -8.95850225486E+00 -9.41627284127E+00  1.47672214364E+01  5.11000530495E-04 0.00000000000E+00  1.
       11    1    5    5    0    0 -3.19987391053E+01 -2.77249875755E+01 -4.47023299101E+01  6.15702244599E+01  5.10999487625E-04 0.00000000000E+00  1.
      -11    1    5    5    0    0  5.16746384065E+00  2.35606820302E+00  1.66002942032E+00  5.91687737402E+00  5.10999204311E-04 0.00000000000E+00  1.
</event>
<event>
 9   0   1.0000000E+00   6.2500893E+01   7.8125000E-03   1.3828905E-01
       21   -1    0    0  501  502  0.00000000000E+00  0.00000000000E+00  3.92814881654E+01  3.92814881654E+01  0.00000000000E+00 0.00000000000E+00  1.
       21   -1    0    0  502  501  0.00000000000E+00  0.00000000000E+00 -9.94453559255E+01  9.94453559255E+01  0.00000000000E+00 0.00000000000E+00  1.
       25    2    1    2    0    0 -5.32907051820E-15  0.00000000000E+00 -6.01638677601E+01  1.38726844091E+02  1.25001785138E+02 0.00000000000E+00  1.
       23    2    3    3    0    0 -1.28043363259E+01 -1.05279167089E+01  1.22666750437E+01  4.80631595832E+01  4.34143747336E+01 0.00000000000E+00  1.
       23    2    3    3    0    0  1.28043363259E+01  1.05279167089E+01 -7.24305428038E+01  9.06636845078E+01  5.19512473257E+01 0.00000000000E+00  1.
        5    1    4    4  803    0  1.53430553816E+01 -4.61562360900E-02  4.09635380461E+00  1.65757079286E+01  4.75000000000E+00 0.00000000000E+00  1.
       -5    1    4    4    0  803 -2.81473917076E+01 -1.04817604728E+01  8.17032123911E+00  3.14874516546E+01  4.75000000000E+00 0.00000000000E+00  1.
        5    1    5    5  804    0 -1.77970390122E+01 -3.92038202779E+00 -3.65345110326E+01  4.11027613335E+01  4.75000000000E+00 0.00000000000E+00  1.
       -5    1    5    5    0  804  3.06013753381E+01  1.44482987367E+01 -3.58960317712E+01  4.95609231743E+01  4.75000000000E+00 0.00000000000E+00  1.
</event>
<event>
 9   0   1.0000000E+00   6.2495988E+01   7.8125000E-03   1.3829088E-01
       21   -1    0    0  501  502  0.00000000000E+00  0.00000000000E+00  2.57365515091E+02  2.57365515091E+02  0.00000000000E+00 0.00000000000E+00  1.
       21   -1    0    0  502  501  0.00000000000E+00  0.00000000000E+00 -1.51758812288E+01  1.51758812288E+01  0.00000000000E+00 0.00000000000E+00  1.
       25    2    1    2    0    0 -3.55271367880E-15  4.44089209850E-16  2.42189633863E+02  2.72541396320E+02  1.24991975573E+02 0.00000000000E+00  1.
       23    2    3    3    0    0 -1.35470100237E+01  1.47394819269E+00  1.48755116276E+02  1.64375302469E+02  6.85963660823E+01 0.00000000000E+00  1.
       23    2    3    3    0    0  1.35470100237E+01 -1.47394819269E+00  9.34345175870E+01  1.08166093851E+02  5.27655264212E+01 0.00000000000E+00  1.
        5    1    4    4  804    0 -3.59815754730E+01 -3.63150671203E+00  1.27769786494E+02  1.32874160224E+02  4.75000000000E+00 0.00000000000E+00  1.
       -5    1    4    4    0  804  2.24345654493E+01  5.10545490472E+00  2.09853297814E+01  3.15011422446E+01  4.75000000000E+00 0.00000000000E+00  1.
       11    1    5    5    0    0 -4.50881738231E+00 -2.26437071917E+00  8.95350304907E+01  8.96770789788E+01  5.11000377541E-04 0.00000000000E+00  1.
      -11    1    5    5    0    0  1.80558274060E+01  7.90422526477E-01  3.89948709636E+00  1.84890148727E+01  5.10998008482E-04 0.00000000000E+00  1.
</event>
<event>
 9   0   1.0000000E+00   6.2485262E+01   7.8125000E-03   1.3829489E-01
       21   -1    0    0  501  502  0.00000000000E+00  0.00000000000E+00  1.85830859184E+01  1.85830859184E+01  0.00000000000E+00 0.00000000000E+00  1.
       21   -1    0    0  502  501  0.00000000000E+00  0.00000000000E+00 -2.10105466411E+02  2.10105466411E+02  0.00000000000E+00 0.00000000000E+00  1.
       25    2    1    2    0    0 -8.88178419700E-16  0.00000000000E+00 -1.91522380492E+02  2.28688552329E+02  1.24970523472E+02 0.00000000000E+00  1.
       23    2    3    3    0    0 -6.57978616579E+00  3.22887324620E+00 -5.11507998723E+01  7.14826880784E+01  4.93928249740E+01 0.00000000000E+00  1.
       23    2    3    3    0    0  6.57978616579E+00 -3.22887324620E+00 -1.40371580620E+02  1.57205864251E+02  7.03973287891E+01 0.00000000000E+00  1.
        1    1    4    4  803    0 -5.49376385771E+00  2.29992280785E+01 -4.48541602856E+01  5.07054398310E+01  1.06624029994E-06 0.00000000000E+00  1.
       -1    1    4    4    0  803 -1.08602230808E+00 -1.97703548323E+01 -6.29663958670E+00  2.07772482474E+01  1.01152436426E-06 0.00000000000E+00  1.
       12    1    5    5    0    0  2.14432705288E+01 -3.19076633855E+01 -7.38983502156E+01  8.32999339633E+01  0.00000000000E+00 0.00000000000E+00  1.
      -12    1    5    5    0    0 -1.48634843631E+01  2.86787901393E+01 -6.64732304045E+01  7.39059303876E+01  1.34869915235E-06 0.00000000000E+00  1.
</event>
<event>
 9   0   1.0000000E+00   6.2500082E+01   7.8125000E-03   1.3828936E-01
       21   -1    0    0  501  502  0.00000000000E+00  0.00000000000E+00  1.02526566712E+02  1.02526566712E+02  0.00000000000E+00 0.00000000000E+00  1.
       21   -1    0    0  502  501  0.00000000000E+00  0.00000000000E+00 -3.80999815506E+01  3.80999815506E+01  0.00000000000E+00 0.00000000000E+00  1.
       25    2    1    2    0    0 -8.88178419700E-16  2.88657986403E-15  6.44265851617E+01  1.40626548263E+02  1.25000164803E+02 0.00000000000E+00  1.
       23    2    3    3    0    0 -7.12232791762E+00  1.98393534338E+00 -1.64648980963E+01  1.85444389242E+01  4.25908338470E+00 0.00000000000E+00  1.
       23    2    3    3    0    0  7.12232791762E+00 -1.98393534338E+00  8.08914832581E+01  1.22082109339E+02  9.11369617801E+01 0.00000000000E+00  1.
        2    1    4    4  803    0 -5.66148656334E+00  3.30298837231E+00 -1.30251328149E+01  1.45813664360E+01  0.00000000000E+00 0.00000000000E+00  1.
       -2    1    4    4    0  803 -1.46084135428E+00 -1.31905302893E+00 -3.43976528141E+00  3.96307248820E+00  0.00000000000E+00 0.00000000000E+00  1.
       12    1    5    5    0    0  2.11232047471E+01  2.42276825218E+01  8.61075359857E+01  9.19112514934E+01  1.34869915235E-06 0.00000000000E+00  1.
      -12    1    5    5    0    0 -1.40008768295E+01 -2.62116178652E+01 -5.21605272769E+00  3.01708579454E+01  0.00000000000E+00 0.00000000000E+00  1.
</event>
<event>
 9   0   1.0000000E+00   6.2498016E+01   7.8125000E-03   1.3829013E-01
       21   -1    0    0  501  502  0.00000000000E+00  0.00000000000E+00  1.14366985639E+01  1.14366985639E+01  0.00000000000E+00 0.00000000000E+00  1.
       21   -1    0    0  502  501  0.00000000000E+00  0.00000000000E+00 -3.41532303635E+02  3.41532303635E+02  0.00000000000E+00 0.00000000000E+00  1.
       25    2    1    2    0    0 -7.10542735760E-15  0.00000000000E+00 -3.30095605071E+02  3.52969002199E+02  1.24996032041E+02 0.00000000000E+00  1.
       23    2    3    3    0    0  5.45457296482E+01  2.04758519952E+01 -2.17916548525E+02  2.26459712064E+02  2.00469930177E+01 0.00000000000E+00  1.
       23    2    3    3    0    0 -5.45457296482E+01 -2.04758519952E+01 -1.12179056546E+02  1.26509290135E+02  5.09535329524E+00 0.00000000000E+00  1.
       13    1    4    4    0    0  1.71422402994E+00  2.46070448947E+00 -2.43084574899E+00  3.86183967822E+00  1.05659999971E-01 0.00000000000E+00  1.
      -13    1    4    4    0    0  5.28315056182E+01  1.80151475057E+01 -2.15485702776E+02  2.22597872386E+02  1.05659999918E-01 0.00000000000E+00  1.
        2    1    5    5  804    0 -5.26027685958E+01 -1.92819727505E+01 -1.05526487232E+02  1.19476714336E+02  1.34869915235E-06 0.00000000000E+00  1.
       -2    1    5    5    0  804 -1.94296105231E+00 -1.19387924473E+00 -6.65256931425E+00  7.03257589953E+00  1.76212137927E-06 0.00000000000E+00  1.
</event>
<event>
 9   0   1.0000000E+00   6.2499629E+01   7.8125000E-03   1.3828952E-01
       21   -1    0    0  501  502  0.00000000000E+00  0.00000000000E+00  5.28667221304E+01  5.28667221304E+01  0.00000000000E+00 0.00000000000E+00  1.
       21   -1    0    0  502  501  0.00000000000E+00  0.00000000000E+00 -7.38877583068E+01  7.38877583068E+01  0.00000000000E+00 0.00000000000E+00  1.
       25    2    1    2    0    0 -1.77635683940E-15  0.00000000000E+00 -2.10210361764E+01  1.26754480437E+02  1.24999257394E+02 0.00000000000E+00  1.
       23    2    3    3    0    0 -9.07026772030E+00 -8.29415304777E+00 -6.73145734242E+01  6.89894144098E+01  8.78776274315E+00 0.00000000000E+00  1.
       23    2    3    3    0    0  9.07026772030E+00  8.29415304777E+00  4.62935372478E+01  5.77650660273E+01  3.22900686114E+01 0.00000000000E+00  1.
        2    1    4    4  804    0  9.95910155366E-01 -2.35720911517E+00 -2.36477162275E+01  2.37857679007E+01  0.00000000000E+00 0.00000000000E+00  1.
       -2    1    4    4    0  804 -1.00661778757E+01 -5.93694393260E+00 -4.36668571968E+01  4.52036465092E+01  0.00000000000E+00 0.00000000000E+00  1.
        4    1    5    5  803    0  1.80466138558E+01 -2.96872005281E+00  3.46488279834E+01  3.92002611730E+01  1.27500000000E+00 0.00000000000E+00  1.
       -4    1    5    5    0  803 -8.97634613549E+00  1.12628731006E+01  1.16447092644E+01  1.85648048543E+01  1.27500000000E+00 0.00000000000E+00  1.
</event>
<event>
 9   0   1.0000000E+00   6.2501733E+01   7.8125000E-03   1.3828874E-01
       21   -1    0    0  501  502  0.00000000000E+00  0.00000000000E+00  8.28697513603E+00  8.28697513603E+00  0.00000000000E+00 0.00000000000E+00  1.
       21   -1    0    0  502  501  0.00000000000E+00  0.00000000000E+00 -4.71398372864E+02  4.71398372864E+02  0.00000000000E+00 0.00000000000E+00  1.
       25    2    1    2    0    0  2.22044604925E-16 -2.66453525910E-15 -4.63111397728E+02  4.79685348000E+02  1.25003465473E+02 0.00000000000E+00  1.
       23    2    3    3    0    0  1.72523326286E+00 -3.38755982571E+00 -2.86658047147E+02  3.00071935832E+02  8.86333948807E+01 0.00000000000E+00  1.
       23    2    3    3    0    0 -1.72523326286E+00  3.38755982571E+00 -1.76453350581E+02  1.79613412169E+02  3.33277798274E+01 0.00000000000E+00  1.
        4    1    4    4  803    0  5.27703211658E-01 -3.68658722315E+01 -5.64510122829E+01  6.74367364190E+01  1.27500000000E+00 0.00000000000E+00  1.
       -4    1    4    4    0  803  1.19753005120E+00  3.34783124058E+01 -2.30207034864E+02  2.32635199413E+02  1.27500000000E+00 0.00000000000E+00  1.
        5    1    5    5  804    0  1.30926017280E+01  8.98742328254E+00 -7.39801280782E+01  7.58143248188E+01  4.75000000000E+00 0.00000000000E+00  1.
       -5    1    5    5    0  804 -1.48178349909E+01 -5.59986345683E+00 -1.02473222503E+02  1.03799087350E+02  4.75000000000E+00 0.00000000000E+00  1.
</event>
<event>
 9   0   1.0000000E+00   6.2501533E+01   7.8125000E-03   1.3828881E-01
       21   -1    0    0  501  502  0.00000000000E+00  0.00000000000E+00  5.90856660528E+01  5.90856660528E+01  0.00000000000E+00 0.00000000000E+00  1.
       21   -1    0    0  502  501  0.00000000000E+00  0.00000000000E+00 -6.61148791913E+01  6.61148791913E+01  0.00000000000E+00 0.00000000000E+00  1.
       25    2    1    2    0    0  3.55271367880E-15 -1.77635683940E-15 -7.02921313855E+00  1.25200545244E+02  1.25003066731E+02 0.00000000000E+00  1.
       23    2    3    3    0    0 -2.84473294315E+01  8.38910843052E+00 -6.70614327670E+00  9.45558400230E+01  8.95332722108E+01 0.00000000000E+00  1.
       23    2    3    3    0    0  2.84473294315E+01 -8.38910843052E+00 -3.23069861841E-01  3.06447052211E+01  7.70492646987E+00 0.00000000000E+00  1.
       11    1    4    4    0    0 -3.48896352275E+01 -2.48393494086E+01  2.37936964502E+01  4.89940804218E+01  5.10996150423E-04 0.00000000000E+00  1.
      -11    1    4    4    0    0  6.44230579597E+00  3.32284578391E+01 -3.04998397269E+01  4.55617596013E+01  5.10996039183E-04 0.00000000000E+00  1.
       11    1    5    5    0    0  2.43362031586E+01 -9.71763603910E+00 -1.21640360053E+00  2.62328586384E+01  5.10999872183E-04 0.00000000000E+00  1.
      -11    1    5    5    0    0  4.11112627297E+00  1.32852760858E+00  8.93333738686E-01  4.41184658266E+00  5.10999965716E-04 0.00000000000E+00  1.
</event>
<event>
 9   0   1.0000000E+00   6.2499826E+01   7.8125000E-03   1.3828945E-01
       21   -1    0    0  501  502  0.00000000000E+00  0.00000000000E+00  1.37062794256E+02  1.37062794256E+02  0.00000000000E+00 0.00000000000E+00  1.
       21   -1    0    0  502  501  0.00000000000E+00  0.00000000000E+00 -2.84995523635E+01  2.84995523635E+01  0.00000000000E+00 0.00000000000E+00  1.
       25    2    1    2    0    0 -3.55271367880E-15  0.00000000000E+00  1.08563241892E+02  1.65562346619E+02  1.24999652511E+02 0.00000000000E+00  1.
       23    2    3    3    0    0 -2.03199893082E+01  1.17765800031E+01  5.77834274637E+01  1.09263914879E+02  8.97111409088E+01 0.00000000000E+00  1.
       23    2    3    3    0    0  2.03199893082E+01 -1.17765800031E+01  5.07798144286E+01  5.62984317403E+01  6.27168724991E+00 0.00000000000E+00  1.
        3    1    4    4  804    0 -2.92830856187E+01  4.18633038908E+01  5.87491533585E+01  7.78556249499E+01  1.78416127528E-06 0.00000000000E+00  1.
       -3    1    4    4    0  804  8.96309631046E+00 -3.00867238877E+01 -9.65725894773E-01  3.14082899291E+01  1.42463985320E-06 0.00000000000E+00  1.
        2    1    5    5  803    0  1.02458725230E+01 -7.13620365230E+00  3.36441538368E+01  3.58863817307E+01  0.00000000000E+00 0.00000000000E+00  1.
       -2    1    5    5    0  803  1.00741167852E+01 -4.64037635081E+00  1.71356605918E+01  2.04120500097E+01  0.00000000000E+00 0.00000000000E+00  1.
</event>
<event>
 9   0   1.0000000E+00   6.2519576E+01   7.8125000E-03   1.3828208E-01
       21   -1    0    0  501  502  0.00000000000E+00  0.00000000000E+00  3.43077287443E+01  3.43077287443E+01  0.00000000000E+00 0.00000000000E+00  1.
       21   -1    0    0  502  501  0.00000000000E+00  0.00000000000E+00 -1.13930520844E+02  1.13930520844E+02  0.00000000000E+00 0.00000000000E+00  1.
       25    2    1    2    0    0  3.55271367880E-15  8.88178419700E-16 -7.96227920996E+01  1.48238249588E+02  1.25039152345E+02 0.00000000000E+00  1.
       23    2    3    3    0    0 -2.07485876988E+01  4.95095044327E+00 -1.31596125646E+01  5.86018788294E+01  5.29715867018E+01 0.00000000000E+00  1.
       23    2    3    3    0    0  2.07485876988E+01 -4.95095044327E+00 -6.64631795350E+01  8.96363707589E+01  5.62344105253E+01 0.00000000000E+00  1.
       11    1    4    4    0    0 -2.62909414688E+01 -1.50359465760E+01 -2.05309859757E+01  3.65898165908E+01  5.10999432005E-04 0.00000000000E+00  1.
      -11    1    4    4    0    0  5.54235377002E+00  1.99868970192E+01  7.37137341110E+00  2.20120622386E+01  5.10999626674E-04 0.00000000000E+00  1.
        4    1    5    5  803    0  1.20305073944E+01  5.52313955210E+00  6.91723194846E+00  1.49903936408E+01  1.27500000000E+00 0.00000000000E+00  1.
       -4    1    5    5    0  803  8.71808030444E+00 -1.04740899954E+01 -7.33804114835E+01  7.46459771181E+01  1.27500000000E+00 0.00000000000E+00  1.
</event>
<event>
 9   0   1.0000000E+00   6.2501076E+01   7.8125000E-03   1.3828898E-01
       21   -1    0    0  501  502  0.00000000000E+00  0.00000000000E+00  5.68895449252E+01  5.68895449252E+01  0.00000000000E+00 0.00000000000E+00  1.
       21   -1    0    0  502  501  0.00000000000E+00  0.00000000000E+00 -6.86661238139E+01  6.86661238139E+01  0.00000000000E+00 0.00000000000E+00  1.
       25    2    1    2    0    0 -7.10542735760E-15  0.00000000000E+00 -1.17765788887E+01  1.25555668739E+02  1.25002152550E+02 0.00000000000E+00  1.
       23    2    3    3    0    0 -2.19523700260E+01 -6.73933710425E+00 -1.65772125111E+01  9.70552339745E+01  9.28309714096E+01 0.00000000000E+00  1.
       23    2    3    3    0    0  2.19523700260E+01  6.73933710425E+00  4.80063362238E+00  2.85004347645E+01  1.61834323994E+01 0.00000000000E+00  1.
        2    1    5    5  804    0  7.97566980074E-01 -1.61425603578E+00  5.45718798973E+00  5.74655005558E+00  0.00000000000E+00 0.00000000000E+00  1.
       -2    1    4    4    0  803  3.56663569627E+01  6.97669872545E+00 -4.66582452620E+00  3.66405958277E+01  0.00000000000E+00 0.00000000000E+00  1.
        2    1    4    4  803    0 -5.76187269887E+01 -1.37160358297E+01 -1.19113879849E+01  6.04146382468E+01  0.00000000000E+00 0.00000000000E+00  1.
       -2    1    5    5    0  804  2.11548030459E+01  8.35359314003E+00 -6.56554367351E-01  2.27538849090E+01  1.11994395488E-06 0.00000000000E+00  1.
</event>
<event>
 9   0   1.0000000E+00   6.2499947E+01   7.8125000E-03   1.3828941E-01
       21   -1    0    0  501  502  0.00000000000E+00  0.00000000000E+00  2.26254001335E+02  2.26254001335E+02  0.00000000000E+00 0.00000000000E+00  1.
       21   -1    0    0  502  501  0.00000000000E+00  0.00000000000E+00 -1.72648589160E+01  1.72648589160E+01  0.00000000000E+00 0.00000000000E+00  1.
       25    2    1    2    0    0  1.77635683940E-15  7.10542735760E-15  2.08989142419E+02  2.43518860251E+02  1.24999894596E+02 0.00000000000E+00  1.
       23    2    3    3    0    0 -8.75980479092E+00 -2.44756508737E+01  1.44545575722E+02  1.73891427461E+02  9.31075368477E+01 0.00000000000E+00  1.
       23    2    3    3    0    0  8.75980479092E+00  2.44756508737E+01  6.44435666972E+01  6.96274327906E+01  4.38342818891E+00 0.00000000000E+00  1.
       13    1    4    4    0    0  1.37291478387E+01 -3.54978643914E+01  1.33609973059E+01  4.03375171493E+01  1.05659999992E-01 0.00000000000E+00  1.
      -13    1    4    4    0    0 -2.24889526296E+01  1.10222135177E+01  1.31184578416E+02  1.33553910312E+02  1.05659999952E-01 0.00000000000E+00  1.
        4    1    5    5  803    0  3.24949459825E+00  1.19206526039E+01  3.45442015435E+01  3.67095172800E+01  1.27500000000E+00 0.00000000000E+00  1.
       -4    1    5    5    0  803  5.51031019267E+00  1.25549982698E+01  2.98993651536E+01  3.29179155106E+01  1.27500000000E+00 0.00000000000E+00  1.
</event>
<event>
 9   0   1.0000000E+00   6.2499961E+01   7.8125000E-03   1.3828940E-01
       21   -1    0    0  501  502  0.00000000000E+00  0.00000000000E+00  2.72850857788E+01  2.72850857788E+01  0.00000000000E+00 0.00000000000E+00  1.
       21   -1    0    0  502  501  0.00000000000E+00  0.00000000000E+00 -1.43164115335E+02  1.43164115335E+02  0.00000000000E+00 0.00000000000E+00  1.
       25    2    1    2    0    0  1.77635683940E-15 -3.55271367880E-15 -1.15879029557E+02  1.70449201114E+02  1.24999922678E+02 0.00000000000E+00  1.
       23    2    3    3    0    0  1.13329061861E+01 -8.41391025705E+00  4.98109064676E+00  1.84829040105E+01  1.08433310469E+01 0.00000000000E+00  1.
       23    2    3    3    0    0 -1.13329061861E+01  8.41391025705E+00 -1.20860120203E+02  1.51966297104E+02  9.10349281947E+01 0.00000000000E+00  1.
        1    1    4    4  803    0 -2.02798282449E+00 -1.64543183320E+00 -2.37406483847E-01  2.62231245605E+00  0.00000000000E+00 0.00000000000E+00  1.
       -1    1    4    4    0  803  1.33608890106E+01 -6.76847842385E+00  5.21849713061E+00  1.58605917544E+01  0.00000000000E+00 0.00000000000E+00  1.
       13    1    5    5    0    0 -3.02729596349E+01  4.22117803463E+01 -8.21736820163E+01  9.72152851418E+01  1.05660000008E-01 0.00000000000E+00  1.
      -13    1    5    5    0    0  1.89400534488E+01 -3.37978700893E+01 -3.86864381871E+01  5.47510119619E+01  1.05660000018E-01 0.00000000000E+00  1.
</event>
<event>
 9   0   1.0000000E+00   6.2501085E+01   7.8125000E-03   1.3828898E-01
       21   -1    0    0  501  502  0.00000000000E+00  0.00000000000E+00  5.14537578665E+02  5.14537578665E+02  0.00000000000E+00 0.00000000000E+00  1.
       21   -1    0    0  502  501  0.00000000000E+00  0.00000000000E+00 -7.59203176920E+00  7.59203176920E+00  0.00000000000E+00 0.00000000000E+00  1.
       25    2    1    2    0    0  0.00000000000E+00 -1.06581410364E-14  5.06945546896E+02  5.22129610435E+02  1.25002170280E+02 0.00000000000E+00  1.
       23    2    3    3    0    0  9.96793616025E+00  1.15395668721E+01  2.91988027173E+02  3.06407722908E+02  9.16305805416E+01 0.00000000000E+00  1.
       23    2    3    3    0    0 -9.96793616025E+00 -1.15395668721E+01  2.14957519723E+02  2.15721887527E+02  9.83240141555E+00 0.00000000000E+00  1.
        4    1    4    4  803    0 -8.95724912691E+00 -1.94579233602E+01  1.30558351278E+01  2.51181916008E+01  1.27500000002E+00 0.00000000000E+00  1.
       -4    1    4    4    0  803  1.89251852872E+01  3.09974902323E+01  2.78932192045E+02  2.81289531307E+02  1.27500000002E+00 0.00000000000E+00  1.
        3    1    5    5  804    0 -7.82360140092E+00 -1.95731023994E+00  7.91313400125E+01  7.95412394575E+01  2.13248059988E-06 0.00000000000E+00  1.
       -3    1    5    5    0  804 -2.14433475933E+00 -9.58225663221E+00  1.35826179711E+02  1.36180648169E+02  1.90734863281E-06 0.00000000000E+00  1.
</event>
<event>
 9   0   1.0000000E+00   6.2502523E+01   7.8125000E-03   1.3828844E-01
       21   -1    0    0  501  502  0.00000000000E+00  0.00000000000E+00  1.94995813005E+02  1.94995813005E+02  0.00000000000E+00 0.00000000000E+00  1.
       21   -1    0    0  502  501  0.00000000000E+00  0.00000000000E+00 -2.00340990205E+01  2.00340990205E+01  0.00000000000E+00 0.00000000000E+00  1.
       25    2    1    2    0    0  1.77635683940E-15 -1.55431223448E-15  1.74961713984E+02  2.15029912025E+02  1.25005046719E+02 0.00000000000E+00  1.
       23    2    3    3    0    0 -8.36712852357E+00 -6.43863451774E-01  5.72944323331E+01  6.58374134780E+01  3.13287350083E+01 0.00000000000E+00  1.
       23    2    3    3    0    0  8.36712852357E+00  6.43863451774E-01  1.17667281651E+02  1.49192498547E+02  9.13366796623E+01 0.00000000000E+00  1.
        5    1    4    4  803    0 -7.89723668042E+00 -1.19128036273E+00  5.97316402288E+01  6.04501186145E+01  4.75000000000E+00 0.00000000000E+00  1.
       -5    1    4    4    0  803 -4.69891843157E-01  5.47416910954E-01 -2.43720789570E+00  5.38729486343E+00  4.75000000000E+00 0.00000000000E+00  1.
        5    1    5    5  804    0  3.42499890694E+00  1.07832920182E+01 -1.30444951627E+01  1.79089742396E+01  4.75000000000E+00 0.00000000000E+00  1.
       -5    1    5    5    0  804  4.94212961663E+00 -1.01394285665E+01  1.30711776814E+02  1.31283524308E+02  4.75000000000E+00 0.00000000000E+00  1.
</event>
<event>
 9   0   1.0000000E+00   6.2499631E+01   7.8125000E-03   1.3828952E-01
       21   -1    0    0  501  502  0.00000000000E+00  0.00000000000E+00  2.82551922372E+02  2.82551922372E+02  0.00000000000E+00 0.00000000000E+00  1.
       21   -1    0    0  502  501  0.00000000000E+00  0.00000000000E+00 -1.38247292470E+01  1.38247292470E+01  0.00000000000E+00 0.00000000000E+00  1.
       25    2    1    2    0    0 -3.55271367880E-15 -8.88178419700E-16  2.68727193125E+02  2.96376651619E+02  1.24999261198E+02 0.00000000000E+00  1.
       23    2    3    3    0    0 -1.45731025986E+00  7.62519804031E+00  2.19992633438E+02  2.38326751221E+02  9.13379120758E+01 0.00000000000E+00  1.
       23    2    3    3    0    0  1.45731025986E+00 -7.62519804031E+00  4.87345596868E+01  5.80499003975E+01  3.05690403830E+01 0.00000000000E+00  1.
        4    1    4    4  803    0  4.28729707161E+01  1.42927468971E+01  1.32657548692E+02  1.40150009211E+02  1.27500000000E+00 0.00000000000E+00  1.
       -4    1    4    4    0  803 -4.43302809759E+01 -6.66754885680E+00  8.73350847462E+01  9.81767420105E+01  1.27500000000E+00 0.00000000000E+00  1.
        4    1    5    5  804    0 -5.66349275278E+00  2.66771219683E+00  4.42269062307E+01  4.46859787659E+01  1.27500000000E+00 0.00000000000E+00  1.
       -4    1    5    5    0  804  7.12080301264E+00 -1.02929102371E+01  4.50765345613E+00  1.33639216316E+01  1.27500000000E+00 0.00000000000E+00  1.
</event>
<event>
 9   0   1.0000000E+00   6.2500245E+01   7.8125000E-03   1.3828929E-01
       21   -1    0    0  501  502  0.00000000000E+00  0.00000000000E+00  1.83311525348E+02  1.83311525348E+02  0.00000000000E+00 0.00000000000E+00  1.
       21   -1    0    0  502  501  0.00000000000E+00  0.00000000000E+00 -2.13095198256E+01  2.13095198256E+01  0.00000000000E+00 0.00000000000E+00  1.
       25    2    1    2    0    0  0.00000000000E+00 -1.77635683940E-15  1.62002005523E+02  2.04621045174E+02  1.25000489338E+02 0.00000000000E+00  1.
       23    2    3    3    0    0 -3.56550597487E+00  5.05731744573E+00  1.27996734489E+02  1.57921436497E+02  9.22915314247E+01 0.00000000000E+00  1.
       23    2    3    3    0    0  3.56550597487E+00 -5.05731744573E+00  3.40052710335E+01  4.66996086771E+01  3.14039121755E+01 0.00000000000E+00  1.
        5    1    4    4  803    0 -1.46735713258E+01  1.70320718946E+01 -5.26946231019E+00  2.35740302349E+01  4.75000000000E+00 0.00000000000E+00  1.
       -5    1    4    4    0  803  1.11080653509E+01 -1.19747544489E+01  1.33266196799E+02  1.34347406262E+02  4.75000000000E+00 0.00000000000E+00  1.
        2    1    5    5  804    0 -5.58863844213E+00 -1.60962632718E+01  1.38209536094E+01  2.19394925651E+01  0.00000000000E+00 0.00000000000E+00  1.
       -2    1    5    5    0  804  9.15414441700E+00  1.10389458260E+01  2.01843174241E+01  2.47601163120E+01  0.00000000000E+00 0.00000000000E+00  1.
</event>
<event>
 9   0   1.0000000E+00   6.2504171E+01   7.8125000E-03   1.3828783E-01
       21   -1    0    0  501  502  0.00000000000E+00  0.00000000000E+00  2.25106372172E+02  2.25106372172E+02  0.00000000000E+00 0.00000000000E+00  1.
       21   -1    0    0  502  501  0.00000000000E+00  0.00000000000E+00 -1.73552234683E+01  1.73552234683E+01  0.00000000000E+00 0.00000000000E+00  1.
       25    2    1    2    0    0 -1.42108547152E-14  0.00000000000E+00  2.07751148704E+02  2.42461595640E+02  1.25008342013E+02 0.00000000000E+00  1.
       23    2    3    3    0    0 -3.50171383333E+01  1.60471920929E+01  7.03988341413E+01  8.03953566235E+01  4.86879523556E+00 0.00000000000E+00  1.
       23    2    3    3    0    0  3.50171383333E+01 -1.60471920929E+01  1.37352314562E+02  1.62066239017E+02  7.69161567052E+01 0.00000000000E+00  1.
       13    1    4    4    0    0 -2.54138986900E+01  1.35660678771E+01  5.47758497378E+01  6.18894928304E+01  1.05660000002E-01 0.00000000000E+00  1.
      -13    1    4    4    0    0 -9.60323964330E+00  2.48112421580E+00  1.56229844035E+01  1.85058637931E+01  1.05659999996E-01 0.00000000000E+00  1.
        2    1    5    5  803    0  1.92824903359E+01 -1.14555987122E+01 -1.28300053636E+00  2.24653348579E+01  1.74114186413E-06 0.00000000000E+00  1.
       -2    1    5    5    0  803  1.57346479974E+01 -4.59159338066E+00  1.38635315099E+02  1.39600904259E+02  0.00000000000E+00 0.00000000000E+00  1.
</event>
<event>
 9   0   1.0000000E+00   6.2499942E+01   7.8125000E-03   1.3828941E-01
       21   -1    0    0  501  502  0.00000000000E+00  0.00000000000E+00  6.35115403131E+01  6.35115403131E+01  0.00000000000E+00 0.00000000000E+00  1.
       21   -1    0    0  502  501  0.00000000000E+00  0.00000000000E+00 -6.15044564652E+01  6.15044564652E+01  0.00000000000E+00 0.00000000000E+00  1.
       25    2    1    2    0    0  8.88178419700E-16 -3.55271367880E-15  2.00708384798E+00  1.25015996778E+02  1.24999884260E+02 0.00000000000E+00  1.
       23    2    3    3    0    0 -3.92488895316E+00 -2.41140746382E+01 -2.86220038061E+00  9.43400449066E+01  9.10766629440E+01 0.00000000000E+00  1.
       23    2    3    3    0    0  3.92488895316E+00  2.41140746382E+01  4.86928422860E+00  3.06759518717E+01  1.79000208208E+01 0.00000000000E+00  1.
        3    1    4    4  804    0 -4.12362995432E+01 -2.15167154094E+01 -2.29708133761E+01  5.18754250061E+01  1.50789149292E-06 0.00000000000E+00  1.
       -3    1    4    4    0  804  3.73114105901E+01 -2.59735922881E+00  2.01086129955E+01  4.24646201005E+01  1.01152436426E-06 0.00000000000E+00  1.
        5    1    5    5  803    0 -3.98682298058E+00  2.61681802796E+00 -2.20248486163E-01  6.73450098119E+00  4.75000000000E+00 0.00000000000E+00  1.
       -5    1    5    5    0  803  7.91171193374E+00  2.14972566102E+01  5.08953271476E+00  2.39414508905E+01  4.75000000000E+00 0.00000000000E+00  1.
</event>
<event>
 9   0   1.0000000E+00   6.2506579E+01   7.8125000E-03   1.3828693E-01
       21   -1    0    0  501  502  0.00000000000E+00  0.00000000000E+00  3.07790759371E+02  3.07790759371E+02  0.00000000000E+00 0.00000000000E+00  1.
       21   -1    0    0  502  501  0.00000000000E+00  0.00000000000E+00 -1.26939235610E+01  1.26939235610E+01  0.00000000000E+00 0.00000000000E+00  1.
       25    2    1    2    0    0 -3.55271367880E-15 -3.55271367880E-15  2.95096835810E+02  3.20484682932E+02  1.25013157263E+02 0.00000000000E+00  1.
       23    2    3    3    0    0  2.18251184757E+01  1.32255089051E+01  2.41173921615E+02  2.60385813031E+02  9.47874531678E+01 0.00000000000E+00  1.
       23    2    3    3    0    0 -2.18251184757E+01 -1.32255089051E+01  5.39229141942E+01  6.00988699008E+01  7.27623569486E+00 0.00000000000E+00  1.
        2    1    4    4  803    0  9.55429768870E+00 -1.92801220778E+01  5.56063103572E+00  2.22244984010E+01  2.73207822713E-06 0.00000000000E+00  1.
       -2    1    4    4    0  803  1.22708207870E+01  3.25056309829E+01  2.35613290580E+02  2.38161314630E+02  0.00000000000E+00 0.00000000000E+00  1.
       15    1    5    5    0    0 -3.64686883353E+00 -5.05692524315E+00  1.17320279701E+01  1.34040905598E+01  1.77680000000E+00 0.00000000000E+00  1.
      -15    1    5    5    0    0 -1.81782496422E+01 -8.16858366190E+00  4.21908862241E+01  4.66947793411E+01  1.77680000000E+00 0.00000000000E+00  1.
</event>
<event>
 9   0   1.0000000E+00   6.2499947E+01   7.8125000E-03   1.3828941E-01
       21   -1    0    0  501  502  0.00000000000E+00  0.00000000000E+00  4.91897901186E+02  4.91897901186E+02  0.00000000000E+00 0.00000000000E+00  1.
       21   -1    0    0  502  501  0.00000000000E+00  0.00000000000E+00 -7.94116701501E+00  7.94116701501E+00  0.00000000000E+00 0.00000000000E+00  1.
       25    2    1    2    0    0  0.00000000000E+00  1.77635683940E-15  4.83956734171E+02  4.99839068201E+02  1.24999894202E+02 0.00000000000E+00  1.
       23    2    3    3    0    0  1.90291442566E+01  8.07191929923E+00  8.73880223444E+01  9.24416749315E+01  2.19438511338E+01 0.00000000000E+00  1.
       23    2    3    3    0    0 -1.90291442566E+01 -8.07191929923E+00  3.96568711827E+02  4.07397393270E+02  9.09869695650E+01 0.00000000000E+00  1.
        2    1    4    4  803    0 -3.71744449325E+00  3.50330993335E-01  3.27789963754E+00  4.96857639562E+00  1.09338380860E-06 0.00000000000E+00  1.
       -2    1    4    4    0  803  2.27465887499E+01  7.72158830589E+00  8.41101227068E+01  8.74730985359E+01  1.65181236989E-06 0.00000000000E+00  1.
        5    1    5    5  804    0 -4.16791117122E+01 -2.92275709279E+01  3.28491110484E+02  3.32446042873E+02  4.75000000000E+00 0.00000000000E+00  1.
       -5    1    5    5    0  804  2.26499674556E+01  2.11556516287E+01  6.80776013436E+01  7.49513503966E+01  4.75000000000E+00 0.00000000000E+00  1.
</event>
<event>
 9   0   1.0000000E+00   6.2503623E+01   7.8125000E-03   1.3828803E-01
       21   -1    0    0  501  502  0.00000000000E+00  0.00000000000E+00  2.48918740289E+01  2.48918740289E+01  0.00000000000E+00 0.00000000000E+00  1.
       21   -1    0    0  502  501  0.00000000000E+00  0.00000000000E+00 -1.56946917401E+02  1.56946917401E+02  0.00000000000E+00 0.00000000000E+00  1.
       25    2    1    2    0    0  8.88178419700E-16 -3.55271367880E-15 -1.32055043372E+02  1.81838791430E+02  1.25007246145E+02 0.00000000000E+00  1.
       23    2    3    3    0    0 -1.32241577406E+00  1.00661784724E+01 -1.42243468302E+02  1.65996946836E+02  8.49629645893E+01 0.00000000000E+00  1.
       23    2    3    3    0    0  1.32241577406E+00 -1.00661784724E+01  1.01884249294E+01  1.58418445943E+01  6.63952596893E+00 0.00000000000E+00  1.
       16    1    4    4    0    0 -7.38681774060E+00  1.97356874658E+01 -1.50463001757E+02  1.51931489048E+02  2.69739830470E-06 0.00000000000E+00  1.
      -16    1    4    4    0    0  6.06440196654E+00 -9.66950899345E+00  8.21953345527E+00  1.40654579883E+01  3.36963987949E-06 0.00000000000E+00  1.
        1    1    5    5  803    0 -3.68454653884E-02  1.48101973621E-01 -7.78608474125E-01  7.93424916154E-01  0.00000000000E+00 0.00000000000E+00  1.
       -1    1    5    5    0  803  1.35926123945E+00 -1.02142804460E+01  1.09670334035E+01  1.50484198782E+01  0.00000000000E+00 0.00000000000E+00  1.
</event>
<event>
 9   0   1.0000000E+00   6.2500107E+01   7.8125000E-03   1.3828935E-01
       21   -1    0    0  501  502  0.00000000000E+00  0.00000000000E+00  4.27396881751E+01  4.27396881751E+01  0.00000000000E+00 0.00000000000E+00  1.
       21   -1    0    0  502  501  0.00000000000E+00  0.00000000000E+00 -9.13966266441E+01  9.13966266441E+01  0.00000000000E+00 0.00000000000E+00  1.
       25    2    1    2    0    0  0.00000000000E+00 -3.55271367880E-15 -4.86569384690E+01  1.34136314819E+02  1.25000213168E+02 0.00000000000E+00  1.
       23    2    3    3    0    0 -1.00877063087E+01 -1.26162971632E+01 -3.13051236135E+01  9.34358540985E+01  8.65408302131E+01 0.00000000000E+00  1.
       23    2    3    3    0    0  1.00877063087E+01  1.26162971632E+01 -1.73518148555E+01  4.07004607207E+01  3.30833681994E+01 0.00000000000E+00  1.
        4    1    4    4  803    0 -8.62708203453E+00  1.20504526369E+01  2.65940264297E+01  3.04714262864E+01  1.27500000000E+00 0.00000000000E+00  1.
       -4    1    4    4    0  803 -1.46062427420E+00 -2.46667498001E+01 -5.78991500432E+01  6.29644278121E+01  1.27500000000E+00 0.00000000000E+00  1.
        1    1    5    5  804    0  1.30624026589E+01  1.07280018524E+01  5.34786281834E+00  1.77289600285E+01  0.00000000000E+00 0.00000000000E+00  1.
       -1    1    5    5    0  804 -2.97469635017E+00  1.88829531080E+00 -2.26996776738E+01  2.29715006922E+01  0.00000000000E+00 0.00000000000E+00  1.
</event>
<event>
 9   0   1.0000000E+00   6.2498333E+01   7.8125000E-03   1.3829001E-01
       21   -1    0    0  501  502  0.00000000000E+00  0.00000000000E+00  1.06017567300E+02  1.06017567300E+02  0.00000000000E+00 0.00000000000E+00  1.
       21   -1    0    0  502  501  0.00000000000E+00  0.00000000000E+00 -3.68433430433E+01  3.68433430433E+01  0.00000000000E+00 0.00000000000E+00  1.
       25    2    1    2    0    0  3.55271367880E-15  0.00000000000E+00  6.91742242571E+01  1.42860910344E+02  1.24996665566E+02 0.00000000000E+00  1.
       23    2    3    3    0    0  2.54861352049E+01 -2.73694709332E+00  6.28645818320E+01  1.07137019766E+02  8.28815503500E+01 0.00000000000E+00  1.
       23    2    3    3    0    0 -2.54861352049E+01  2.73694709332E+00  6.30964242507E+00  3.57238905774E+01  2.40697071727E+01 0.00000000000E+00  1.
        5    1    4    4  803    0  5.57020324721E+01 -2.43226942215E+00  3.70463347865E+01  6.71090588309E+01  4.75000000000E+00 0.00000000000E+00  1.
       -5    1    4    4    0  803 -3.02158972672E+01 -3.04677671161E-01  2.58182470456E+01  4.00279609354E+01  4.75000000000E+00 0.00000000000E+00  1.
        2    1    5    5  804    0 -2.39947708290E+01  7.36990455733E+00 -2.93921412365E+00  2.52725839594E+01  0.00000000000E+00 0.00000000000E+00  1.
       -2    1    5    5    0  804 -1.49136437591E+00 -4.63295746402E+00  9.24885654872E+00  1.04513066180E+01  0.00000000000E+00 0.00000000000E+00  1.
</event>
<event>
 9   0   1.0000000E+00   6.2493762E+01   7.8125000E-03   1.3829172E-01
       21   -1    0    0  501  502  0.00000000000E+00  0.00000000000E+00  2.76388949681E+02  2.76388949681E+02  0.00000000000E+00 0.00000000000E+00  1.
       21   -1    0    0  502  501  0.00000000000E+00  0.00000000000E+00 -1.41303416252E+01  1.41303416252E+01  0.00000000000E+00 0.00000000000E+00  1.
       25    2    1    2    0    0  1.77635683940E-15 -7.10542735760E-15  2.62258608056E+02  2.90519291306E+02  1.24987523864E+02 0.00000000000E+00  1.
       23    2    3    3    0    0  1.19008987420E+01  1.53461000906E+01  1.85563066917E+02  2.07902605353E+02  9.17208118691E+01 0.00000000000E+00  1.
       23    2    3    3    0    0 -1.19008987420E+01 -1.53461000906E+01  7.66955411386E+01  8.26166859534E+01  2.37944655018E+01 0.00000000000E+00  1.
       11    1    4    4    0    0  7.42402292524E+00  3.31815128291E+01  1.64131152192E+01  3.77560493362E+01  5.11001211837E-04 0.00000000000E+00  1.
      -11    1    4    4    0    0  4.47687581678E+00 -1.78354127385E+01  1.69149951698E+02  1.70146556017E+02  5.10991478305E-04 0.00000000000E+00  1.
        5    1    5    5  804    0 -2.47662683337E+00 -1.87593563867E+01  5.22126430960E+01  5.57384044585E+01  4.75000000000E+00 0.00000000000E+00  1.
       -5    1    5    5    0  804 -9.42427190864E+00  3.41325629607E+00  2.44828980426E+01  2.68782814949E+01  4.75000000000E+00 0.00000000000E+00  1.
</event>
<event>
 9   0   1.0000000E+00   6.2504158E+01   7.8125000E-03   1.3828783E-01
       21   -1    0    0  501  502  0.00000000000E+00  0.00000000000E+00  1.98875142166E+02  1.98875142166E+02  0.00000000000E+00 0.00000000000E+00  1.
       21   -1    0    0  502  501  0.00000000000E+00  0.00000000000E+00 -1.96443344472E+01  1.96443344472E+01  0.00000000000E+00 0.00000000000E+00  1.
       25    2    1    2    0    0  4.44089209850E-16  0.00000000000E+00  1.79230807719E+02  2.18519476613E+02  1.25008316618E+02 0.00000000000E+00  1.
       23    2    3    3    0    0  3.63808088398E+00 -3.19067164196E+01  6.16709402635E+01  6.96713798778E+01  4.41838385550E+00 0.00000000000E+00  1.
       23    2    3    3    0    0 -3.63808088398E+00  3.19067164196E+01  1.17559867455E+02  1.48848096735E+02  8.54643743347E+01 0.00000000000E+00  1.
        2    1    4    4  803    0  4.47184966888E+00 -2.56622992154E+01  5.13598488990E+01  5.75880640360E+01  0.00000000000E+00 0.00000000000E+00  1.
       -2    1    4    4    0  803 -8.33768784902E-01 -6.24441720419E+00  1.03110913645E+01  1.20833158418E+01  0.00000000000E+00 0.00000000000E+00  1.
       12    1    5    5    0    0 -3.28450239785E+00  2.78641526392E+01 -3.00267286169E+00  2.82172820849E+01  1.44779179114E-06 0.00000000000E+00  1.
      -12    1    5    5    0    0 -3.53578486130E-01  4.04256378042E+00  1.20562540317E+02  1.20630814850E+02  1.34869915235E-06 0.00000000000E+00  1.
</event>
<event>
 9   0   1.0000000E+00   6.2498638E+01   7.8125000E-03   1.3828989E-01
       21   -1    0    0  501  502  0.00000000000E+00  0.00000000000E+00  2.34628343296E+01  2.34628343296E+01  0.00000000000E+00 0.00000000000E+00  1.
       21   -1    0    0  502  501  0.00000000000E+00  0.00000000000E+00 -1.66479449876E+02  1.66479449876E+02  0.00000000000E+00 0.00000000000E+00  1.
       25    2    1    2    0    0  7.10542735760E-15  0.00000000000E+00 -1.43016615546E+02  1.89942284206E+02  1.24997275998E+02 0.00000000000E+00  1.
       23    2    3    3    0    0  4.11705512117E+00  2.25081059340E+00 -4.22064838659E+01  5.44735777981E+01  3.41169621538E+01 0.00000000000E+00  1.
       23    2    3    3    0    0 -4.11705512117E+00 -2.25081059340E+00 -1.00810131680E+02  1.35468706408E+02  9.03718511213E+01 0.00000000000E+00  1.
        5    1    5    5  804    0  4.19389816282E+01 -2.42141752833E+00 -6.20632657978E+01  7.50942934206E+01  4.75000000000E+00 0.00000000000E+00  1.
       -5    1    4    4    0  803  1.55320767775E+00  1.67695089359E+01 -3.00895774819E+01  3.48076723882E+01  4.75000000000E+00 0.00000000000E+00  1.
        5    1    4    4  803    0  2.56384744342E+00 -1.45186983425E+01 -1.21169063840E+01  1.96659054100E+01  4.75000000000E+00 0.00000000000E+00  1.
       -5    1    5    5    0  804 -4.60560367494E+01  1.70606934930E-01 -3.87468658827E+01  6.03744129869E+01  4.75000000000E+00 0.00000000000E+00  1.
</event>
<event>
 9   0   1.0000000E+00   6.2503102E+01   7.8125000E-03   1.3828823E-01
       21   -1    0    0  501  502  0.00000000000E+00  0.00000000000E+00  1.06941892050E+02  1.06941892050E+02  0.00000000000E+00 0.00000000000E+00  1.
       21   -1    0    0  502  501  0.00000000000E+00  0.00000000000E+00 -3.65304721957E+01  3.65304721957E+01  0.00000000000E+00 0.00000000000E+00  1.
       25    2    1    2    0    0  8.88178419700E-16 -3.55271367880E-15  7.04114198543E+01  1.43472364246E+02  1.25006204871E+02 0.00000000000E+00  1.
       23    2    3    3    0    0 -6.16761805405E+00  1.66101033625E+01  3.26527483872E+01  1.00952127603E+02  9.38679660174E+01 0.00000000000E+00  1.
       23    2    3    3    0    0  6.16761805405E+00 -1.66101033625E+01  3.77586714671E+01  4.25202366422E+01  8.26548286399E+00 0.00000000000E+00  1.
        4    1    4    4  804    0  9.44500748556E-01  1.10354997989E+01  6.57147173637E+01  6.66537623894E+01  1.27500000000E+00 0.00000000000E+00  1.
       -4    1    4    4    0  804 -7.11211880261E+00  5.57460356361E+00 -3.30619689765E+01  3.42983652140E+01  1.27500000000E+00 0.00000000000E+00  1.
       13    1    5    5    0    0  5.52153368335E+00 -1.66079566990E+01  3.79884859922E+01  4.18264006574E+01  1.05659999998E-01 0.00000000000E+00  1.
      -13    1    5    5    0    0  6.46084370702E-01 -2.14666348159E-03 -2.29814525170E-01  6.93835984803E-01  1.05659999998E-01 0.00000000000E+00  1.
</event>
<event>
 9   0   1.0000000E+00   6.2492812E+01   7.8125000E-03   1.3829207E-01
       21   -1    0    0  501  502  0.00000000000E+00  0.00000000000E+00  3.48393752858E+02  3.48393752858E+02  0.00000000000E+00 0.00000000000E+00  1.
       21   -1    0    0  502  501  0.00000000000E+00  0.00000000000E+00 -1.12095912504E+01  1.12095912504E+01  0.00000000000E+00 0.00000000000E+00  1.
       25    2    1    2    0    0 -1.27675647832E-15  3.55271367880E-15  3.37184161608E+02  3.59603344108E+02  1.24985624193E+02 0.00000000000E+00  1.
       23    2    3    3    0    0 -3.42288836698E-01 -1.81058512938E+01  1.55780784724E+02  1.57036555454E+02  8.05529930602E+00 0.00000000000E+00  1.
       23    2    3    3    0    0  3.42288836698E-01  1.81058512938E+01  1.81403376884E+02  2.02566788655E+02  8.83073026894E+01 0.00000000000E+00  1.
       13    1    4    4    0    0  4.90036478509E-01 -1.35386369270E+01  1.37853236683E+02  1.38517366614E+02  1.05660000055E-01 0.00000000000E+00  1.
      -13    1    4    4    0    0 -8.32325315206E-01 -4.56721436673E+00  1.79275480403E+01  1.85191888395E+01  1.05660000029E-01 0.00000000000E+00  1.
        5    1    5    5  804    0 -3.19925260601E+01  9.51096035893E+00  2.35174520751E+01  4.11049041205E+01  4.75000000000E+00 0.00000000000E+00  1.
       -5    1    5    5    0  804  3.23348148968E+01  8.59489093485E+00  1.57885924809E+02  1.61461884534E+02  4.75000000000E+00 0.00000000000E+00  1.
</event>
<event>
 9   0   1.0000000E+00   6.2500110E+01   7.8125000E-03   1.3828934E-01
       21   -1    0    0  501  502  0.00000000000E+00  0.00000000000E+00  8.47225377364E+00  8.47225377364E+00  0.00000000000E+00 0.00000000000E+00  1.
       21   -1    0    0  502  501  0.00000000000E+00  0.00000000000E+00 -4.61065485216E+02  4.61065485216E+02  0.00000000000E+00 0.00000000000E+00  1.
       25    2    1    2    0    0  1.77635683940E-15  1.42108547152E-14 -4.52593231442E+02  4.69537738989E+02  1.25000220752E+02 0.00000000000E+00  1.
       23    2    3    3    0    0  6.03385425962E+00 -2.60272011518E+01 -1.24081730022E+02  1.27364657682E+02  1.05668209097E+01 0.00000000000E+00  1.
       23    2    3    3    0    0 -6.03385425962E+00  2.60272011518E+01 -3.28511501420E+02  3.42173081308E+02  9.19172911327E+01 0.00000000000E+00  1.
        4    1    4    4  803    0 -2.37771261843E+00 -8.79360345811E+00 -4.94352465766E+01  5.02836972404E+01  1.27500000000E+00 0.00000000000E+00  1.
       -4    1    4    4    0  803  8.41156687806E+00 -1.72335976937E+01 -7.46464834453E+01  7.70809604414E+01  1.27500000000E+00 0.00000000000E+00  1.
        5    1    5    5  804    0  2.30287189933E+00  5.13224040895E+01 -1.04587879176E+02  1.16621093079E+02  4.75000000000E+00 0.00000000000E+00  1.
       -5    1    5    5    0  804 -8.33672615895E+00 -2.52952029377E+01 -2.23923622244E+02  2.25551988228E+02  4.75000000000E+00 0.00000000000E+00  1.
</event>
<event>
 9   0   1.0000000E+00   6.2509294E+01   7.8125000E-03   1.3828592E-01
       21   -1    0    0  501  502  0.00000000000E+00  0.00000000000E+00  3.45351844091E+01  3.45351844091E+01  0.00000000000E+00 0.00000000000E+00  1.
       21   -1    0    0  502  501  0.00000000000E+00  0.00000000000E+00 -1.13142925251E+02  1.13142925251E+02  0.00000000000E+00 0.00000000000E+00  1.
       25    2    1    2    0    0 -1.77635683940E-15  5.32907051820E-15 -7.86077408422E+01  1.47678109660E+02  1.25018587228E+02 0.00000000000E+00  1.
       23    2    3    3    0    0  7.08109792518E+00  8.93526301996E+00 -7.77541377360E+01  1.21480730029E+02  9.26384421296E+01 0.00000000000E+00  1.
       23    2    3    3    0    0 -7.08109792518E+00 -8.93526301996E+00 -8.53603106219E-01  2.61973796317E+01  2.35710243358E+01 0.00000000000E+00  1.
        3    1    4    4  804    0  4.28382338565E+01 -1.96321359021E+01 -3.35003203773E+01  5.78170087898E+01  0.00000000000E+00 0.00000000000E+00  1.
       -3    1    4    4    0  804 -3.57571359313E+01  2.85673989220E+01 -4.42538173587E+01  6.36637212390E+01  0.00000000000E+00 0.00000000000E+00  1.
        1    1    5    5  803    0 -1.32267426072E+01  2.10382360656E+00  9.87869448147E-01  1.34293961075E+01  0.00000000000E+00 0.00000000000E+00  1.
       -1    1    5    5    0  803  6.14564468204E+00 -1.10390866265E+01 -1.84147255437E+00  1.27679835242E+01  0.00000000000E+00 0.00000000000E+00  1.
</event>
<event>
 9   0   1.0000000E+00   6.2501057E+01   7.8125000E-03   1.3828899E-01
       21   -1    0    0  501  502  0.00000000000E+00  0.00000000000E+00  3.21232144225E+02  3.21232144225E+02  0.00000000000E+00 0.00000000000E+00  1.
       21   -1    0    0  502  501  0.00000000000E+00  0.00000000000E+00 -1.21606202792E+01  1.21606202792E+01  0.00000000000E+00 0.00000000000E+00  1.
       25    2    1    2    0    0  0.00000000000E+00 -3.55271367880E-15  3.09071523946E+02  3.33392764504E+02  1.25002114020E+02 0.00000000000E+00  1.
       23    2    3    3    0    0  2.47605193094E+01 -1.35964254255E+01  1.30934238148E+02  1.47055616474E+02  6.06929445337E+01 0.00000000000E+00  1.
       23    2    3    3    0    0 -2.47605193094E+01  1.35964254255E+01  1.78137285797E+02  1.86337148030E+02  4.68048506460E+01 0.00000000000E+00  1.
        2    1    4    4  803    0  2.66631292925E+01 -2.66430137179E+01  3.92124959751E+01  5.43911066649E+01  1.06624029994E-06 0.00000000000E+00  1.
       -2    1    4    4    0  803 -1.90260998306E+00  1.30465882924E+01  9.17217421732E+01  9.26645099088E+01  1.34869915235E-06 0.00000000000E+00  1.
       16    1    5    5    0    0 -2.48211211959E+01  2.92665521206E+01  1.38401793926E+02  1.43623381426E+02  0.00000000000E+00 0.00000000000E+00  1.
      -16    1    5    5    0    0  6.06018864444E-02 -1.56701266951E+01  3.97354918716E+01  4.27137667041E+01  2.65491693632E-06 0.00000000000E+00  1.
</event>
<event>
 9   0   1.0000000E+00   6.2498889E+01   7.8125000E-03   1.3828980E-01
       21   -1    0    0  501  502  0.00000000000E+00  0.00000000000E+00  2.32632579574E+01  2.32632579574E+01  0.00000000000E+00 0.00000000000E+00  1.
       21   -1    0    0  502  501  0.00000000000E+00  0.00000000000E+00 -1.67909029760E+02  1.67909029760E+02  0.00000000000E+00 0.00000000000E+00  1.
       25    2    1    2    0    0  0.00000000000E+00  0.00000000000E+00 -1.44645771802E+02  1.91172287717E+02  1.24997777143E+02 0.00000000000E+00  1.
       23    2    3    3    0    0 -1.56110602107E+01 -1.76368189205E+01 -1.18778438909E+02  1.51035465897E+02  9.02697724969E+01 0.00000000000E+00  1.
       23    2    3    3    0    0  1.56110602107E+01  1.76368189205E+01 -2.58673328933E+01  4.01368218197E+01  1.96744243179E+01 0.00000000000E+00  1.
       13    1    4    4    0    0  1.25608423105E+01 -2.43136996939E+01 -1.18975383968E+02  1.22082283345E+02  1.05659999969E-01 0.00000000000E+00  1.
      -13    1    4    4    0    0 -2.81719025211E+01  6.67688077341E+00  1.96945058996E-01  2.89531825524E+01  1.05659999983E-01 0.00000000000E+00  1.
        1    1    5    5  804    0  5.83592882410E+00  6.58137387920E+00 -2.36260303445E+01  2.52103521835E+01  0.00000000000E+00 0.00000000000E+00  1.
       -1    1    5    5    0  804  9.77513138659E+00  1.10554450413E+01 -2.24130254877E+00  1.49264696362E+01  0.00000000000E+00 0.00000000000E+00  1.
</event>
<event>
 9   0   1.0000000E+00   6.2504450E+01   7.8125000E-03   1.3828772E-01
       21   -1    0    0  501  502  0.00000000000E+00  0.00000000000E+00  1.11807795282E+01  1.11807795282E+01  0.00000000000E+00 0.00000000000E+00  1.
       21   -1    0    0  502  501  0.00000000000E+00  0.00000000000E+00 -3.49421630223E+02  3.49421630223E+02  0.00000000000E+00 0.00000000000E+00  1.
       25    2    1    2    0    0  0.00000000000E+00  0.00000000000E+00 -3.38240850695E+02  3.60602409751E+02  1.25008899042E+02 0.00000000000E+00  1.
       23    2    3    3    0    0 -1.74713557432E+01 -1.02467788636E+01 -2.19115779384E+01  3.07934194977E+01  7.60741007339E+00 0.00000000000E+00  1.
       23    2    3    3    0    0  1.74713557432E+01  1.02467788636E+01 -3.16329272756E+02  3.29808990254E+02  9.11016822068E+01 0.00000000000E+00  1.
       15    1    4    4    0    0 -1.58109955944E+01 -9.88355482408E+00 -2.10766734930E+01  2.81967271402E+01  1.77680000000E+00 0.00000000000E+00  1.
      -15    1    4    4    0    0 -1.66036014877E+00 -3.63224039517E-01 -8.34904445393E-01  2.59669235749E+00  1.77680000000E+00 0.00000000000E+00  1.
        3    1    5    5  804    0  6.43450441760E+00 -9.48654529147E+00 -3.03689402300E+02  3.03905660557E+02  5.39479660939E-06 0.00000000000E+00  1.
       -3    1    5    5    0  804  1.10368513256E+01  1.97333241551E+01 -1.26398704568E+01  2.59033298967E+01  6.36849898777E-06 0.00000000000E+00  1.
</event>
<event>
 9   0   1.0000000E+00   6.2500721E+01   7.8125000E-03   1.3828912E-01
       21   -1    0    0  501  502  0.00000000000E+00  0.00000000000E+00  2.02959917928E+01  2.02959917928E+01  0.00000000000E+00 0.00000000000E+00  1.
       21   -1    0    0  502  501  0.00000000000E+00  0.00000000000E+00 -1.92468551691E+02  1.92468551691E+02  0.00000000000E+00 0.00000000000E+00  1.
       25    2    1    2    0    0  1.77635683940E-15  0.00000000000E+00 -1.72172559898E+02  2.12764543484E+02  1.25001442320E+02 0.00000000000E+00  1.
       23    2    3    3    0    0 -1.05916993014E+01  1.31226186223E+01 -1.69993810889E+02  1.93273267684E+02  9.04006252578E+01 0.00000000000E+00  1.
       23    2    3    3    0    0  1.05916993014E+01 -1.31226186223E+01 -2.17874900900E+00  1.94912757998E+01  9.52762674874E+00 0.00000000000E+00  1.
       12    1    4    4    0    0 -2.77160348386E+01  2.06331318354E+01 -1.58767604753E+01  3.80259943631E+01  0.00000000000E+00 0.00000000000E+00  1.
      -12    1    4    4    0    0  1.71243355373E+01 -7.51051321303E+00 -1.54117050414E+02  1.55247273421E+02  1.90734863281E-06 0.00000000000E+00  1.
        2    1    5    5  804    0  7.78617908603E-01  1.09548552568E+00 -1.75478237012E+00  2.21033843407E+00  0.00000000000E+00 0.00000000000E+00  1.
       -2    1    5    5    0  804  9.81308139275E+00 -1.42181041480E+01 -4.23966638878E-01  1.72809374658E+01  0.00000000000E+00 0.00000000000E+00  1.
</event>
<event>
 9   0   1.0000000E+00   6.2501456E+01   7.8125000E-03   1.3828884E-01
       21   -1    0    0  501  502  0.00000000000E+00  0.00000000000E+00  1.53433259310E+02  1.53433259310E+02  0.00000000000E+00 0.00000000000E+00  1.
       21   -1    0    0  502  501  0.00000000000E+00  0.00000000000E+00 -2.54601385692E+01  2.54601385692E+01  0.00000000000E+00 0.00000000000E+00  1.
       25    2    1    2    0    0  7.10542735760E-15  7.10542735760E-15  1.27973120740E+02  1.78893397879E+02  1.25002912656E+02 0.00000000000E+00  1.
       23    2    3    3    0    0 -2.88894921055E+01  2.15162657166E+01  1.02302713968E+02  1.34617181586E+02  7.97394999263E+01 0.00000000000E+00  1.
       23    2    3    3    0    0  2.88894921055E+01 -2.15162657166E+01  2.56704067727E+01  4.42762162928E+01  1.96496840407E+00 0.00000000000E+00  1.
       12    1    5    5    0    0  2.52134482760E+01 -1.94599969073E+01  2.22793458833E+01  3.88687369792E+01  0.00000000000E+00 0.00000000000E+00  1.
      -12    1    4    4    0    0 -4.22792993849E+01 -1.56617020111E+01  3.71627180742E+01  5.84285520334E+01  0.00000000000E+00 0.00000000000E+00  1.
       12    1    4    4    0    0  1.33898072794E+01  3.71779677277E+01  6.51399958935E+01  7.61886296527E+01  0.00000000000E+00 0.00000000000E+00  1.
      -12    1    5    5    0    0  3.67604382952E+00 -2.05626880931E+00  3.39106088943E+00  5.40747941360E+00  0.00000000000E+00 0.00000000000E+00  1.
</event>
<event>
 9   0   1.0000000E+00   6.2500373E+01   7.8125000E-03   1.3828925E-01
       21   -1    0    0  501  502  0.00000000000E+00  0.00000000000E+00  4.25499601082E+01  4.25499601082E+01  0.00000000000E+00 0.00000000000E+00  1.
       21   -1    0    0  502  501  0.00000000000E+00  0.00000000000E+00 -9.18049420013E+01  9.18049420013E+01  0.00000000000E+00 0.00000000000E+00  1.
       25    2    1    2    0    0  0.00000000000E+00  7.10542735760E-15 -4.92549818931E+01  1.34354902110E+02  1.25000745916E+02 0.00000000000E+00  1.
       23    2    3    3    0    0 -9.33795303756E+00 -1.55414546784E+00 -1.47391259623E+01  3.69013653327E+01  3.24785497554E+01 0.00000000000E+00  1.
       23    2    3    3    0    0  9.33795303756E+00  1.55414546784E+00 -3.45158559308E+01  9.74535367769E+01  9.06434486580E+01 0.00000000000E+00  1.
       16    1    5    5    0    0 -1.66790861582E+01 -2.74107257362E+01 -4.66973339468E+01  5.66584574286E+01  0.00000000000E+00 0.00000000000E+00  1.
      -16    1    4    4    0    0 -1.92064311129E+01  2.78195338768E+00 -9.92010999340E-01  1.94321987065E+01  1.17189840919E-06 0.00000000000E+00  1.
       16    1    4    4    0    0  9.86847807534E+00 -4.33609885552E+00 -1.37471149630E+01  1.74691666262E+01  0.00000000000E+00 0.00000000000E+00  1.
      -16    1    5    5    0    0  2.60170391957E+01  2.89648712040E+01  1.21814780160E+01  4.07950793483E+01  0.00000000000E+00 0.00000000000E+00  1.
</event>
<event>
 9   0   1.0000000E+00   6.2494526E+01   7.8125000E-03   1.3829143E-01
       21   -1    0    0  501  502  0.00000000000E+00  0.00000000000E+00  1.23661341027E+01  1.23661341027E+01  0.00000000000E+00 0.00000000000E+00  1.
       21   -1    0    0  502  501  0.00000000000E+00  0.00000000000E+00 -3.15827547189E+02  3.15827547189E+02  0.00000000000E+00 0.00000000000E+00  1.
       25    2    1    2    0    0  3.55271367880E-15  0.00000000000E+00 -3.03461413087E+02  3.28193681292E+02  1.24989052351E+02 0.00000000000E+00  1.
       23    2    3    3    0    0 -1.42881935778E+01  5.41414806895E+00 -2.57835785668E+02  2.74011709850E+02  9.14858420131E+01 0.00000000000E+00  1.
       23    2    3    3    0    0  1.42881935778E+01 -5.41414806895E+00 -4.56256274182E+01  5.41819714417E+01  2.49102925912E+01 0.00000000000E+00  1.
        4    1    5    5  804    0 -1.75630528811E+00 -2.54483509438E+00 -3.38960273095E+01  3.40606383717E+01  1.27500000000E+00 0.00000000000E+00  1.
       -4    1    4    4    0  803 -3.20169642972E+00 -3.85801365197E+01 -1.78097005963E+02  1.82260382288E+02  1.27500000000E+00 0.00000000000E+00  1.
        4    1    4    4  803    0 -1.10864971481E+01  4.39942845887E+01 -7.97387797054E+01  9.17513275620E+01  1.27500000000E+00 0.00000000000E+00  1.
       -4    1    5    5    0  804  1.60444988659E+01 -2.86931297457E+00 -1.17296001087E+01  2.01213330700E+01  1.27500000000E+00 0.00000000000E+00  1.
</event>
<event>
 9   0   1.0000000E+00   6.2501201E+01   7.8125000E-03   1.3828894E-01
       21   -1    0    0  501  502  0.00000000000E+00  0.00000000000E+00  5.60327103538E+01  5.60327103538E+01  0.00000000000E+00 0.00000000000E+00  1.
       21   -1    0    0  502  501  0.00000000000E+00  0.00000000000E+00 -6.97164237802E+01  6.97164237802E+01  0.00000000000E+00 0.00000000000E+00  1.
       25    2    1    2    0    0  7.10542735760E-15 -7.10542735760E-15 -1.36837134264E+01  1.25749134134E+02  1.25002402866E+02 0.00000000000E+00  1.
       23    2    3    3    0    0  1.75766918431E+01 -3.48878113621E+01 -7.46391564666E+00  4.00870936011E+01  5.01652856245E+00 0.00000000000E+00  1.
       23    2    3    3    0    0 -1.75766918431E+01  3.48878113621E+01 -6.21979777970E+00  8.56620405330E+01  7.59815755698E+01 0.00000000000E+00  1.
        2    1    4    4  803    0  7.18651795944E+00 -1.50918712603E+01 -5.69967119488E+00  1.76606023051E+01  0.00000000000E+00 0.00000000000E+00  1.
       -2    1    4    4    0  803  1.03901738837E+01 -1.97959401018E+01 -1.76424445178E+00  2.24264913960E+01  0.00000000000E+00 0.00000000000E+00  1.
        4    1    5    5  804    0  2.33119897930E+01  3.45317335348E+00 -2.14267301890E+01  3.18763810040E+01  1.27500000000E+00 0.00000000000E+00  1.
       -4    1    5    5    0  804 -4.08886816361E+01  3.14346380086E+01  1.52069324093E+01  5.37856595290E+01  1.27500000000E+00 0.00000000000E+00  1.
</event>
<event>
 9   0   1.0000000E+00   6.2499841E+01   7.8125000E-03   1.3828945E-01
       21   -1    0    0  501  502  0.00000000000E+00  0.00000000000E+00  8.02846761738E+02  8.02846761738E+02  0.00000000000E+00 0.00000000000E+00  1.
       21   -1    0    0  502  501  0.00000000000E+00  0.00000000000E+00 -4.86547411130E+00  4.86547411130E+00  0.00000000000E+00 0.00000000000E+00  1.
       25    2    1    2    0    0  1.42108547152E-14  7.10542735760E-15  7.97981287627E+02  8.07712235850E+02  1.24999682153E+02 0.00000000000E+00  1.
       23    2    3    3    0    0  2.17324842553E+01  3.18107694773E+01  4.28355381273E+02  4.33807556364E+02  5.67136435627E+01 0.00000000000E+00  1.
       23    2    3    3    0    0 -2.17324842553E+01 -3.18107694773E+01  3.69625906354E+02  3.73904679485E+02  4.11967567498E+01 0.00000000000E+00  1.
        5    1    4    4  803    0 -1.40493594256E+01  8.47143934586E-01  4.22692105805E+01  4.48034687967E+01  4.75000000000E+00 0.00000000000E+00  1.
       -5    1    4    4    0  803  3.57818436809E+01  3.09636255428E+01  3.86086170693E+02  3.89004087568E+02  4.75000000000E+00 0.00000000000E+00  1.
       16    1    5    5    0    0 -3.17940561627E+01 -1.24919310926E+01  2.01744781343E+02  2.04616390326E+02  2.69739830470E-06 0.00000000000E+00  1.
      -16    1    5    5    0    0  1.00615719074E+01 -1.93188383848E+01  1.67881125010E+02  1.69288289360E+02  3.30362473978E-06 0.00000000000E+00  1.
</event>
<event>
 9   0   1.0000000E+00   6.2501017E+01   7.8125000E-03   1.3828901E-01
       21   -1    0    0  501  502  0.00000000000E+00  0.00000000000E+00  1.47833746015E+02  1.47833746015E+02  0.00000000000E+00 0.00000000000E+00  1.
       21   -1    0    0  502  501  0.00000000000E+00  0.00000000000E+00 -2.64241232828E+01  2.64241232828E+01  0.00000000000E+00 0.00000000000E+00  1.
       25    2    1    2    0    0  0.00000000000E+00  7.10542735760E-15  1.21409622732E+02  1.74257869298E+02  1.25002034064E+02 0.00000000000E+00  1.
       23    2    3    3    0    0  1.94119658293E+01 -5.19561737343E+01  9.98420845174E+01  1.14352910785E+02  5.64605682876E+00 0.00000000000E+00  1.
       23    2    3    3    0    0 -1.94119658293E+01  5.19561737343E+01  2.15675382146E+01  5.99049585129E+01  6.86854739483E+00 0.00000000000E+00  1.
       13    1    4    4    0    0  1.55375250499E+01 -3.48539480214E+01  6.60263438795E+01  7.62607476195E+01  1.05659999995E-01 0.00000000000E+00  1.
      -13    1    4    4    0    0  3.87444077941E+00 -1.71022257129E+01  3.38157406379E+01  3.80921631653E+01  1.05660000001E-01 0.00000000000E+00  1.
        3    1    5    5  803    0 -6.76201737833E+00  2.66468072950E+01  1.24356907995E+01  3.01732269355E+01  0.00000000000E+00 0.00000000000E+00  1.
       -3    1    5    5    0  803 -1.26499484510E+01  2.53093664394E+01  9.13184741519E+00  2.97317316774E+01  0.00000000000E+00 0.00000000000E+00  1.
</event>
</LesHouchesEvents>
