<LesHouchesEvents version="1.0">
<!--
Output from the JHUGenerator v7.4.1 described in arXiv:1001.3396 [hep-ph], arXiv:1208.4018 [hep-ph], arXiv:1309.4819 [hep-ph], arXiv:1606.03107 [hep-ph]
   
   Command line: ./JHUGen Seed=765543533 PDFSet=3 Process=0 VegasNc0=100000 VegasNc2=100 DataFile=compare_to_reference/ggH_WW DecayMode1=11 DecayMode2=11 ghg2=0.383432074687728,0.918260989345657 ghg3=6294.49296087723,2253.12941717723 ghg4=0.335495485382528,0.17285803562226 ghz1=0.154934976270359,0.453918144016304 ghz2=0.469297059144414,0.745302300947002 ghz3=3947.40921062637,3597.4885961919 ghz4=0.177791270766536,0.920170534486048 ghzgs2=0.0240331049939919,0.232175381101053 ghzgs3=0.331962910170583,0.0450183240308457 ghzgs4=0.808286540247172,0.133184346613754 ghgsgs2=0.530394804029869,0.211218112389125 ghgsgs3=0.914978695198138,0.055650585081425 ghgsgs4=0.694524307167701,0.511424456076726 ghz1_prime=0.143354267833606,0.0910761280837012 ghz1_prime2=7416.7007267243,4861.35525489789 ghz1_prime3=4431.44656075298,4436.48625894176 ghz1_prime4=2441.69123517064,6946.16318931911 ghz1_prime5=78314042.889773,69465359.939181 ghz1_prime6=51233058.8130761,29537873.5850789 ghz1_prime7=47832192.9001564,59559649.963329
   
   Input Parameter:
    Collider: P-P, sqrt(s)=13000.00
    Resonance: spin=0, mass= 125.00 width=   0.00407
    DecayMode1:11  DecayMode2:11
    W boson: mass=80.399, width=2.0850
    Random seed:   765543533
    To reproduce results using this seed, JHUGen should be compiled with the same compiler:
      GNU Fortran (GCC) 6.3.0
    
    OffXVV: TTT
    WidthScheme:   2
    PChannel: 0
    PDFSet:   3
    Unweighted: T
    Interference: F
    
    Spin-0-VV couplings: 
      generate_as=F
      kappa_top=  0.10000000E+01  0.00000000E+00i
      kappa_bot=  0.10000000E+01  0.00000000E+00i
      ghg2=  0.38343207E+00  0.91826099E+00i
      ghg3=  0.62944930E+04  0.22531294E+04i
      ghg4=  0.33549549E+00  0.17285804E+00i
      ghz1=  0.15493498E+00  0.45391814E+00i
      ghz2=  0.46929706E+00  0.74530230E+00i
      ghz3=  0.39474092E+04  0.35974886E+04i
      ghz4=  0.17779127E+00  0.92017053E+00i
      ghz1_prime=   0.14335427E+00  0.91076128E-01i,    Lambda_z1=  1.0000E+04
      ghz1_prime2=  0.74167007E+04  0.48613553E+04i,    Lambda_z1=  1.0000E+04
      ghz1_prime3=  0.44314466E+04  0.44364863E+04i,    Lambda_z1=  1.0000E+04
      ghz1_prime4=  0.24416912E+04  0.69461632E+04i,    Lambda_z1=  1.0000E+04
      ghz1_prime5=  0.78314043E+08  0.69465360E+08i,    Lambda_z1=  1.0000E+04
      ghz1_prime6=  0.51233059E+08  0.29537874E+08i,    Lambda_z1=  1.0000E+04
      ghz1_prime7=  0.47832193E+08  0.59559650E+08i,    Lambda_z1=  1.0000E+04
      ghz2_prime=   0.57465793E+00  0.41992191E+00i,    Lambda_z2=  1.0000E+04
      ghz2_prime2=  0.43854587E+04  0.61761246E+04i,    Lambda_z2=  1.0000E+04
      ghz2_prime3=  0.45921696E+04  0.75499391E+04i,    Lambda_z2=  1.0000E+04
      ghz2_prime4=  0.84715906E+04  0.71997238E+04i,    Lambda_z2=  1.0000E+04
      ghz2_prime5=  0.19558280E+08  0.94843889E+08i,    Lambda_z2=  1.0000E+04
      ghz2_prime6=  0.23209661E+08  0.67617823E+08i,    Lambda_z2=  1.0000E+04
      ghz2_prime7=  0.70059904E+07  0.53660191E+08i,    Lambda_z2=  1.0000E+04
      ghz3_prime=   0.40457065E+04  0.19693161E+04i,    Lambda_z3=  1.0000E+04
      ghz3_prime2=  0.33402456E+08  0.37615919E+07i,    Lambda_z3=  1.0000E+04
      ghz3_prime3=  0.44855080E+08  0.12184926E+08i,    Lambda_z3=  1.0000E+04
      ghz3_prime4=  0.27878602E+08  0.78237524E+08i,    Lambda_z3=  1.0000E+04
      ghz3_prime5=  0.93246434E+12  0.63158085E+12i,    Lambda_z3=  1.0000E+04
      ghz3_prime6=  0.35811562E+12  0.41077746E+12i,    Lambda_z3=  1.0000E+04
      ghz3_prime7=  0.62298148E+12  0.61827857E+12i,    Lambda_z3=  1.0000E+04
      ghz4_prime=   0.41653395E+00  0.33115593E+00i,    Lambda_z4=  1.0000E+04
      ghz4_prime2=  0.75883756E+04  0.39234327E+04i,    Lambda_z4=  1.0000E+04
      ghz4_prime3=  0.89560755E+04  0.93020315E+04i,    Lambda_z4=  1.0000E+04
      ghz4_prime4=  0.32034411E+04  0.28637675E+04i,    Lambda_z4=  1.0000E+04
      ghz4_prime5=  0.49012574E+08  0.74595801E+08i,    Lambda_z4=  1.0000E+04
      ghz4_prime6=  0.73323810E+08  0.53968832E+08i,    Lambda_z4=  1.0000E+04
      ghz4_prime7=  0.68563876E+08  0.43025214E+08i,    Lambda_z4=  1.0000E+04
      ghzgs2=  0.24033105E-01  0.23217538E+00i
      ghzgs3=  0.33196291E+00  0.45018324E-01i
      ghzgs4=  0.80828654E+00  0.13318435E+00i
      ghzgs1_prime2=  0.56689643E+04  0.70176759E+04i,  Lambda_zgs1=  1.0000E+04
      ghgsgs2=  0.53039480E+00  0.21121811E+00i
      ghgsgs3=  0.91497870E+00  0.55650585E-01i
      ghgsgs4=  0.69452431E+00  0.51142446E+00i
      Lambda=  1000.0
      Lambda_Q=  10000.0
      Lambda_z11=   1.3888E+02
      Lambda_z21=   1.5452E+02
      Lambda_z31=   1.1998E+02
      Lambda_z41=   1.8136E+02
      Lambda_z12=   1.3667E+02
      Lambda_z22=   1.6659E+02
      Lambda_z32=   1.3884E+02
      Lambda_z42=   4.9064E+01
      Lambda_z10=   9.6973E+00
      Lambda_z20=   1.9326E+02
      Lambda_z30=   8.9204E+01
      Lambda_z40=   1.6167E+02
    
    LHE output: compare_to_reference/ggH_WW.lhe
    Histogram output: compare_to_reference/ggH_WW.dat
    Log file: compare_to_reference/ggH_WW.log
    
-->
<init>
2212 2212   6500.0000000000000000    6500.0000000000000000 0 0  263000  263000  3  1
 1.7526031E+10  5.7803650E+07  1.0000000E+00   0
</init>
<event>
 9   0   1.0000000E+00   6.2491664E+01   7.8125000E-03   1.3829250E-01
       21   -1    0    0  501  502  0.00000000000E+00  0.00000000000E+00  2.15735005327E+01  2.15735005327E+01  0.00000000000E+00  0.00000000000E+00  1.
       21   -1    0    0  502  501  0.00000000000E+00  0.00000000000E+00 -1.81018749786E+02  1.81018749786E+02  0.00000000000E+00  0.00000000000E+00  1.
       25    2    1    2    0    0 -1.77635683940E-15  1.06581410364E-14 -1.59445249253E+02  2.02592250319E+02  1.24983328407E+02  0.00000000000E+00  1.
       24    2    3    3    0    0  5.68443850992E+00 -9.76305672281E+00 -9.64988714985E+01  1.10180888958E+02  5.19631212816E+01  0.00000000000E+00  1.
      -24    2    3    3    0    0 -5.68443850992E+00  9.76305672281E+00 -6.29463777549E+01  9.24113613609E+01  6.67081937873E+01  0.00000000000E+00  1.
        4    1    4    4  803    0 -1.59579728926E+00 -1.64660842640E+01 -3.88662390513E+00  1.70414192589E+01  1.27500000000E+00  0.00000000000E+00  1.
       -3    1    4    4    0  803  7.28023579918E+00  6.70302754122E+00 -9.26122475934E+01  9.31394696990E+01  1.34869915235E-06  0.00000000000E+00  1.
        1    1    5    5  804    0 -5.40636888828E-01  3.79434201922E+01 -4.38196648671E+01  5.79668737573E+01  0.00000000000E+00  0.00000000000E+00  1.
       -2    1    5    5    0  804 -5.14380162109E+00 -2.81803634694E+01 -1.91267128879E+01  3.44444876037E+01  0.00000000000E+00  0.00000000000E+00  1.
</event>
<event>
 9   0   1.0000000E+00   6.2493306E+01   7.8125000E-03   1.3829189E-01
       21   -1    0    0  501  502  0.00000000000E+00  0.00000000000E+00  1.08795920690E+02  1.08795920690E+02  0.00000000000E+00  0.00000000000E+00  1.
       21   -1    0    0  502  501  0.00000000000E+00  0.00000000000E+00 -3.58966885469E+01  3.58966885469E+01  0.00000000000E+00  0.00000000000E+00  1.
       25    2    1    2    0    0  0.00000000000E+00 -3.55271367880E-15  7.28992321427E+01  1.44692609237E+02  1.24986611766E+02  0.00000000000E+00  1.
      -24    2    3    3    0    0 -3.08658698572E+00 -2.08396309449E+01  5.56004103279E+01  1.00118635632E+02  8.05513397475E+01  0.00000000000E+00  1.
       24    2    3    3    0    0  3.08658698572E+00  2.08396309449E+01  1.72988218149E+01  4.45739736042E+01  3.52671610644E+01  0.00000000000E+00  1.
        3    1    4    4  804    0  1.58013933207E-01  2.40894908561E+01 -4.99577427793E+00  2.46025670138E+01  1.67318211169E-06  0.00000000000E+00  1.
       -4    1    4    4    0  804 -3.24460091892E+00 -4.49291218010E+01  6.05961846058E+01  7.55160687186E+01  1.27500000000E+00  0.00000000000E+00  1.
       16    1    5    5    0    0  5.69825178377E+00 -7.66142662295E+00  1.21286427044E+01  1.54360457446E+01  0.00000000000E+00  0.00000000000E+00  1.
      -15    1    5    5    0    0 -2.61166479805E+00  2.85010575678E+01  5.17017911044E+00  2.91379279596E+01  1.77680000000E+00  0.00000000000E+00  1.
</event>
<event>
 9   0   1.0000000E+00   6.2501552E+01   7.8125000E-03   1.3828881E-01
       21   -1    0    0  501  502  0.00000000000E+00  0.00000000000E+00  1.51202278073E+02  1.51202278073E+02  0.00000000000E+00  0.00000000000E+00  1.
       21   -1    0    0  502  501  0.00000000000E+00  0.00000000000E+00 -2.58358801990E+01  2.58358801990E+01  0.00000000000E+00  0.00000000000E+00  1.
       25    2    1    2    0    0 -1.77635683940E-15 -8.88178419700E-16  1.25366397874E+02  1.77038158272E+02  1.25003103035E+02  0.00000000000E+00  1.
      -24    2    3    3    0    0  3.22057681455E+00 -2.17007410584E+00  1.64705178531E+01  4.11281799263E+01  3.74855690774E+01  0.00000000000E+00  1.
       24    2    3    3    0    0 -3.22057681455E+00  2.17007410584E+00  1.08895880021E+02  1.35909978346E+02  8.12288630461E+01  0.00000000000E+00  1.
        1    1    4    4  804    0 -1.43584982969E+01 -1.04720112737E+01  1.11223625027E+01  2.09651243998E+01  0.00000000000E+00  0.00000000000E+00  1.
       -2    1    4    4    0  804  1.75790751114E+01  8.30193716787E+00  5.34815535041E+00  2.01630555265E+01  0.00000000000E+00  0.00000000000E+00  1.
        2    1    5    5  803    0  1.22007614162E+01  9.04307222442E+00  1.16433835753E+02  1.17420074374E+02  1.90734863281E-06  0.00000000000E+00  1.
       -1    1    5    5    0  803 -1.54213382308E+01 -6.87299811858E+00 -7.53795573191E+00  1.84899041717E+01  1.58821494513E-06  0.00000000000E+00  1.
</event>
<event>
 9   0   1.0000000E+00   6.2503268E+01   7.8125000E-03   1.3828817E-01
       21   -1    0    0  501  502  0.00000000000E+00  0.00000000000E+00  1.17520047421E+03  1.17520047421E+03  0.00000000000E+00  0.00000000000E+00  1.
       21   -1    0    0  502  501  0.00000000000E+00  0.00000000000E+00 -3.32424852960E+00  3.32424852960E+00  0.00000000000E+00  0.00000000000E+00  1.
       25    2    1    2    0    0 -5.32907051820E-15 -9.76996261670E-15  1.17187622568E+03  1.17852472274E+03  1.25006535003E+02  0.00000000000E+00  1.
       24    2    3    3    0    0 -8.90851681649E+00  3.17760294188E+00  2.59652257846E+02  2.62799708004E+02  3.94326348355E+01  0.00000000000E+00  1.
      -24    2    3    3    0    0  8.90851681649E+00 -3.17760294188E+00  9.12223967838E+02  9.15725014739E+02  7.94372474909E+01  0.00000000000E+00  1.
       16    1    4    4    0    0 -1.88238461661E+01 -7.48823045523E+00  2.11348097872E+02  2.12316813404E+02  5.39479660939E-06  0.00000000000E+00  1.
      -15    1    4    4    0    0  9.91532934966E+00  1.06658333971E+01  4.83041599742E+01  5.04828946003E+01  1.77680000000E+00  0.00000000000E+00  1.
        1    1    5    5  804    0  2.95980559450E+01  2.36865654055E+01  2.75134914465E+02  2.77734260598E+02  6.60724947956E-06  0.00000000000E+00  1.
       -2    1    5    5    0  804 -2.06895391285E+01 -2.68641683474E+01  6.37089053373E+02  6.37990754242E+02  0.00000000000E+00  0.00000000000E+00  1.
</event>
<event>
 9   0   1.0000000E+00   6.2500975E+01   7.8125000E-03   1.3828902E-01
       21   -1    0    0  501  502  0.00000000000E+00  0.00000000000E+00  5.50229741692E+01  5.50229741692E+01  0.00000000000E+00  0.00000000000E+00  1.
       21   -1    0    0  502  501  0.00000000000E+00  0.00000000000E+00 -7.09952877805E+01  7.09952877805E+01  0.00000000000E+00  0.00000000000E+00  1.
       25    2    1    2    0    0 -1.77635683940E-15 -7.10542735760E-15 -1.59723136113E+01  1.26018261950E+02  1.25001950156E+02  0.00000000000E+00  1.
       24    2    3    3    0    0 -7.74959912175E+00 -4.51100377685E+01 -3.57803320212E+01  6.68439857222E+01  3.30592570041E+01  0.00000000000E+00  1.
      -24    2    3    3    0    0  7.74959912175E+00  4.51100377685E+01  1.98080184099E+01  5.91742762275E+01  3.18475364778E+01  0.00000000000E+00  1.
        2    1    4    4  804    0 -6.88660028169E+00 -3.51708353597E+01 -7.17642430056E+00  3.65501572690E+01  0.00000000000E+00  0.00000000000E+00  1.
       -1    1    4    4    0  804 -8.62998840061E-01 -9.93920240876E+00 -2.86039077206E+01  3.02938285532E+01  0.00000000000E+00  0.00000000000E+00  1.
        3    1    5    5  803    0 -7.77334338708E+00  2.96537416216E+01  2.10651155706E+01  3.71955421196E+01  0.00000000000E+00  0.00000000000E+00  1.
       -4    1    5    5    0  803  1.55229425088E+01  1.54562961469E+01 -1.25709716067E+00  2.19787341079E+01  1.27500000000E+00  0.00000000000E+00  1.
</event>
<event>
 9   0   1.0000000E+00   6.2501192E+01   7.8125000E-03   1.3828894E-01
       21   -1    0    0  501  502  0.00000000000E+00  0.00000000000E+00  3.24707230868E+01  3.24707230868E+01  0.00000000000E+00  0.00000000000E+00  1.
       21   -1    0    0  502  501  0.00000000000E+00  0.00000000000E+00 -1.20305265451E+02  1.20305265451E+02  0.00000000000E+00  0.00000000000E+00  1.
       25    2    1    2    0    0 -1.77635683940E-15 -5.32907051820E-15 -8.78345423644E+01  1.52775988538E+02  1.25002383343E+02  0.00000000000E+00  1.
       24    2    3    3    0    0 -1.13911229479E+01 -1.17648699729E+01 -4.15239097134E+01  9.55595675134E+01  8.44939407175E+01  0.00000000000E+00  1.
      -24    2    3    3    0    0  1.13911229479E+01  1.17648699729E+01 -4.63106326510E+01  5.72164210246E+01  2.93406593456E+01  0.00000000000E+00  1.
        2    1    4    4  804    0 -2.47170793140E+01 -4.06216094436E+01 -6.05814010136E+00  4.79348540696E+01  1.28115327717E-06  0.00000000000E+00  1.
       -1    1    4    4    0  804  1.33259563661E+01  2.88567394707E+01 -3.54657696121E+01  4.76247136438E+01  1.16800772800E-06  0.00000000000E+00  1.
        1    1    5    5  803    0  1.80104210933E+01  1.68502396934E+01 -3.88686042681E+01  4.60334036613E+01  0.00000000000E+00  0.00000000000E+00  1.
       -2    1    5    5    0  803 -6.61929814545E+00 -5.08536972052E+00 -7.44202838288E+00  1.11830175633E+01  0.00000000000E+00  0.00000000000E+00  1.
</event>
<event>
 9   0   1.0000000E+00   6.2498177E+01   7.8125000E-03   1.3829007E-01
       21   -1    0    0  501  502  0.00000000000E+00  0.00000000000E+00  1.54720500872E+01  1.54720500872E+01  0.00000000000E+00  0.00000000000E+00  1.
       21   -1    0    0  502  501  0.00000000000E+00  0.00000000000E+00 -2.52456659438E+02  2.52456659438E+02  0.00000000000E+00  0.00000000000E+00  1.
       25    2    1    2    0    0 -9.76996261670E-15  3.55271367880E-15 -2.36984609350E+02  2.67928709525E+02  1.24996353221E+02  0.00000000000E+00  1.
      -24    2    3    3    0    0  7.38320795970E+00 -1.35331806433E+01 -1.32718436316E+02  1.35768740259E+02  2.41103453988E+01  0.00000000000E+00  1.
       24    2    3    3    0    0 -7.38320795970E+00  1.35331806433E+01 -1.04266173034E+02  1.32159969266E+02  7.97318248818E+01  0.00000000000E+00  1.
       13    1    4    4    0    0  1.27942320582E+01 -9.50770668436E+00 -1.22452588227E+02  1.23485774030E+02  1.05660000012E-01  0.00000000000E+00  1.
      -14    1    4    4    0    0 -5.41102409848E+00 -4.02547395889E+00 -1.02658480893E+01  1.22829662289E+01  0.00000000000E+00  0.00000000000E+00  1.
        2    1    5    5  803    0 -4.14550018419E+01 -2.24154256304E-02 -3.70819550897E+01  5.56200421122E+01  0.00000000000E+00  0.00000000000E+00  1.
       -1    1    5    5    0  803  3.40717938822E+01  1.35555960689E+01 -6.71842179448E+01  7.65399272536E+01  0.00000000000E+00  0.00000000000E+00  1.
</event>
<event>
 9   0   1.0000000E+00   6.2499760E+01   7.8125000E-03   1.3828948E-01
       21   -1    0    0  501  502  0.00000000000E+00  0.00000000000E+00  2.41474509989E+01  2.41474509989E+01  0.00000000000E+00  0.00000000000E+00  1.
       21   -1    0    0  502  501  0.00000000000E+00  0.00000000000E+00 -1.61765316735E+02  1.61765316735E+02  0.00000000000E+00  0.00000000000E+00  1.
       25    2    1    2    0    0 -3.55271367880E-15  0.00000000000E+00 -1.37617865736E+02  1.85912767734E+02  1.24999520946E+02  0.00000000000E+00  1.
       24    2    3    3    0    0  1.71631249839E+01 -3.96945304755E+00 -5.15520076504E+01  6.61480219750E+01  3.75182875637E+01  0.00000000000E+00  1.
      -24    2    3    3    0    0 -1.71631249839E+01  3.96945304755E+00 -8.60658580853E+01  1.19764745758E+02  8.13998340412E+01  0.00000000000E+00  1.
       12    1    4    4    0    0 -2.95509784846E+00  1.26849337850E+01 -2.84087284109E+01  3.12521360006E+01  0.00000000000E+00  0.00000000000E+00  1.
      -11    1    4    4    0    0  2.01182228324E+01 -1.66543868326E+01 -2.31432792395E+01  3.48958860745E+01  5.10999487625E-04  0.00000000000E+00  1.
       15    1    5    5    0    0  1.70108288870E+01 -1.55768687204E+01  2.07968278807E+00  2.32269076136E+01  1.77680000000E+00  0.00000000000E+00  1.
      -16    1    5    5    0    0 -3.41739538709E+01  1.95463217679E+01 -8.81455408733E+01  9.65378381448E+01  0.00000000000E+00  0.00000000000E+00  1.
</event>
<event>
 9   0   1.0000000E+00   6.2477988E+01   7.8125000E-03   1.3829761E-01
       21   -1    0    0  501  502  0.00000000000E+00  0.00000000000E+00  1.39878961375E+02  1.39878961375E+02  0.00000000000E+00  0.00000000000E+00  1.
       21   -1    0    0  502  501  0.00000000000E+00  0.00000000000E+00 -2.79062619324E+01  2.79062619324E+01  0.00000000000E+00  0.00000000000E+00  1.
       25    2    1    2    0    0 -1.77635683940E-15  0.00000000000E+00  1.11972699442E+02  1.67785223307E+02  1.24955975207E+02  0.00000000000E+00  1.
      -24    2    3    3    0    0  7.61642127874E-01  1.04663704549E+01  5.63516263063E+01  7.07793179387E+01  4.15220549983E+01  0.00000000000E+00  1.
       24    2    3    3    0    0 -7.61642127874E-01 -1.04663704549E+01  5.56210731362E+01  9.70059053685E+01  7.87801808218E+01  0.00000000000E+00  1.
        3    1    4    4  803    0  2.06179286960E+01  9.51314798436E+00  2.65846808541E+01  3.49620397631E+01  1.01152436426E-06  0.00000000000E+00  1.
       -4    1    4    4    0  803 -1.98562865681E+01  9.53222470496E-01  2.97669454522E+01  3.58172781756E+01  1.27500000000E+00  0.00000000000E+00  1.
        2    1    5    5  804    0 -9.08998693065E+00  1.61552090879E+00  7.33857748838E+01  7.39642462647E+01  0.00000000000E+00  0.00000000000E+00  1.
       -1    1    5    5    0  804  8.32834480278E+00 -1.20818913637E+01 -1.77647017476E+01  2.30416592039E+01  1.11828226085E-06  0.00000000000E+00  1.
</event>
<event>
 9   0   1.0000000E+00   6.2499646E+01   7.8125000E-03   1.3828952E-01
       21   -1    0    0  501  502  0.00000000000E+00  0.00000000000E+00  1.06229107112E+02  1.06229107112E+02  0.00000000000E+00  0.00000000000E+00  1.
       21   -1    0    0  502  501  0.00000000000E+00  0.00000000000E+00 -3.67715203814E+01  3.67715203814E+01  0.00000000000E+00  0.00000000000E+00  1.
       25    2    1    2    0    0  0.00000000000E+00  0.00000000000E+00  6.94575867310E+01  1.43000627494E+02  1.24999292434E+02  0.00000000000E+00  1.
      -24    2    3    3    0    0  1.91975743997E+01 -4.25684686043E+00  7.95137400584E+00  4.04905403103E+01  3.44904609714E+01  0.00000000000E+00  1.
       24    2    3    3    0    0 -1.91975743997E+01  4.25684686043E+00  6.15062127252E+01  1.02510087183E+02  7.96155522655E+01  0.00000000000E+00  1.
        1    1    4    4  804    0  1.90595332771E+01 -1.49169564573E+01  1.42711801749E+01  2.80971169744E+01  0.00000000000E+00  0.00000000000E+00  1.
       -2    1    4    4    0  804  1.38041122538E-01  1.06601095969E+01 -6.31980616903E+00  1.23934234359E+01  0.00000000000E+00  0.00000000000E+00  1.
        2    1    5    5  803    0  1.69413317693E+00  2.02755519986E+01 -1.25556524082E+01  2.39084191917E+01  0.00000000000E+00  0.00000000000E+00  1.
       -3    1    5    5    0  803 -2.08917075766E+01 -1.60187051382E+01  7.40618651334E+01  7.86016681917E+01  1.34869915235E-06  0.00000000000E+00  1.
</event>
<event>
 9   0   1.0000000E+00   6.2504440E+01   7.8125000E-03   1.3828773E-01
       21   -1    0    0  501  502  0.00000000000E+00  0.00000000000E+00  6.04161649129E+01  6.04161649129E+01  0.00000000000E+00  0.00000000000E+00  1.
       21   -1    0    0  502  501  0.00000000000E+00  0.00000000000E+00 -6.46648949989E+01  6.46648949989E+01  0.00000000000E+00  0.00000000000E+00  1.
       25    2    1    2    0    0 -3.55271367880E-15  1.77635683940E-15 -4.24873008604E+00  1.25081059912E+02  1.25008879050E+02  0.00000000000E+00  1.
      -24    2    3    3    0    0  1.91006311343E+01  1.19270366961E+01  1.01464172184E+01  4.18010361938E+01  3.37237087289E+01  0.00000000000E+00  1.
       24    2    3    3    0    0 -1.91006311343E+01 -1.19270366961E+01 -1.43951473045E+01  8.32800237179E+01  7.88749248523E+01  0.00000000000E+00  1.
       11    1    4    4    0    0  1.94251603296E+01  2.26333038241E+01  6.98800140603E+00  3.06338939695E+01  5.11000210682E-04  0.00000000000E+00  1.
      -12    1    4    4    0    0 -3.24529195292E-01 -1.07062671280E+01  3.15841581238E+00  1.11671422243E+01  0.00000000000E+00  0.00000000000E+00  1.
        2    1    5    5  803    0 -4.03951377677E+01 -4.62695868101E+00  1.74798434432E+01  4.42574381173E+01  0.00000000000E+00  0.00000000000E+00  1.
       -1    1    5    5    0  803  2.12945066335E+01 -7.30007801509E+00 -3.18749907477E+01  3.90225857006E+01  0.00000000000E+00  0.00000000000E+00  1.
</event>
<event>
 9   0   1.0000000E+00   6.2498361E+01   7.8125000E-03   1.3829000E-01
       21   -1    0    0  501  502  0.00000000000E+00  0.00000000000E+00  1.75566178241E+00  1.75566178241E+00  0.00000000000E+00  0.00000000000E+00  1.
       21   -1    0    0  502  501  0.00000000000E+00  0.00000000000E+00 -2.22482782544E+03  2.22482782544E+03  0.00000000000E+00  0.00000000000E+00  1.
       25    2    1    2    0    0 -3.55271367880E-15  8.88178419700E-16 -2.22307216366E+03  2.22658348722E+03  1.24996722926E+02  0.00000000000E+00  1.
       24    2    3    3    0    0 -1.23758651572E+01  3.35585504616E+00 -1.41110220281E+03  1.41344434692E+03  8.03185610663E+01  0.00000000000E+00  1.
      -24    2    3    3    0    0  1.23758651572E+01 -3.35585504616E+00 -8.11969960846E+02  8.13139140305E+02  4.16607774544E+01  0.00000000000E+00  1.
       12    1    4    4    0    0  1.51623164610E+00  4.10939061714E+01 -7.13790203112E+02  7.14973749367E+02  7.62939453125E-06  0.00000000000E+00  1.
      -11    1    4    4    0    0 -1.38920968033E+01 -3.77380511253E+01 -6.97311999700E+02  6.98470597651E+02  5.10884675378E-04  0.00000000000E+00  1.
        1    1    5    5  804    0  1.16637541612E+01 -7.69001609007E+00 -8.03286956701E+02  8.03408435551E+02  1.07895932188E-05  0.00000000000E+00  1.
       -2    1    5    5    0  804  7.12110996046E-01  4.33416104391E+00 -8.68300414483E+00  9.73070485373E+00  4.31135685921E-06  0.00000000000E+00  1.
</event>
<event>
 9   0   1.0000000E+00   6.2490695E+01   7.8125000E-03   1.3829286E-01
       21   -1    0    0  501  502  0.00000000000E+00  0.00000000000E+00  2.13148263471E+01  2.13148263471E+01  0.00000000000E+00  0.00000000000E+00  1.
       21   -1    0    0  502  501  0.00000000000E+00  0.00000000000E+00 -1.83209888052E+02  1.83209888052E+02  0.00000000000E+00  0.00000000000E+00  1.
       25    2    1    2    0    0 -2.66453525910E-15  3.55271367880E-15 -1.61895061705E+02  2.04524714399E+02  1.24981389797E+02  0.00000000000E+00  1.
      -24    2    3    3    0    0 -4.11311282476E+00  2.48418967883E+01 -1.17094876548E+02  1.43777137655E+02  7.95400381277E+01  0.00000000000E+00  1.
       24    2    3    3    0    0  4.11311282476E+00 -2.48418967883E+01 -4.48001851564E+01  6.07475767436E+01  3.23909548643E+01  0.00000000000E+00  1.
        1    1    4    4  803    0 -3.77194719670E+01  5.08561321277E+00 -3.03665864313E+01  4.86903645366E+01  1.06624029994E-06  0.00000000000E+00  1.
       -2    1    4    4    0  803  3.36063591422E+01  1.97562835756E+01 -8.67282901172E+01  9.50867731189E+01  1.65181236989E-06  0.00000000000E+00  1.
        2    1    5    5  804    0 -3.18963191518E+00 -2.82138815702E+01 -4.43891961810E+01  5.26934304553E+01  1.06624029994E-06  0.00000000000E+00  1.
       -1    1    5    5    0  804  7.30274473994E+00  3.37198478189E+00 -4.10988975392E-01  8.05414638829E+00  0.00000000000E+00  0.00000000000E+00  1.
</event>
<event>
 9   0   1.0000000E+00   6.2497433E+01   7.8125000E-03   1.3829034E-01
       21   -1    0    0  501  502  0.00000000000E+00  0.00000000000E+00  2.44528886316E+01  2.44528886316E+01  0.00000000000E+00  0.00000000000E+00  1.
       21   -1    0    0  502  501  0.00000000000E+00  0.00000000000E+00 -1.59732828785E+02  1.59732828785E+02  0.00000000000E+00  0.00000000000E+00  1.
       25    2    1    2    0    0  5.32907051820E-15 -1.77635683940E-15 -1.35279940153E+02  1.84185717417E+02  1.24994865064E+02  0.00000000000E+00  1.
       24    2    3    3    0    0 -7.76964126233E+00 -6.42098716244E+00 -8.85047864497E+01  1.19517382831E+02  7.96850749690E+01  0.00000000000E+00  1.
      -24    2    3    3    0    0  7.76964126233E+00  6.42098716244E+00 -4.67751537037E+01  6.46683345855E+01  4.35026676488E+01  0.00000000000E+00  1.
       16    1    4    4    0    0  2.45543971438E+01 -1.33184663939E+01 -8.08565115170E+01  8.55457505548E+01  1.65181236989E-06  0.00000000000E+00  1.
      -15    1    4    4    0    0 -3.23240384061E+01  6.89747923147E+00 -7.64827493268E+00  3.39716323763E+01  1.77680000000E+00  0.00000000000E+00  1.
       15    1    5    5    0    0 -8.52736851334E+00  1.67543549860E+01 -3.99708759152E+01  4.42069266567E+01  1.77680000000E+00  0.00000000000E+00  1.
      -16    1    5    5    0    0  1.62970097757E+01 -1.03333678235E+01 -6.80427778851E+00  2.04614080288E+01  0.00000000000E+00  0.00000000000E+00  1.
</event>
<event>
 9   0   1.0000000E+00   6.2500262E+01   7.8125000E-03   1.3828929E-01
       21   -1    0    0  501  502  0.00000000000E+00  0.00000000000E+00  1.21239254369E+01  1.21239254369E+01  0.00000000000E+00  0.00000000000E+00  1.
       21   -1    0    0  502  501  0.00000000000E+00  0.00000000000E+00 -3.22196207719E+02  3.22196207719E+02  0.00000000000E+00  0.00000000000E+00  1.
       25    2    1    2    0    0 -1.77635683940E-15 -8.88178419700E-16 -3.10072282282E+02  3.34320133156E+02  1.25000524774E+02  0.00000000000E+00  1.
      -24    2    3    3    0    0  1.20735301845E+01  3.81913552818E+00 -7.26908747496E+01  8.35309398447E+01  3.91548044583E+01  0.00000000000E+00  1.
       24    2    3    3    0    0 -1.20735301845E+01 -3.81913552818E+00 -2.37381407532E+02  2.50789193311E+02  7.99057626974E+01  0.00000000000E+00  1.
        1    1    4    4  803    0  1.34939672750E+01 -5.25803436466E+00 -5.15398220650E+00  1.53719749498E+01  1.08441146604E-06  0.00000000000E+00  1.
       -2    1    4    4    0  803 -1.42043709050E+00  9.07716989284E+00 -6.75368925431E+01  6.81589650949E+01  1.34869915235E-06  0.00000000000E+00  1.
        2    1    5    5  804    0 -1.74144189290E+01 -3.80982682791E+01 -1.68955303715E+02  1.74070774933E+02  0.00000000000E+00  0.00000000000E+00  1.
       -1    1    5    5    0  804  5.34088874451E+00  3.42791327509E+01 -6.84261038175E+01  7.67184184778E+01  2.13248059988E-06  0.00000000000E+00  1.
</event>
<event>
 9   0   1.0000000E+00   6.2499613E+01   7.8125000E-03   1.3828953E-01
       21   -1    0    0  501  502  0.00000000000E+00  0.00000000000E+00  2.46416927105E+02  2.46416927105E+02  0.00000000000E+00  0.00000000000E+00  1.
       21   -1    0    0  502  501  0.00000000000E+00  0.00000000000E+00 -1.58520017884E+01  1.58520017884E+01  0.00000000000E+00  0.00000000000E+00  1.
       25    2    1    2    0    0  3.55271367880E-15  3.55271367880E-15  2.30564925317E+02  2.62268928894E+02  1.24999225104E+02  0.00000000000E+00  1.
       24    2    3    3    0    0  5.03454240962E+00  8.97140908996E+00  1.46446452372E+02  1.57201331878E+02  5.62126545668E+01  0.00000000000E+00  1.
      -24    2    3    3    0    0 -5.03454240962E+00 -8.97140908996E+00  8.41184729446E+01  1.05067597016E+02  6.21083702394E+01  0.00000000000E+00  1.
        4    1    4    4  803    0  2.14796014159E+01  2.51559315966E+01  1.00051648423E+02  1.05385730289E+02  1.27500000000E+00  0.00000000000E+00  1.
       -3    1    4    4    0  803 -1.64450590063E+01 -1.61845225067E+01  4.63948039493E+01  5.18156016886E+01  2.13248059988E-06  0.00000000000E+00  1.
       11    1    5    5    0    0 -2.92735407904E+01 -1.02862290621E+01  2.10656798241E+01  3.75034607128E+01  5.11000210682E-04  0.00000000000E+00  1.
      -12    1    5    5    0    0  2.42389983808E+01  1.31481997214E+00  6.30527931205E+01  6.75641363029E+01  0.00000000000E+00  0.00000000000E+00  1.
</event>
<event>
 9   0   1.0000000E+00   6.2499255E+01   7.8125000E-03   1.3828966E-01
       21   -1    0    0  501  502  0.00000000000E+00  0.00000000000E+00  7.75606464604E+00  7.75606464604E+00  0.00000000000E+00  0.00000000000E+00  1.
       21   -1    0    0  502  501  0.00000000000E+00  0.00000000000E+00 -5.03626143218E+02  5.03626143218E+02  0.00000000000E+00  0.00000000000E+00  1.
       25    2    1    2    0    0 -1.77635683940E-15 -1.77635683940E-15 -4.95870078572E+02  5.11382207864E+02  1.24998510779E+02  0.00000000000E+00  1.
       24    2    3    3    0    0  4.61035131265E+00 -1.23394060446E+01 -2.54086481783E+02  2.56696359619E+02  3.40523792974E+01  0.00000000000E+00  1.
      -24    2    3    3    0    0 -4.61035131265E+00  1.23394060446E+01 -2.41783596788E+02  2.54685848245E+02  7.89433805935E+01  0.00000000000E+00  1.
        4    1    4    4  803    0  1.47941774110E+01 -1.21239087434E+01 -2.26146043250E+02  2.26957078213E+02  1.27500000000E+00  0.00000000000E+00  1.
       -3    1    4    4    0  803 -1.01838260984E+01 -2.15497301177E-01 -2.79404385337E+01  2.97392814060E+01  3.01578298585E-06  0.00000000000E+00  1.
       11    1    5    5    0    0 -2.12692804401E+01 -7.05045163694E+00 -1.61797053644E+01  2.76382710144E+01  5.11004104050E-04  0.00000000000E+00  1.
      -12    1    5    5    0    0  1.66589291275E+01  1.93898576815E+01 -2.25603891424E+02  2.27047577230E+02  0.00000000000E+00  0.00000000000E+00  1.
</event>
<event>
 9   0   1.0000000E+00   6.2499302E+01   7.8125000E-03   1.3828965E-01
       21   -1    0    0  501  502  0.00000000000E+00  0.00000000000E+00  3.43690670904E+01  3.43690670904E+01  0.00000000000E+00  0.00000000000E+00  1.
       21   -1    0    0  502  501  0.00000000000E+00  0.00000000000E+00 -1.13653441273E+02  1.13653441273E+02  0.00000000000E+00  0.00000000000E+00  1.
       25    2    1    2    0    0  3.55271367880E-15 -3.55271367880E-15 -7.92843741828E+01  1.48022508364E+02  1.24998603963E+02  0.00000000000E+00  1.
      -24    2    3    3    0    0  1.91681423216E+01  6.44204490492E+00 -6.84030188656E+01  1.05773983808E+02  7.81040654383E+01  0.00000000000E+00  1.
       24    2    3    3    0    0 -1.91681423216E+01 -6.44204490492E+00 -1.08813553172E+01  4.22485245559E+01  3.54628863883E+01  0.00000000000E+00  1.
        1    1    4    4  803    0 -9.13004187472E+00  3.66889357245E+01 -2.27225800929E+01  4.41106713180E+01  1.01152436426E-06  0.00000000000E+00  1.
       -2    1    4    4    0  803  2.82981841963E+01 -3.02468908195E+01 -4.56804387727E+01  6.16633126896E+01  1.34869915235E-06  0.00000000000E+00  1.
       14    1    5    5    0    0 -1.05387246287E+01 -2.05564041355E+01 -1.12641572990E+01  2.57004223202E+01  0.00000000000E+00  0.00000000000E+00  1.
      -13    1    5    5    0    0 -8.62941769289E+00  1.41143592306E+01  3.82801981786E-01  1.65481022356E+01  1.05660000002E-01  0.00000000000E+00  1.
</event>
<event>
 9   0   1.0000000E+00   6.2503475E+01   7.8125000E-03   1.3828809E-01
       21   -1    0    0  501  502  0.00000000000E+00  0.00000000000E+00  1.11596964117E+02  1.11596964117E+02  0.00000000000E+00  0.00000000000E+00  1.
       21   -1    0    0  502  501  0.00000000000E+00  0.00000000000E+00 -3.50070842516E+01  3.50070842516E+01  0.00000000000E+00  0.00000000000E+00  1.
       25    2    1    2    0    0 -7.10542735760E-15  0.00000000000E+00  7.65898798658E+01  1.46604048369E+02  1.25006949008E+02  0.00000000000E+00  1.
      -24    2    3    3    0    0  2.08674360208E+01 -5.74081738247E+00  4.40497068122E+01  9.35242066812E+01  7.96115173502E+01  0.00000000000E+00  1.
       24    2    3    3    0    0 -2.08674360208E+01  5.74081738247E+00  3.25401730535E+01  5.30798416878E+01  3.59193521788E+01  0.00000000000E+00  1.
       11    1    4    4    0    0 -1.62156719742E+01  1.45248127710E+00  5.23718170427E+01  5.48440055070E+01  5.11001267456E-04  0.00000000000E+00  1.
      -12    1    4    4    0    0  3.70831079951E+01 -7.19329865957E+00 -8.32211023054E+00  3.86802011741E+01  0.00000000000E+00  0.00000000000E+00  1.
        4    1    5    5  803    0  4.24384478956E+00  4.44921220679E+00  2.64813725559E+01  2.72157018154E+01  1.27500000000E+00  0.00000000000E+00  1.
       -3    1    5    5    0  803 -2.51112808104E+01  1.29160517568E+00  6.05880049765E+00  2.58641398724E+01  0.00000000000E+00  0.00000000000E+00  1.
</event>
<event>
 9   0   1.0000000E+00   6.2502137E+01   7.8125000E-03   1.3828859E-01
       21   -1    0    0  501  502  0.00000000000E+00  0.00000000000E+00  6.87130007510E+01  6.87130007510E+01  0.00000000000E+00  0.00000000000E+00  1.
       21   -1    0    0  502  501  0.00000000000E+00  0.00000000000E+00 -5.68526645171E+01  5.68526645171E+01  0.00000000000E+00  0.00000000000E+00  1.
       25    2    1    2    0    0  3.10862446895E-15  6.66133814775E-16  1.18603362339E+01  1.25565665268E+02  1.25004274801E+02  0.00000000000E+00  1.
       24    2    3    3    0    0 -8.93506024318E-01 -1.45184418052E+00  4.01951345041E+01  9.29273521582E+01  8.37671638340E+01  0.00000000000E+00  1.
      -24    2    3    3    0    0  8.93506024318E-01  1.45184418052E+00 -2.83347982702E+01  3.26383131099E+01  1.61087704405E+01  0.00000000000E+00  1.
       12    1    4    4    0    0 -4.18858092245E+01 -2.55961177290E+00  2.67826440249E+01  4.97823528747E+01  0.00000000000E+00  0.00000000000E+00  1.
      -11    1    4    4    0    0  4.09923032001E+01  1.10776759238E+00  1.34124904792E+01  4.31449993836E+01  5.11000016013E-04  0.00000000000E+00  1.
        1    1    5    5  803    0 -1.17818408623E+00  4.73778736731E+00 -2.83363218393E+01  2.87538151905E+01  0.00000000000E+00  0.00000000000E+00  1.
       -2    1    5    5    0  803  2.07169011055E+00 -3.28594318679E+00  1.52356910671E-03  3.88449811933E+00  0.00000000000E+00  0.00000000000E+00  1.
</event>
<event>
 9   0   1.0000000E+00   6.2500105E+01   7.8125000E-03   1.3828935E-01
       21   -1    0    0  501  502  0.00000000000E+00  0.00000000000E+00  6.34549016340E+01  6.34549016340E+01  0.00000000000E+00  0.00000000000E+00  1.
       21   -1    0    0  502  501  0.00000000000E+00  0.00000000000E+00 -6.15596756280E+01  6.15596756280E+01  0.00000000000E+00  0.00000000000E+00  1.
       25    2    1    2    0    0 -1.77635683940E-15  0.00000000000E+00  1.89522600599E+00  1.25014577262E+02  1.25000210585E+02  0.00000000000E+00  1.
       24    2    3    3    0    0  1.32848706383E+01  1.37010581677E+01 -5.06819950876E+00  8.24962318990E+01  8.00982824316E+01  0.00000000000E+00  1.
      -24    2    3    3    0    0 -1.32848706383E+01 -1.37010581677E+01  6.96342551475E+00  4.25183453630E+01  3.73512197220E+01  0.00000000000E+00  1.
        4    1    4    4  803    0  4.35143765075E+01 -7.98088162061E+00  3.24539224410E+00  4.43773999926E+01  1.27500000000E+00  0.00000000000E+00  1.
       -3    1    4    4    0  803 -3.02295058692E+01  2.16819397883E+01 -8.31359175286E+00  3.81188320065E+01  1.70681727687E-06  0.00000000000E+00  1.
       15    1    5    5    0    0 -1.85607082097E+01 -2.30245584629E+01 -2.05540289748E-01  2.96281866929E+01  1.77680000000E+00  0.00000000000E+00  1.
      -16    1    5    5    0    0  5.27583757138E+00  9.32350029526E+00  7.16896580450E+00  1.28901587701E+01  0.00000000000E+00  0.00000000000E+00  1.
</event>
<event>
 9   0   1.0000000E+00   6.2500553E+01   7.8125000E-03   1.3828918E-01
       21   -1    0    0  501  502  0.00000000000E+00  0.00000000000E+00  1.15955100037E+02  1.15955100037E+02  0.00000000000E+00  0.00000000000E+00  1.
       21   -1    0    0  502  501  0.00000000000E+00  0.00000000000E+00 -3.36882043516E+01  3.36882043516E+01  0.00000000000E+00  0.00000000000E+00  1.
       25    2    1    2    0    0  3.55271367880E-15  3.55271367880E-15  8.22668956850E+01  1.49643304388E+02  1.25001105685E+02  0.00000000000E+00  1.
      -24    2    3    3    0    0  1.43325586946E+01  2.02490140124E+01  4.54485138665E+01  5.68683034801E+01  2.35157759985E+01  0.00000000000E+00  1.
       24    2    3    3    0    0 -1.43325586946E+01 -2.02490140124E+01  3.68183818185E+01  9.27750009081E+01  8.14626463267E+01  0.00000000000E+00  1.
       11    1    4    4    0    0  2.02752633700E+01  1.95952637256E+01  3.79298535631E+01  4.72624000319E+01  5.11000377541E-04  0.00000000000E+00  1.
      -12    1    4    4    0    0 -5.94270467540E+00  6.53750286861E-01  7.51866030347E+00  9.60590344817E+00  0.00000000000E+00  0.00000000000E+00  1.
       14    1    5    5    0    0  1.12046752973E+01 -2.36889664037E+01 -1.82784719578E+01  3.19501865612E+01  1.63451542864E-06  0.00000000000E+00  1.
      -13    1    5    5    0    0 -2.55372339920E+01  3.43995239124E+00  5.50968537763E+01  6.08248144469E+01  1.05659999984E-01  0.00000000000E+00  1.
</event>
<event>
 9   0   1.0000000E+00   6.2500232E+01   7.8125000E-03   1.3828930E-01
       21   -1    0    0  501  502  0.00000000000E+00  0.00000000000E+00  9.74621210069E+01  9.74621210069E+01  0.00000000000E+00  0.00000000000E+00  1.
       21   -1    0    0  502  501  0.00000000000E+00  0.00000000000E+00 -4.00799715054E+01  4.00799715054E+01  0.00000000000E+00  0.00000000000E+00  1.
       25    2    1    2    0    0  3.55271367880E-15  0.00000000000E+00  5.73821495015E+01  1.37542092512E+02  1.25000464524E+02  0.00000000000E+00  1.
      -24    2    3    3    0    0 -9.78112231078E+00  4.52567314826E+00  8.72228653406E+00  4.29697618163E+01  4.06714897325E+01  0.00000000000E+00  1.
       24    2    3    3    0    0  9.78112231078E+00 -4.52567314826E+00  4.86598629675E+01  9.45723306961E+01  8.03740716784E+01  0.00000000000E+00  1.
        3    1    4    4  803    0 -3.89046081588E+00 -1.00930569581E+01  2.05501158928E+01  2.32231081463E+01  0.00000000000E+00  0.00000000000E+00  1.
       -4    1    4    4    0  803 -5.89066149489E+00  1.46187301064E+01 -1.18278293588E+01  1.97466537700E+01  1.27500000000E+00  0.00000000000E+00  1.
        4    1    5    5  804    0 -1.42331332951E+01  3.32328309142E+01  1.87166714774E+01  4.07301184649E+01  1.27500000000E+00  0.00000000000E+00  1.
       -3    1    5    5    0  804  2.40142556058E+01 -3.77585040625E+01  2.99431914901E+01  5.38422123312E+01  0.00000000000E+00  0.00000000000E+00  1.
</event>
<event>
 9   0   1.0000000E+00   6.2498080E+01   7.8125000E-03   1.3829010E-01
       21   -1    0    0  501  502  0.00000000000E+00  0.00000000000E+00  3.75655467622E+01  3.75655467622E+01  0.00000000000E+00  0.00000000000E+00  1.
       21   -1    0    0  502  501  0.00000000000E+00  0.00000000000E+00 -1.03978521095E+02  1.03978521095E+02  0.00000000000E+00  0.00000000000E+00  1.
       25    2    1    2    0    0  0.00000000000E+00  1.77635683940E-15 -6.64129743326E+01  1.41544067857E+02  1.24996159884E+02  0.00000000000E+00  1.
      -24    2    3    3    0    0 -1.99813867698E+01 -1.43405675771E+01 -5.09697289425E+01  6.02881967947E+01  2.07808976854E+01  0.00000000000E+00  1.
       24    2    3    3    0    0  1.99813867698E+01  1.43405675771E+01 -1.54432453901E+01  8.12558710623E+01  7.58888335543E+01  0.00000000000E+00  1.
       11    1    4    4    0    0 -9.11984244777E+00 -4.82377556516E+00 -3.86108170280E+00  1.10158199491E+01  5.11000716474E-04  0.00000000000E+00  1.
      -12    1    4    4    0    0 -1.08615443220E+01 -9.51679201196E+00 -4.71086472397E+01  4.92723768456E+01  0.00000000000E+00  0.00000000000E+00  1.
        2    1    5    5  804    0  3.98323619443E+01  1.30098617845E+01 -3.40668215899E+01  5.40039063935E+01  1.43051147461E-06  0.00000000000E+00  1.
       -1    1    5    5    0  804 -1.98509751745E+01  1.33070579264E+00  1.86235761999E+01  2.72519648688E+01  1.28392334154E-06  0.00000000000E+00  1.
</event>
<event>
 9   0   1.0000000E+00   6.2502294E+01   7.8125000E-03   1.3828853E-01
       21   -1    0    0  501  502  0.00000000000E+00  0.00000000000E+00  1.20779917882E+03  1.20779917882E+03  0.00000000000E+00  0.00000000000E+00  1.
       21   -1    0    0  502  501  0.00000000000E+00  0.00000000000E+00 -3.23442572850E+00  3.23442572850E+00  0.00000000000E+00  0.00000000000E+00  1.
       25    2    1    2    0    0 -3.55271367880E-15  0.00000000000E+00  1.20456475309E+03  1.21103360454E+03  1.25004587737E+02  0.00000000000E+00  1.
      -24    2    3    3    0    0  1.81202806572E+01  9.89010884009E+00  4.40095633570E+02  4.45735889419E+02  6.76029407995E+01  0.00000000000E+00  1.
       24    2    3    3    0    0 -1.81202806572E+01 -9.89010884009E+00  7.64469119518E+02  7.65297715126E+02  2.90068829176E+01  0.00000000000E+00  1.
        1    1    4    4  803    0  3.91513685405E+01  1.71255329368E+01  3.62677530833E+02  3.65186397485E+02  0.00000000000E+00  0.00000000000E+00  1.
       -2    1    4    4    0  803 -2.10310878834E+01 -7.23542409673E+00  7.74181027377E+01  8.05494919346E+01  2.86102294922E-06  0.00000000000E+00  1.
        2    1    5    5  804    0  2.44350064256E+00  4.63681151720E+00  3.46239476068E+01  3.50184018955E+01  1.47742589806E-05  0.00000000000E+00  1.
       -1    1    5    5    0  804 -2.05637812997E+01 -1.45269203573E+01  7.29845171911E+02  7.30279313430E+02  1.52587890625E-05  0.00000000000E+00  1.
</event>
<event>
 9   0   1.0000000E+00   6.2501468E+01   7.8125000E-03   1.3828884E-01
       21   -1    0    0  501  502  0.00000000000E+00  0.00000000000E+00  2.80507608730E+01  2.80507608730E+01  0.00000000000E+00  0.00000000000E+00  1.
       21   -1    0    0  502  501  0.00000000000E+00  0.00000000000E+00 -1.39263012450E+02  1.39263012450E+02  0.00000000000E+00  0.00000000000E+00  1.
       25    2    1    2    0    0 -3.55271367880E-15 -8.88178419700E-16 -1.11212251577E+02  1.67313773323E+02  1.25002935336E+02  0.00000000000E+00  1.
      -24    2    3    3    0    0 -5.16893036990E+00  6.26531934840E+00  1.09006116626E+01  4.14426075692E+01  3.91496400981E+01  0.00000000000E+00  1.
       24    2    3    3    0    0  5.16893036990E+00 -6.26531934840E+00 -1.22112863240E+02  1.25871165754E+02  2.94283355274E+01  0.00000000000E+00  1.
        3    1    4    4  803    0 -7.64685420385E+00  1.42518445962E+01  2.21134897432E+01  2.73970049866E+01  0.00000000000E+00  0.00000000000E+00  1.
       -4    1    4    4    0  803  2.47792383395E+00 -7.98652524784E+00 -1.12128780806E+01  1.40456025827E+01  1.27500000000E+00  0.00000000000E+00  1.
        4    1    5    5  804    0  1.70133054601E+01 -1.02156400002E-01 -6.30201523692E+01  6.52888063013E+01  1.27500000000E+00  0.00000000000E+00  1.
       -3    1    5    5    0  804 -1.18443750902E+01 -6.16316294839E+00 -5.90927108704E+01  6.05823594524E+01  0.00000000000E+00  0.00000000000E+00  1.
</event>
<event>
 9   0   1.0000000E+00   6.2502348E+01   7.8125000E-03   1.3828851E-01
       21   -1    0    0  501  502  0.00000000000E+00  0.00000000000E+00  1.72554709778E+01  1.72554709778E+01  0.00000000000E+00  0.00000000000E+00  1.
       21   -1    0    0  502  501  0.00000000000E+00  0.00000000000E+00 -2.26394489232E+02  2.26394489232E+02  0.00000000000E+00  0.00000000000E+00  1.
       25    2    1    2    0    0  3.55271367880E-15  2.66453525910E-15 -2.09139018254E+02  2.43649960210E+02  1.25004696528E+02  0.00000000000E+00  1.
      -24    2    3    3    0    0 -2.64329561884E+00 -6.39843643123E+00 -6.50396457330E+01  9.09003524213E+01  6.31252053679E+01  0.00000000000E+00  1.
       24    2    3    3    0    0  2.64329561884E+00  6.39843643123E+00 -1.44099372521E+02  1.52749607789E+02  5.01984712724E+01  0.00000000000E+00  1.
        3    1    4    4  804    0 -2.98415417535E+01  4.57703064410E+00 -4.87100912517E+01  5.73074150957E+01  0.00000000000E+00  0.00000000000E+00  1.
       -4    1    4    4    0  804  2.71982461346E+01 -1.09754670753E+01 -1.63295544814E+01  3.35929374256E+01  1.27500000000E+00  0.00000000000E+00  1.
        4    1    5    5  803    0  1.97654269085E+01 -1.27098070730E+01 -5.07951620855E+01  5.59820097263E+01  1.27500000000E+00  0.00000000000E+00  1.
       -3    1    5    5    0  803 -1.71221312896E+01  1.91082435042E+01 -9.33042104360E+01  9.67675980625E+01  0.00000000000E+00  0.00000000000E+00  1.
</event>
<event>
 9   0   1.0000000E+00   6.2495829E+01   7.8125000E-03   1.3829094E-01
       21   -1    0    0  501  502  0.00000000000E+00  0.00000000000E+00  8.14569147072E+01  8.14569147072E+01  0.00000000000E+00  0.00000000000E+00  1.
       21   -1    0    0  502  501  0.00000000000E+00  0.00000000000E+00 -4.79483996373E+01  4.79483996373E+01  0.00000000000E+00  0.00000000000E+00  1.
       25    2    1    2    0    0 -3.55271367880E-15 -1.33226762955E-15  3.35085150699E+01  1.29405314345E+02  1.24991658915E+02  0.00000000000E+00  1.
      -24    2    3    3    0    0 -3.05189138240E+01 -2.97413636988E+00  1.69036519664E+01  5.39226205991E+01  4.10081208339E+01  0.00000000000E+00  1.
       24    2    3    3    0    0  3.05189138240E+01  2.97413636988E+00  1.66048631035E+01  7.54826937454E+01  6.69452461959E+01  0.00000000000E+00  1.
        1    1    4    4  804    0 -3.95434220596E+01 -9.36186443134E-01  1.97928132603E+01  4.42302400948E+01  0.00000000000E+00  0.00000000000E+00  1.
       -2    1    4    4    0  804  9.02450823552E+00 -2.03794992674E+00 -2.88916129399E+00  9.69238060435E+00  0.00000000000E+00  0.00000000000E+00  1.
        2    1    5    5  803    0  2.08295984784E+01 -2.93758188999E+01  2.05842760078E+01  4.14791915010E+01  1.46971082758E-06  0.00000000000E+00  1.
       -1    1    5    5    0  803  9.68931534569E+00  3.23499552698E+01 -3.97941290423E+00  3.40035022445E+01  1.17483158972E-06  0.00000000000E+00  1.
</event>
<event>
 9   0   1.0000000E+00   6.2501520E+01   7.8125000E-03   1.3828882E-01
       21   -1    0    0  501  502  0.00000000000E+00  0.00000000000E+00  1.04276877341E+03  1.04276877341E+03  0.00000000000E+00  0.00000000000E+00  1.
       21   -1    0    0  502  501  0.00000000000E+00  0.00000000000E+00 -3.74621884300E+00  3.74621884300E+00  0.00000000000E+00  0.00000000000E+00  1.
       25    2    1    2    0    0  3.55271367880E-15 -2.22044604925E-15  1.03902255457E+03  1.04651499225E+03  1.25003040409E+02  0.00000000000E+00  1.
       24    2    3    3    0    0  1.14296834850E+01 -9.70521639013E-01  4.89062995430E+02  4.90766299043E+02  3.92092744219E+01  0.00000000000E+00  1.
      -24    2    3    3    0    0 -1.14296834850E+01  9.70521639013E-01  5.49959559139E+02  5.55748693212E+02  7.91802610601E+01  0.00000000000E+00  1.
        2    1    4    4  803    0 -1.45907276549E+01 -1.16315026300E+00  1.99689425819E+02  2.00225145963E+02  5.39479660939E-06  0.00000000000E+00  1.
       -1    1    4    4    0  803  2.60204111399E+01  1.92628623983E-01  2.89373569611E+02  2.90541153280E+02  3.81469726562E-06  0.00000000000E+00  1.
        1    1    5    5  804    0  2.40931406416E+01 -2.58328859114E+01  2.62116472359E+02  2.64486034707E+02  5.39479660939E-06  0.00000000000E+00  1.
       -2    1    5    5    0  804 -3.55228241266E+01  2.68034075504E+01  2.87843086780E+02  2.91262658705E+02  5.39479660939E-06  0.00000000000E+00  1.
</event>
<event>
 9   0   1.0000000E+00   6.2500462E+01   7.8125000E-03   1.3828921E-01
       21   -1    0    0  501  502  0.00000000000E+00  0.00000000000E+00  1.67219192405E+02  1.67219192405E+02  0.00000000000E+00  0.00000000000E+00  1.
       21   -1    0    0  502  501  0.00000000000E+00  0.00000000000E+00 -2.33604031997E+01  2.33604031997E+01  0.00000000000E+00  0.00000000000E+00  1.
       25    2    1    2    0    0  0.00000000000E+00 -3.55271367880E-15  1.43858789205E+02  1.90579595604E+02  1.25000924113E+02  0.00000000000E+00  1.
      -24    2    3    3    0    0  1.52146364959E+01 -1.45146110461E+01  1.35462112987E+02  1.59244519175E+02  8.10350154851E+01  0.00000000000E+00  1.
       24    2    3    3    0    0 -1.52146364959E+01  1.45146110461E+01  8.39667621748E+00  3.13350764295E+01  2.16615730227E+01  0.00000000000E+00  1.
       11    1    4    4    0    0  2.30854784399E+01 -3.78024874900E+00  2.65718345381E-01  2.33944481000E+01  5.11004933981E-04  0.00000000000E+00  1.
      -12    1    4    4    0    0 -7.87084194393E+00 -1.07343622971E+01  1.35196394642E+02  1.35850071075E+02  4.26496119976E-06  0.00000000000E+00  1.
       14    1    5    5    0    0 -1.84910278065E+00  8.56438973417E+00  1.32809582960E+01  1.59107450817E+01  0.00000000000E+00  0.00000000000E+00  1.
      -13    1    5    5    0    0 -1.33655337153E+01  5.95022131194E+00 -4.88428207849E+00  1.54243314479E+01  1.05659999999E-01  0.00000000000E+00  1.
</event>
<event>
 9   0   1.0000000E+00   6.2500967E+01   7.8125000E-03   1.3828903E-01
       21   -1    0    0  501  502  0.00000000000E+00  0.00000000000E+00  1.40544579081E+02  1.40544579081E+02  0.00000000000E+00  0.00000000000E+00  1.
       21   -1    0    0  502  501  0.00000000000E+00  0.00000000000E+00 -2.77945326369E+01  2.77945326369E+01  0.00000000000E+00  0.00000000000E+00  1.
       25    2    1    2    0    0 -7.10542735760E-15  3.55271367880E-15  1.12750046444E+02  1.68339111718E+02  1.25001934228E+02  0.00000000000E+00  1.
       24    2    3    3    0    0 -1.70821823960E+01  6.20689245536E+00  2.44269381708E+01  4.74161576799E+01  3.63495561370E+01  0.00000000000E+00  1.
      -24    2    3    3    0    0  1.70821823960E+01 -6.20689245536E+00  8.83231082732E+01  1.20922954038E+02  8.05671328078E+01  0.00000000000E+00  1.
       12    1    4    4    0    0  1.94297817513E+00  1.33217185933E+01  2.34999177838E+01  2.70830111274E+01  0.00000000000E+00  0.00000000000E+00  1.
      -11    1    4    4    0    0 -1.90251605712E+01 -7.11482613790E+00  9.27020387043E-01  2.03331466525E+01  5.10999734655E-04  0.00000000000E+00  1.
        3    1    5    5  804    0 -3.01224343972E+01 -1.54148634386E+01  2.91726153845E+01  4.46768458736E+01  0.00000000000E+00  0.00000000000E+00  1.
       -4    1    5    5    0  804  4.72046167933E+01  9.20797098329E+00  5.91504928887E+01  7.62461081643E+01  1.27500000000E+00  0.00000000000E+00  1.
</event>
<event>
 9   0   1.0000000E+00   6.2471372E+01   7.8125000E-03   1.3830008E-01
       21   -1    0    0  501  502  0.00000000000E+00  0.00000000000E+00  3.40964979720E+01  3.40964979720E+01  0.00000000000E+00  0.00000000000E+00  1.
       21   -1    0    0  502  501  0.00000000000E+00  0.00000000000E+00 -1.14459623627E+02  1.14459623627E+02  0.00000000000E+00  0.00000000000E+00  1.
       25    2    1    2    0    0 -1.77635683940E-15 -1.77635683940E-15 -8.03631256548E+01  1.48556121599E+02  1.24942744085E+02  0.00000000000E+00  1.
       24    2    3    3    0    0  1.49683429896E+01  3.61666261067E+00 -4.04050348392E+01  9.14383908248E+01  8.05684859978E+01  0.00000000000E+00  1.
      -24    2    3    3    0    0 -1.49683429896E+01 -3.61666261067E+00 -3.99580908157E+01  5.71177307740E+01  3.77975476300E+01  0.00000000000E+00  1.
        4    1    4    4  803    0  4.13893245910E+01 -1.25891363050E+01 -4.21241804986E+01  6.03956517531E+01  1.27500000000E+00  0.00000000000E+00  1.
       -3    1    4    4    0  803 -2.64209816013E+01  1.62057989157E+01  1.71914565949E+00  3.10427390717E+01  1.21588362091E-06  0.00000000000E+00  1.
        3    1    5    5  804    0 -1.90713509312E+00 -7.74700546439E+00  5.45598248318E+00  9.66545409101E+00  0.00000000000E+00  0.00000000000E+00  1.
       -4    1    5    5    0  804 -1.30612078965E+01  4.13034285372E+00 -4.54140732988E+01  4.74522766830E+01  1.27500000000E+00  0.00000000000E+00  1.
</event>
<event>
 9   0   1.0000000E+00   6.2498796E+01   7.8125000E-03   1.3828984E-01
       21   -1    0    0  501  502  0.00000000000E+00  0.00000000000E+00  1.73019254799E+01  1.73019254799E+01  0.00000000000E+00  0.00000000000E+00  1.
       21   -1    0    0  502  501  0.00000000000E+00  0.00000000000E+00 -2.25760968832E+02  2.25760968832E+02  0.00000000000E+00  0.00000000000E+00  1.
       25    2    1    2    0    0  3.55271367880E-15  0.00000000000E+00 -2.08459043352E+02  2.43062894312E+02  1.24997591321E+02  0.00000000000E+00  1.
       24    2    3    3    0    0 -1.68012201671E+01 -2.31168077745E+01 -1.66848536322E+02  1.88060014553E+02  8.19235448477E+01  0.00000000000E+00  1.
      -24    2    3    3    0    0  1.68012201671E+01  2.31168077745E+01 -4.16105070303E+01  5.50028797582E+01  2.18452440037E+01  0.00000000000E+00  1.
        4    1    4    4  803    0 -3.47501307492E+01 -4.54449918442E+01 -1.23328140773E+02  1.35956885822E+02  1.27500000000E+00  0.00000000000E+00  1.
       -3    1    4    4    0  803  1.79489105821E+01  2.23281840697E+01 -4.35203955481E+01  5.21031287314E+01  1.50789149292E-06  0.00000000000E+00  1.
        3    1    5    5  804    0  1.91976674737E+01  8.33862543176E+00 -2.49953863163E+01  3.26014178775E+01  0.00000000000E+00  0.00000000000E+00  1.
       -4    1    5    5    0  804 -2.39644730659E+00  1.47781823428E+01 -1.66151207140E+01  2.24014618806E+01  1.27500000000E+00  0.00000000000E+00  1.
</event>
<event>
 9   0   1.0000000E+00   6.2502341E+01   7.8125000E-03   1.3828851E-01
       21   -1    0    0  501  502  0.00000000000E+00  0.00000000000E+00  8.07826570254E+01  8.07826570254E+01  0.00000000000E+00  0.00000000000E+00  1.
       21   -1    0    0  502  501  0.00000000000E+00  0.00000000000E+00 -4.83586789604E+01  4.83586789604E+01  0.00000000000E+00  0.00000000000E+00  1.
       25    2    1    2    0    0  7.10542735760E-15 -1.77635683940E-15  3.24239780650E+01  1.29141335986E+02  1.25004681139E+02  0.00000000000E+00  1.
       24    2    3    3    0    0 -2.58454481628E+01  8.63925322708E+00  2.09332006680E+01  8.63690234254E+01  7.92387874099E+01  0.00000000000E+00  1.
      -24    2    3    3    0    0  2.58454481628E+01 -8.63925322708E+00  1.14907773971E+01  4.27723125604E+01  3.08999817074E+01  0.00000000000E+00  1.
        2    1    4    4  804    0  2.66479049634E+01 -8.89638708606E+00  3.32046167785E+00  2.82892560502E+01  1.13405570927E-06  0.00000000000E+00  1.
       -1    1    4    4    0  804 -5.24933531261E+01  1.75356403131E+01  1.76127389901E+01  5.80797673751E+01  1.11828226085E-06  0.00000000000E+00  1.
        3    1    5    5  803    0  1.57706307676E+01  5.03282236541E+00 -6.72462738521E+00  1.78679240328E+01  0.00000000000E+00  0.00000000000E+00  1.
       -2    1    5    5    0  803  1.00748173951E+01 -1.36720755925E+01  1.82154047823E+01  2.49043885276E+01  0.00000000000E+00  0.00000000000E+00  1.
</event>
<event>
 9   0   1.0000000E+00   6.2499020E+01   7.8125000E-03   1.3828975E-01
       21   -1    0    0  501  502  0.00000000000E+00  0.00000000000E+00  2.79189670848E+00  2.79189670848E+00  0.00000000000E+00  0.00000000000E+00  1.
       21   -1    0    0  502  501  0.00000000000E+00  0.00000000000E+00 -1.39909457377E+03  1.39909457377E+03  0.00000000000E+00  0.00000000000E+00  1.
       25    2    1    2    0    0  5.32907051820E-15 -3.55271367880E-15 -1.39630267706E+03  1.40188647048E+03  1.24998040550E+02  0.00000000000E+00  1.
      -24    2    3    3    0    0  1.00814612017E+01  2.20875805416E+01 -3.91966206032E+02  3.93999588649E+02  3.17595987108E+01  0.00000000000E+00  1.
       24    2    3    3    0    0 -1.00814612017E+01 -2.20875805416E+01 -1.00433647103E+03  1.00788688183E+03  8.09612404173E+01  0.00000000000E+00  1.
       11    1    4    4    0    0  8.65875327306E+00  2.10284747291E+01 -1.26528004024E+02  1.28555461028E+02  5.10993258165E-04  0.00000000000E+00  1.
      -12    1    4    4    0    0  1.42270792866E+00  1.05910581254E+00 -2.65438202008E+02  2.65444127621E+02  6.60724947956E-06  0.00000000000E+00  1.
        2    1    5    5  803    0 -2.07099535761E+01  1.02672667188E+01 -8.26254961352E+02  8.26578235923E+02  0.00000000000E+00  0.00000000000E+00  1.
       -1    1    5    5    0  803  1.06284923744E+01 -3.23548472604E+01 -1.78081509679E+02  1.81308646008E+02  1.37540865916E-05  0.00000000000E+00  1.
</event>
<event>
 9   0   1.0000000E+00   6.2487969E+01   7.8125000E-03   1.3829388E-01
       21   -1    0    0  501  502  0.00000000000E+00  0.00000000000E+00  1.61001319813E+02  1.61001319813E+02  0.00000000000E+00  0.00000000000E+00  1.
       21   -1    0    0  502  501  0.00000000000E+00  0.00000000000E+00 -2.42528839147E+01  2.42528839147E+01  0.00000000000E+00  0.00000000000E+00  1.
       25    2    1    2    0    0  0.00000000000E+00  8.88178419700E-16  1.36748435899E+02  1.85254203728E+02  1.24975938797E+02  0.00000000000E+00  1.
      -24    2    3    3    0    0  5.36959294191E+00  7.08907863728E+00  7.59108834660E+01  9.13255480654E+01  4.99880579396E+01  0.00000000000E+00  1.
       24    2    3    3    0    0 -5.36959294191E+00 -7.08907863728E+00  6.08375524328E+01  9.39286556627E+01  7.10091332457E+01  0.00000000000E+00  1.
       13    1    4    4    0    0 -9.41338825807E+00  3.08794465140E+00  7.53519269242E+01  7.60004693136E+01  1.05660000012E-01  0.00000000000E+00  1.
      -14    1    4    4    0    0  1.47829812000E+01  4.00113398588E+00  5.58956541793E-01  1.53250787518E+01  0.00000000000E+00  0.00000000000E+00  1.
        4    1    5    5  804    0  2.59376813038E+01  1.47552822071E+00  1.20946343908E+00  2.60389884933E+01  1.27500000000E+00  0.00000000000E+00  1.
       -3    1    5    5    0  804 -3.13072742457E+01 -8.56460685799E+00  5.96280889938E+01  6.78896671694E+01  1.34869915235E-06  0.00000000000E+00  1.
</event>
<event>
 9   0   1.0000000E+00   6.2500067E+01   7.8125000E-03   1.3828936E-01
       21   -1    0    0  501  502  0.00000000000E+00  0.00000000000E+00  1.07582263080E+02  1.07582263080E+02  0.00000000000E+00  0.00000000000E+00  1.
       21   -1    0    0  502  501  0.00000000000E+00  0.00000000000E+00 -3.63095013391E+01  3.63095013391E+01  0.00000000000E+00  0.00000000000E+00  1.
       25    2    1    2    0    0  0.00000000000E+00  7.10542735760E-15  7.12727617413E+01  1.43891764420E+02  1.25000133206E+02  0.00000000000E+00  1.
       24    2    3    3    0    0 -4.81746768049E+00 -2.04157157001E+01 -6.02614227509E+00  3.04443371381E+01  2.12257822154E+01  0.00000000000E+00  1.
      -24    2    3    3    0    0  4.81746768049E+00  2.04157157001E+01  7.72989040164E+01  1.13447427281E+02  8.03441892874E+01  0.00000000000E+00  1.
        2    1    4    4  803    0 -4.54505655722E+00 -9.63638409712E+00 -1.35933219477E+01  1.72712431270E+01  0.00000000000E+00  0.00000000000E+00  1.
       -1    1    4    4    0  803 -2.72411123277E-01 -1.07793316030E+01  7.56717967265E+00  1.31730940111E+01  0.00000000000E+00  0.00000000000E+00  1.
        3    1    5    5  804    0 -1.92730748532E+01  4.02698719507E+01  6.70740246564E+01  8.05731890950E+01  0.00000000000E+00  0.00000000000E+00  1.
       -4    1    5    5    0  804  2.40905425337E+01 -1.98541562505E+01  1.02248793599E+01  3.28742382864E+01  1.27500000000E+00  0.00000000000E+00  1.
</event>
<event>
 9   0   1.0000000E+00   6.2501757E+01   7.8125000E-03   1.3828873E-01
       21   -1    0    0  501  502  0.00000000000E+00  0.00000000000E+00  3.98947915703E+01  3.98947915703E+01  0.00000000000E+00  0.00000000000E+00  1.
       21   -1    0    0  502  501  0.00000000000E+00  0.00000000000E+00 -9.79192902128E+01  9.79192902128E+01  0.00000000000E+00  0.00000000000E+00  1.
       25    2    1    2    0    0 -3.55271367880E-15  0.00000000000E+00 -5.80244986426E+01  1.37814081783E+02  1.25003514731E+02  0.00000000000E+00  1.
      -24    2    3    3    0    0 -1.47037381302E+01  2.47793831456E+01 -2.09590554974E+01  4.31327999819E+01  2.43092304044E+01  0.00000000000E+00  1.
       24    2    3    3    0    0  1.47037381302E+01 -2.47793831456E+01 -3.70654431451E+01  9.46812818012E+01  8.22221399861E+01  0.00000000000E+00  1.
       13    1    4    4    0    0 -2.08119513271E+01  2.17968993237E+01 -1.34449145329E+01  3.30002883169E+01  1.05660000000E-01  0.00000000000E+00  1.
      -14    1    4    4    0    0  6.10821319682E+00  2.98248382191E+00 -7.51414096451E+00  1.01325116649E+01  0.00000000000E+00  0.00000000000E+00  1.
       12    1    5    5    0    0  3.72995318543E+01 -4.18045629905E+01 -3.55421687125E+01  6.63484915686E+01  0.00000000000E+00  0.00000000000E+00  1.
      -11    1    5    5    0    0 -2.25957937241E+01  1.70251798449E+01 -1.52327443266E+00  2.83327903326E+01  5.10998856687E-04  0.00000000000E+00  1.
</event>
<event>
 9   0   1.0000000E+00   6.2499639E+01   7.8125000E-03   1.3828952E-01
       21   -1    0    0  501  502  0.00000000000E+00  0.00000000000E+00  3.24261891939E+01  3.24261891939E+01  0.00000000000E+00  0.00000000000E+00  1.
       21   -1    0    0  502  501  0.00000000000E+00  0.00000000000E+00 -1.20464504929E+02  1.20464504929E+02  0.00000000000E+00  0.00000000000E+00  1.
       25    2    1    2    0    0  0.00000000000E+00 -7.10542735760E-15 -8.80383157347E+01  1.52890694123E+02  1.24999277245E+02  0.00000000000E+00  1.
       24    2    3    3    0    0  8.91070242277E+00  1.41190280975E+01 -8.51061673913E+01  1.17699342754E+02  7.95696423559E+01  0.00000000000E+00  1.
      -24    2    3    3    0    0 -8.91070242277E+00 -1.41190280975E+01 -2.93214834345E+00  3.51913513684E+01  3.08396845824E+01  0.00000000000E+00  1.
       14    1    4    4    0    0 -2.57189400742E+01 -1.96156061873E+01 -2.71775431772E+01  4.22475412040E+01  0.00000000000E+00  0.00000000000E+00  1.
      -13    1    4    4    0    0  3.46296424969E+01  3.37346342848E+01 -5.79286242141E+01  7.54518015502E+01  1.05660000006E-01  0.00000000000E+00  1.
       13    1    5    5    0    0  1.04083227070E+01  1.09782137967E+00 -1.26362083218E+00  1.05425943200E+01  1.05660000002E-01  0.00000000000E+00  1.
      -14    1    5    5    0    0 -1.93190251297E+01 -1.52168494772E+01 -1.66852751127E+00  2.46487570484E+01  0.00000000000E+00  0.00000000000E+00  1.
</event>
<event>
 9   0   1.0000000E+00   6.2501254E+01   7.8125000E-03   1.3828892E-01
       21   -1    0    0  501  502  0.00000000000E+00  0.00000000000E+00  1.63934598816E+01  1.63934598816E+01  0.00000000000E+00  0.00000000000E+00  1.
       21   -1    0    0  502  501  0.00000000000E+00  0.00000000000E+00 -2.38290564052E+02  2.38290564052E+02  0.00000000000E+00  0.00000000000E+00  1.
       25    2    1    2    0    0 -3.55271367880E-15  5.55111512313E-16 -2.21897104171E+02  2.54684023934E+02  1.25002508806E+02  0.00000000000E+00  1.
      -24    2    3    3    0    0  1.94209347856E+01  6.40878748755E-01 -9.86934766909E+01  1.06388449709E+02  3.46484697594E+01  0.00000000000E+00  1.
       24    2    3    3    0    0 -1.94209347856E+01 -6.40878748755E-01 -1.23203627480E+02  1.48295574225E+02  8.02175796005E+01  0.00000000000E+00  1.
        1    1    4    4  803    0  9.93854619424E+00 -1.66887937556E+01 -4.01451104237E+01  4.45973141389E+01  0.00000000000E+00  0.00000000000E+00  1.
       -2    1    4    4    0  803  9.48238859138E+00  1.73296725044E+01 -5.85483662672E+01  6.17911355703E+01  0.00000000000E+00  0.00000000000E+00  1.
        4    1    5    5  804    0  1.97199740697E+01 -6.69604664697E-01 -1.01764748210E+02  1.03667812511E+02  1.27500000000E+00  0.00000000000E+00  1.
       -3    1    5    5    0  804 -3.91409088553E+01  2.87259159424E-02 -2.14388792703E+01  4.46277617136E+01  1.09257118582E-06  0.00000000000E+00  1.
</event>
<event>
 9   0   1.0000000E+00   6.2504250E+01   7.8125000E-03   1.3828780E-01
       21   -1    0    0  501  502  0.00000000000E+00  0.00000000000E+00  7.65904281679E+02  7.65904281679E+02  0.00000000000E+00  0.00000000000E+00  1.
       21   -1    0    0  502  501  0.00000000000E+00  0.00000000000E+00 -5.10087401503E+00  5.10087401503E+00  0.00000000000E+00  0.00000000000E+00  1.
       25    2    1    2    0    0 -3.55271367880E-15  8.88178419700E-16  7.60803407664E+02  7.71005155694E+02  1.25008499686E+02  0.00000000000E+00  1.
      -24    2    3    3    0    0  8.36708774171E-01 -3.21082576545E+00  6.29496005418E+02  6.34496995727E+02  7.94368130418E+01  0.00000000000E+00  1.
       24    2    3    3    0    0 -8.36708774171E-01  3.21082576545E+00  1.31307402247E+02  1.36508159967E+02  3.71730328225E+01  0.00000000000E+00  1.
       13    1    4    4    0    0  2.12330319964E+01 -1.55770470373E+01  5.66886841996E+02  5.67498183992E+02  1.05659999952E-01  0.00000000000E+00  1.
      -14    1    4    4    0    0 -2.03963232222E+01  1.23662212719E+01  6.26091634216E+01  6.69988117349E+01  1.26878115613E-05  0.00000000000E+00  1.
        4    1    5    5  804    0 -1.68631777286E+01  8.53413555731E+00  5.00556903612E+01  5.35200522735E+01  1.27500000000E+00  0.00000000000E+00  1.
       -3    1    5    5    0  804  1.60264689544E+01 -5.32330979186E+00  8.12517118853E+01  8.29881076937E+01  1.34869915235E-06  0.00000000000E+00  1.
</event>
<event>
 9   0   1.0000000E+00   6.2500546E+01   7.8125000E-03   1.3828918E-01
       21   -1    0    0  501  502  0.00000000000E+00  0.00000000000E+00  8.88624001073E+00  8.88624001073E+00  0.00000000000E+00  0.00000000000E+00  1.
       21   -1    0    0  502  501  0.00000000000E+00  0.00000000000E+00 -4.39591803854E+02  4.39591803854E+02  0.00000000000E+00  0.00000000000E+00  1.
       25    2    1    2    0    0 -8.88178419700E-16 -1.77635683940E-15 -4.30705563844E+02  4.48478043865E+02  1.25001092408E+02  0.00000000000E+00  1.
       24    2    3    3    0    0 -3.24936566639E+00  4.72905481253E+00 -2.40574326445E+02  2.53248955927E+02  7.89056702469E+01  0.00000000000E+00  1.
      -24    2    3    3    0    0  3.24936566639E+00 -4.72905481253E+00 -1.90131237399E+02  1.95229087938E+02  4.39498237273E+01  0.00000000000E+00  1.
        2    1    4    4  803    0 -1.09590279420E+01 -7.90177252536E+00 -1.36176415088E+00  1.35791275154E+01  3.61769997422E-06  0.00000000000E+00  1.
       -3    1    4    4    0  803  7.70966227564E+00  1.26308273379E+01 -2.39212562294E+02  2.39669828411E+02  4.67203091199E-06  0.00000000000E+00  1.
       15    1    5    5    0    0 -6.84683577681E+00 -1.92370739778E+00 -1.81514690882E+02  1.81662653934E+02  1.77680000000E+00  0.00000000000E+00  1.
      -16    1    5    5    0    0  1.00962014432E+01 -2.80534741476E+00 -8.61654651720E+00  1.35664340039E+01  3.52625833935E-06  0.00000000000E+00  1.
</event>
<event>
 9   0   1.0000000E+00   6.2500582E+01   7.8125000E-03   1.3828917E-01
       21   -1    0    0  501  502  0.00000000000E+00  0.00000000000E+00  1.10093444148E+03  1.10093444148E+03  0.00000000000E+00  0.00000000000E+00  1.
       21   -1    0    0  502  501  0.00000000000E+00  0.00000000000E+00 -3.54818837333E+00  3.54818837333E+00  0.00000000000E+00  0.00000000000E+00  1.
       25    2    1    2    0    0  0.00000000000E+00  7.10542735760E-15  1.09738625311E+03  1.10448262985E+03  1.25001164556E+02  0.00000000000E+00  1.
       24    2    3    3    0    0 -6.36640642759E+00  4.16070985327E+01  4.37559217931E+02  4.42108029870E+02  4.72203250793E+01  0.00000000000E+00  1.
      -24    2    3    3    0    0  6.36640642759E+00 -4.16070985327E+01  6.59827035177E+02  6.62374599984E+02  3.99588860508E+01  0.00000000000E+00  1.
       16    1    4    4    0    0 -1.78103718322E+00  5.08853794658E+01  3.13784717837E+02  3.17888884909E+02  5.39479660939E-06  0.00000000000E+00  1.
      -15    1    4    4    0    0 -4.58536924437E+00 -9.27828093304E+00  1.23774500093E+02  1.24219145061E+02  1.77680000001E+00  0.00000000000E+00  1.
        3    1    5    5  803    0 -8.09905031915E+00 -4.24365187535E+01  4.63235339419E+02  4.65245561426E+02  5.39479660939E-06  0.00000000000E+00  1.
       -4    1    5    5    0  803  1.44654567467E+01  8.29420220745E-01  1.96591695758E+02  1.97129038558E+02  1.27499999998E+00  0.00000000000E+00  1.
</event>
<event>
 9   0   1.0000000E+00   6.2500430E+01   7.8125000E-03   1.3828923E-01
       21   -1    0    0  501  502  0.00000000000E+00  0.00000000000E+00  2.41102332851E+01  2.41102332851E+01  0.00000000000E+00  0.00000000000E+00  1.
       21   -1    0    0  502  501  0.00000000000E+00  0.00000000000E+00 -1.62018494814E+02  1.62018494814E+02  0.00000000000E+00  0.00000000000E+00  1.
       25    2    1    2    0    0  3.55271367880E-15 -7.10542735760E-15 -1.37908261529E+02  1.86128728099E+02  1.25000859301E+02  0.00000000000E+00  1.
       24    2    3    3    0    0  2.72276806074E+01 -2.21750653849E+01 -1.09491303457E+02  1.38644074755E+02  7.74645326321E+01  0.00000000000E+00  1.
      -24    2    3    3    0    0 -2.72276806074E+01  2.21750653849E+01 -2.84169580720E+01  4.74846533441E+01  1.46351864034E+01  0.00000000000E+00  1.
       12    1    4    4    0    0 -1.31432293676E+01  1.79519006071E+01 -1.08401163323E+01  2.47492087896E+01  1.81574180266E-06  0.00000000000E+00  1.
      -11    1    4    4    0    0  4.03709099749E+01 -4.01269659920E+01 -9.86511871248E+01  1.13894865966E+02  5.11003937192E-04  0.00000000000E+00  1.
        3    1    5    5  804    0 -4.04031279234E+00  2.10631342553E+00  1.32557438011E+00  4.74529578560E+00  0.00000000000E+00  0.00000000000E+00  1.
       -4    1    5    5    0  804 -2.31873678150E+01  2.00687519594E+01 -2.97425324521E+01  4.27393576585E+01  1.27500000000E+00  0.00000000000E+00  1.
</event>
<event>
 9   0   1.0000000E+00   6.2500053E+01   7.8125000E-03   1.3828937E-01
       21   -1    0    0  501  502  0.00000000000E+00  0.00000000000E+00  3.98116678359E+02  3.98116678359E+02  0.00000000000E+00  0.00000000000E+00  1.
       21   -1    0    0  502  501  0.00000000000E+00  0.00000000000E+00 -9.81183879904E+00  9.81183879904E+00  0.00000000000E+00  0.00000000000E+00  1.
       25    2    1    2    0    0  1.24344978758E-14  0.00000000000E+00  3.88304839560E+02  4.07928517159E+02  1.25000106740E+02  0.00000000000E+00  1.
       24    2    3    3    0    0 -9.71608246556E+00 -2.17088532764E+01  2.49784400835E+02  2.56383018930E+02  5.26718988273E+01  0.00000000000E+00  1.
      -24    2    3    3    0    0  9.71608246556E+00  2.17088532764E+01  1.38520438726E+02  1.51545498229E+02  5.66784749231E+01  0.00000000000E+00  1.
        4    1    4    4  803    0 -1.62283898152E+01 -1.90479858554E+01  4.52207305051E+01  5.16984186756E+01  1.27500000000E+00  0.00000000000E+00  1.
       -3    1    4    4    0  803  6.51230734968E+00 -2.66086742109E+00  2.04563670330E+02  2.04684600254E+02  3.81469726562E-06  0.00000000000E+00  1.
        3    1    5    5  804    0  2.78223086431E+01  5.41037392249E-02  9.98382444788E+01  1.03642456874E+02  1.90734863281E-06  0.00000000000E+00  1.
       -4    1    5    5    0  804 -1.81062261775E+01  2.16547495372E+01  3.86821942469E+01  4.79030414553E+01  1.27500000000E+00  0.00000000000E+00  1.
</event>
<event>
 9   0   1.0000000E+00   6.2500704E+01   7.8125000E-03   1.3828912E-01
       21   -1    0    0  501  502  0.00000000000E+00  0.00000000000E+00  2.94301426833E+02  2.94301426833E+02  0.00000000000E+00  0.00000000000E+00  1.
       21   -1    0    0  502  501  0.00000000000E+00  0.00000000000E+00 -1.32732552388E+01  1.32732552388E+01  0.00000000000E+00  0.00000000000E+00  1.
       25    2    1    2    0    0  0.00000000000E+00  7.10542735760E-15  2.81028171594E+02  3.07574682071E+02  1.25001407280E+02  0.00000000000E+00  1.
       24    2    3    3    0    0 -7.44337542777E+00  1.63497700327E+01  1.98707790124E+02  2.15096892381E+02  8.03689519521E+01  0.00000000000E+00  1.
      -24    2    3    3    0    0  7.44337542777E+00 -1.63497700327E+01  8.23203814693E+01  9.24777896904E+01  3.81153192679E+01  0.00000000000E+00  1.
       16    1    4    4    0    0  8.48793905202E+00 -1.84327295769E+01  1.57645346529E+02  1.58946110185E+02  2.69739830470E-06  0.00000000000E+00  1.
      -15    1    4    4    0    0 -1.59313144798E+01  3.47824996096E+01  4.10624435959E+01  5.61507822960E+01  1.77680000000E+00  0.00000000000E+00  1.
        1    1    5    5  803    0  1.10361818157E+01 -4.13190892476E+00  3.02515241178E+00  1.21664098051E+01  0.00000000000E+00  0.00000000000E+00  1.
       -2    1    5    5    0  803 -3.59280638796E+00 -1.22178611079E+01  7.92952290575E+01  8.03113798853E+01  0.00000000000E+00  0.00000000000E+00  1.
</event>
<event>
 9   0   1.0000000E+00   6.2500256E+01   7.8125000E-03   1.3828929E-01
       21   -1    0    0  501  502  0.00000000000E+00  0.00000000000E+00  9.23965270530E+01  9.23965270530E+01  0.00000000000E+00  0.00000000000E+00  1.
       21   -1    0    0  502  501  0.00000000000E+00  0.00000000000E+00 -4.22773679990E+01  4.22773679990E+01  0.00000000000E+00  0.00000000000E+00  1.
       25    2    1    2    0    0  0.00000000000E+00  1.77635683940E-15  5.01191590541E+01  1.34673895052E+02  1.25000511616E+02  0.00000000000E+00  1.
      -24    2    3    3    0    0 -3.41729846474E+01  1.67932197139E+00  3.37296106893E+01  9.29245086446E+01  7.95403335899E+01  0.00000000000E+00  1.
       24    2    3    3    0    0  3.41729846474E+01 -1.67932197139E+00  1.63895483648E+01  4.17493864074E+01  1.74293134631E+01  0.00000000000E+00  1.
        1    1    4    4  803    0  5.26705784229E+00 -3.33295784010E+01  1.54241212538E+01  3.71012966236E+01  1.98761606223E-06  0.00000000000E+00  1.
       -2    1    4    4    0  803 -3.94400424897E+01  3.50089003723E+01  1.83054894354E+01  5.58232120210E+01  1.59936044991E-06  0.00000000000E+00  1.
        4    1    5    5  804    0  7.22543144519E+00  1.61627263378E+00  1.21310448111E+01  1.42690949259E+01  1.27500000000E+00  0.00000000000E+00  1.
       -3    1    5    5    0  804  2.69475532022E+01 -3.29559460517E+00  4.25850355367E+00  2.74802915814E+01  0.00000000000E+00  0.00000000000E+00  1.
</event>
<event>
 9   0   1.0000000E+00   6.2501324E+01   7.8125000E-03   1.3828889E-01
       21   -1    0    0  501  502  0.00000000000E+00  0.00000000000E+00  2.48894376987E+02  2.48894376987E+02  0.00000000000E+00  0.00000000000E+00  1.
       21   -1    0    0  502  501  0.00000000000E+00  0.00000000000E+00 -1.56950732778E+01  1.56950732778E+01  0.00000000000E+00  0.00000000000E+00  1.
       25    2    1    2    0    0 -3.55271367880E-15  2.88657986403E-15  2.33199303710E+02  2.64589450265E+02  1.25002647736E+02  0.00000000000E+00  1.
      -24    2    3    3    0    0 -1.08699057472E+01  1.60919109484E+00  5.17330971535E+01  6.63184753237E+01  4.00135287277E+01  0.00000000000E+00  1.
       24    2    3    3    0    0  1.08699057472E+01 -1.60919109484E+00  1.81466206556E+02  1.98270974942E+02  7.91242758918E+01  0.00000000000E+00  1.
        1    1    4    4  803    0 -1.85468982477E+01  2.95024490912E+00  5.69379649570E+00  1.96242375182E+01  0.00000000000E+00  0.00000000000E+00  1.
       -2    1    4    4    0  803  7.67699250050E+00 -1.34105381428E+00  4.60393006578E+01  4.66942378055E+01  0.00000000000E+00  0.00000000000E+00  1.
       16    1    5    5    0    0  1.90919975623E+01 -3.39932115435E+01  1.38098672033E+02  1.43496641143E+02  0.00000000000E+00  0.00000000000E+00  1.
      -15    1    5    5    0    0 -8.22209181505E+00  3.23840204487E+01  4.33675345231E+01  5.47743337987E+01  1.77680000000E+00  0.00000000000E+00  1.
</event>
<event>
 9   0   1.0000000E+00   6.2502600E+01   7.8125000E-03   1.3828842E-01
       21   -1    0    0  501  502  0.00000000000E+00  0.00000000000E+00  4.29193011389E+02  4.29193011389E+02  0.00000000000E+00  0.00000000000E+00  1.
       21   -1    0    0  502  501  0.00000000000E+00  0.00000000000E+00 -9.10214031732E+00  9.10214031732E+00  0.00000000000E+00  0.00000000000E+00  1.
       25    2    1    2    0    0 -8.88178419700E-16 -2.66453525910E-15  4.20090871072E+02  4.38295151706E+02  1.25005200098E+02  0.00000000000E+00  1.
       24    2    3    3    0    0  6.80893284106E+00  6.81975769630E+00  2.03318041602E+02  2.19339482528E+02  8.17233864544E+01  0.00000000000E+00  1.
      -24    2    3    3    0    0 -6.80893284106E+00 -6.81975769630E+00  2.16772829470E+02  2.18955669178E+02  2.92959861976E+01  0.00000000000E+00  1.
       16    1    4    4    0    0  2.15941879363E+01 -1.52500834525E+01  1.76833165670E+01  3.18052461513E+01  1.70264921869E-06  0.00000000000E+00  1.
      -15    1    4    4    0    0 -1.47852550952E+01  2.20698411488E+01  1.85634725035E+02  1.87534236377E+02  1.77680000000E+00  0.00000000000E+00  1.
        3    1    5    5  804    0  9.87444942773E-01  5.04688627567E+00  1.69549950859E+02  1.69627922067E+02  0.00000000000E+00  0.00000000000E+00  1.
       -4    1    5    5    0  804 -7.79637778384E+00 -1.18666439720E+01  4.72228786112E+01  4.93277471109E+01  1.27500000000E+00  0.00000000000E+00  1.
</event>
<event>
 9   0   1.0000000E+00   6.2500783E+01   7.8125000E-03   1.3828909E-01
       21   -1    0    0  501  502  0.00000000000E+00  0.00000000000E+00  3.01430959962E+02  3.01430959962E+02  0.00000000000E+00  0.00000000000E+00  1.
       21   -1    0    0  502  501  0.00000000000E+00  0.00000000000E+00 -1.29593450982E+01  1.29593450982E+01  0.00000000000E+00  0.00000000000E+00  1.
       25    2    1    2    0    0 -1.77635683940E-15 -4.88498130835E-15  2.88471614863E+02  3.14390305060E+02  1.25001565325E+02  0.00000000000E+00  1.
       24    2    3    3    0    0  1.49815792429E+01 -2.65916628126E+00  1.38296202321E+02  1.60837175626E+02  8.06922462506E+01  0.00000000000E+00  1.
      -24    2    3    3    0    0 -1.49815792429E+01  2.65916628126E+00  1.50175412542E+02  1.53553129434E+02  2.81849276171E+01  0.00000000000E+00  1.
        2    1    4    4  803    0 -5.35012773899E+00  2.80244557361E+01  1.51416178347E+01  3.22995755891E+01  1.01152436426E-06  0.00000000000E+00  1.
       -1    1    4    4    0  803  2.03317069818E+01 -3.06836220173E+01  1.23154584487E+02  1.28537600137E+02  0.00000000000E+00  0.00000000000E+00  1.
       15    1    5    5    0    0 -2.32178433517E+01 -5.05076714699E-03  1.14338361518E+02  1.16685415576E+02  1.77680000000E+00  0.00000000000E+00  1.
      -16    1    5    5    0    0  8.23626410882E+00  2.66421704841E+00  3.58370510245E+01  3.68677139576E+01  1.58148993986E-06  0.00000000000E+00  1.
</event>
<event>
 9   0   1.0000000E+00   6.2500290E+01   7.8125000E-03   1.3828928E-01
       21   -1    0    0  501  502  0.00000000000E+00  0.00000000000E+00  1.88214398136E+02  1.88214398136E+02  0.00000000000E+00  0.00000000000E+00  1.
       21   -1    0    0  502  501  0.00000000000E+00  0.00000000000E+00 -2.07544499005E+01  2.07544499005E+01  0.00000000000E+00  0.00000000000E+00  1.
       25    2    1    2    0    0 -5.32907051820E-15  0.00000000000E+00  1.67459948236E+02  2.08968848037E+02  1.25000580746E+02  0.00000000000E+00  1.
       24    2    3    3    0    0  1.13106598389E+01 -1.55325663716E+01  8.87537086744E+01  1.20640847115E+02  7.94216692420E+01  0.00000000000E+00  1.
      -24    2    3    3    0    0 -1.13106598389E+01  1.55325663716E+01  7.87062395614E+01  8.83280009215E+01  3.51848256612E+01  0.00000000000E+00  1.
        4    1    4    4  804    0 -1.41785166122E+01 -3.98073517017E+01  2.89199460871E+01  5.12215236937E+01  1.27500000000E+00  0.00000000000E+00  1.
       -1    1    4    4    0  804  2.54891764510E+01  2.42747853301E+01  5.98337625874E+01  6.94193234217E+01  0.00000000000E+00  0.00000000000E+00  1.
       13    1    5    5    0    0  7.61067183115E+00  1.79145864886E+01  5.19023161490E+01  5.54320874624E+01  1.05660000002E-01  0.00000000000E+00  1.
      -14    1    5    5    0    0 -1.89213316700E+01 -2.38202011705E+00  2.68039234125E+01  3.28959134591E+01  0.00000000000E+00  0.00000000000E+00  1.
</event>
<event>
 9   0   1.0000000E+00   6.2498203E+01   7.8125000E-03   1.3829006E-01
       21   -1    0    0  501  502  0.00000000000E+00  0.00000000000E+00  1.28627236844E+01  1.28627236844E+01  0.00000000000E+00  0.00000000000E+00  1.
       21   -1    0    0  502  501  0.00000000000E+00  0.00000000000E+00 -3.03670166328E+02  3.03670166328E+02  0.00000000000E+00  0.00000000000E+00  1.
       25    2    1    2    0    0  5.32907051820E-15  1.77635683940E-15 -2.90807442644E+02  3.16532890013E+02  1.24996406999E+02  0.00000000000E+00  1.
      -24    2    3    3    0    0 -1.03193538195E+01 -1.01583723956E+01 -1.50695983540E+02  1.53468078668E+02  2.51692296664E+01  0.00000000000E+00  1.
       24    2    3    3    0    0  1.03193538195E+01  1.01583723956E+01 -1.40111459104E+02  1.63064811344E+02  8.21536982349E+01  0.00000000000E+00  1.
        3    1    4    4  803    0 -1.21920360432E+01 -5.83299030223E+00 -3.28598032891E+01  3.55307781796E+01  1.43051147461E-06  0.00000000000E+00  1.
       -4    1    4    4    0  803  1.87268222374E+00 -4.32538209332E+00 -1.17836180251E+02  1.17937300589E+02  1.27500000000E+00  0.00000000000E+00  1.
        4    1    5    5  804    0  8.88762300590E+00 -3.73578534490E-01 -1.48962447112E+02  1.49233259290E+02  1.27500000000E+00  0.00000000000E+00  1.
       -3    1    5    5    0  804  1.43173081359E+00  1.05319509300E+01  8.85098800846E+00  1.38315521547E+01  2.92731026597E-06  0.00000000000E+00  1.
</event>
<event>
 9   0   1.0000000E+00   6.2499992E+01   7.8125000E-03   1.3828939E-01
       21   -1    0    0  501  502  0.00000000000E+00  0.00000000000E+00  6.72338036945E+01  6.72338036945E+01  0.00000000000E+00  0.00000000000E+00  1.
       21   -1    0    0  502  501  0.00000000000E+00  0.00000000000E+00 -5.80994790594E+01  5.80994790594E+01  0.00000000000E+00  0.00000000000E+00  1.
       25    2    1    2    0    0 -1.77635683940E-15  0.00000000000E+00  9.13432463512E+00  1.25333282754E+02  1.24999983517E+02  0.00000000000E+00  1.
      -24    2    3    3    0    0  8.27613054501E-01 -3.55204464939E+01  3.39876722204E+01  6.87243190106E+01  4.80154464523E+01  0.00000000000E+00  1.
       24    2    3    3    0    0 -8.27613054501E-01  3.55204464939E+01 -2.48533475853E+01  5.66089637433E+01  3.63936646601E+01  0.00000000000E+00  1.
       11    1    4    4    0    0  8.35942969776E+00 -3.76044723708E+01  4.23699567414E+01  5.72642090812E+01  5.11002157370E-04  0.00000000000E+00  1.
      -12    1    4    4    0    0 -7.53181664326E+00  2.08402587691E+00 -8.38228452102E+00  1.14601099294E+01  0.00000000000E+00  0.00000000000E+00  1.
        2    1    5    5  803    0  9.90101892914E+00  3.20833120936E+01 -5.22930428154E+00  3.39810935786E+01  0.00000000000E+00  0.00000000000E+00  1.
       -1    1    5    5    0  803 -1.07286319836E+01  3.43713440028E+00 -1.96240433038E+01  2.26278703646E+01  0.00000000000E+00  0.00000000000E+00  1.
</event>
<event>
 9   0   1.0000000E+00   6.2504802E+01   7.8125000E-03   1.3828759E-01
       21   -1    0    0  501  502  0.00000000000E+00  0.00000000000E+00  4.34804317626E+02  4.34804317626E+02  0.00000000000E+00  0.00000000000E+00  1.
       21   -1    0    0  502  501  0.00000000000E+00  0.00000000000E+00 -8.98530687294E+00  8.98530687294E+00  0.00000000000E+00  0.00000000000E+00  1.
       25    2    1    2    0    0  0.00000000000E+00 -7.10542735760E-15  4.25819010753E+02  4.43789624499E+02  1.25009603208E+02  0.00000000000E+00  1.
      -24    2    3    3    0    0 -8.77384502339E+00 -7.28462540821E+00  2.65974400725E+02  2.66833472837E+02  1.81017750873E+01  0.00000000000E+00  1.
       24    2    3    3    0    0  8.77384502339E+00  7.28462540821E+00  1.59844610028E+02  1.76956151662E+02  7.50542079581E+01  0.00000000000E+00  1.
        1    1    4    4  803    0 -9.51787761218E+00 -8.52860125179E+00  2.62851978343E+02  2.63162477478E+02  0.00000000000E+00  0.00000000000E+00  1.
       -4    1    4    4    0  803  7.44032588785E-01  1.24397584358E+00  3.12242238194E+00  3.67099535873E+00  1.27500000000E+00  0.00000000000E+00  1.
        4    1    5    5  804    0  3.23542217598E+01 -1.18060193126E+01  3.76114114732E+01  5.10139358970E+01  1.27500000000E+00  0.00000000000E+00  1.
       -3    1    5    5    0  804 -2.35803767364E+01  1.90906447208E+01  1.22233198555E+02  1.25942215865E+02  2.33601545599E-06  0.00000000000E+00  1.
</event>
<event>
 9   0   1.0000000E+00   6.2499816E+01   7.8125000E-03   1.3828945E-01
       21   -1    0    0  501  502  0.00000000000E+00  0.00000000000E+00  8.11619810107E+00  8.11619810107E+00  0.00000000000E+00  0.00000000000E+00  1.
       21   -1    0    0  502  501  0.00000000000E+00  0.00000000000E+00 -4.81287784173E+02  4.81287784173E+02  0.00000000000E+00  0.00000000000E+00  1.
       25    2    1    2    0    0 -3.55271367880E-15 -7.10542735760E-15 -4.73171586071E+02  4.89403982274E+02  1.24999631999E+02  0.00000000000E+00  1.
       24    2    3    3    0    0 -2.15532730568E+01  2.40160193281E+00 -3.00789503777E+02  3.11905385793E+02  7.96262069487E+01  0.00000000000E+00  1.
      -24    2    3    3    0    0  2.15532730568E+01 -2.40160193281E+00 -1.72382082295E+02  1.77498596481E+02  3.63298525329E+01  0.00000000000E+00  1.
       12    1    4    4    0    0 -4.59229206312E+01  1.09694343885E+01 -2.54979689754E+02  2.59314259764E+02  3.81469726562E-06  0.00000000000E+00  1.
      -11    1    4    4    0    0  2.43696475744E+01 -8.56783245569E+00 -4.58098140230E+01  5.25911260287E+01  5.11003047282E-04  0.00000000000E+00  1.
       15    1    5    5    0    0  1.56015618437E+01 -1.89566314741E+01 -9.43725899014E+01  9.75300228225E+01  1.77680000000E+00  0.00000000000E+00  1.
      -16    1    5    5    0    0  5.95171121306E+00  1.65550295413E+01 -7.80094923932E+01  7.99685736582E+01  1.34869915235E-06  0.00000000000E+00  1.
</event>
<event>
 9   0   1.0000000E+00   6.2499184E+01   7.8125000E-03   1.3828969E-01
       21   -1    0    0  501  502  0.00000000000E+00  0.00000000000E+00  9.11311297037E+01  9.11311297037E+01  0.00000000000E+00  0.00000000000E+00  1.
       21   -1    0    0  502  501  0.00000000000E+00  0.00000000000E+00 -4.28629378549E+01  4.28629378549E+01  0.00000000000E+00  0.00000000000E+00  1.
       25    2    1    2    0    0 -1.77635683940E-15 -5.32907051820E-15  4.82681918487E+01  1.33994067559E+02  1.24998367176E+02  0.00000000000E+00  1.
       24    2    3    3    0    0 -1.54411202647E+01  1.02174113925E+01  3.59134732480E+01  5.20096488356E+01  3.27475544228E+01  0.00000000000E+00  1.
      -24    2    3    3    0    0  1.54411202647E+01 -1.02174113925E+01  1.23547186008E+01  8.19844187230E+01  7.89048930743E+01  0.00000000000E+00  1.
       12    1    4    4    0    0 -5.89828781983E+00  1.88946288054E+01  8.16834370285E+00  2.14130482591E+01  0.00000000000E+00  0.00000000000E+00  1.
      -11    1    4    4    0    0 -9.54283244486E+00 -8.67721741282E+00  2.77451295451E+01  3.05966005765E+01  5.11000266302E-04  0.00000000000E+00  1.
       11    1    5    5    0    0 -7.11680622956E+00 -4.16384258832E+01  8.73066666038E+00  4.31350435439E+01  5.11000627830E-04  0.00000000000E+00  1.
      -12    1    5    5    0    0  2.25579264943E+01  3.14210144907E+01  3.62405194037E+00  3.88493751791E+01  1.13091861969E-06  0.00000000000E+00  1.
</event>
<event>
 9   0   1.0000000E+00   6.2494065E+01   7.8125000E-03   1.3829160E-01
       21   -1    0    0  501  502  0.00000000000E+00  0.00000000000E+00  2.18712556353E+01  2.18712556353E+01  0.00000000000E+00  0.00000000000E+00  1.
       21   -1    0    0  502  501  0.00000000000E+00  0.00000000000E+00 -1.78568079162E+02  1.78568079162E+02  0.00000000000E+00  0.00000000000E+00  1.
       25    2    1    2    0    0 -1.77635683940E-15  6.21724893790E-15 -1.56696823527E+02  2.00439334798E+02  1.24988129159E+02  0.00000000000E+00  1.
       24    2    3    3    0    0  1.51890288120E+01 -2.40670567957E+00 -1.37599693714E+02  1.58894436763E+02  7.79568309732E+01  0.00000000000E+00  1.
      -24    2    3    3    0    0 -1.51890288120E+01  2.40670567957E+00 -1.90971298127E+01  4.15448980350E+01  3.35377303521E+01  0.00000000000E+00  1.
        2    1    4    4  804    0  1.05216747182E+01 -2.49964327470E+01 -1.32530712531E+02  1.35277186103E+02  1.90734863281E-06  0.00000000000E+00  1.
       -1    1    4    4    0  804  4.66735409388E+00  2.25897270675E+01 -5.06898118374E+00  2.36172508600E+01  2.22701331285E-06  0.00000000000E+00  1.
       13    1    5    5    0    0 -7.64018458249E+00 -6.87072814478E+00  7.27294236466E+00  1.25891294524E+01  1.05660000000E-01  0.00000000000E+00  1.
      -14    1    5    5    0    0 -7.54884422954E+00  9.27743382435E+00 -2.63700721774E+01  2.89557685826E+01  0.00000000000E+00  0.00000000000E+00  1.
</event>
<event>
 9   0   1.0000000E+00   6.2499562E+01   7.8125000E-03   1.3828955E-01
       21   -1    0    0  501  502  0.00000000000E+00  0.00000000000E+00  3.15465429361E+01  3.15465429361E+01  0.00000000000E+00  0.00000000000E+00  1.
       21   -1    0    0  502  501  0.00000000000E+00  0.00000000000E+00 -1.23823242476E+02  1.23823242476E+02  0.00000000000E+00  0.00000000000E+00  1.
       25    2    1    2    0    0 -1.77635683940E-15  0.00000000000E+00 -9.22766995400E+01  1.55369785412E+02  1.24999123761E+02  0.00000000000E+00  1.
       24    2    3    3    0    0 -1.72997302037E+00  9.27202265777E+00 -4.14257899028E+01  5.96428552355E+01  4.18594183041E+01  0.00000000000E+00  1.
      -24    2    3    3    0    0  1.72997302037E+00 -9.27202265777E+00 -5.08509096372E+01  9.57269301766E+01  8.05535035817E+01  0.00000000000E+00  1.
       16    1    4    4    0    0  1.09344202470E+01  2.11307435419E+01 -1.54965908572E+01  2.83939112658E+01  0.00000000000E+00  0.00000000000E+00  1.
      -15    1    4    4    0    0 -1.26643932673E+01 -1.18587208842E+01 -2.59291990456E+01  3.12489439697E+01  1.77680000000E+00  0.00000000000E+00  1.
        3    1    5    5  804    0 -3.13055226489E+01 -6.49004602278E+00  3.38334758999E+00  3.21497044005E+01  0.00000000000E+00  0.00000000000E+00  1.
       -4    1    5    5    0  804  3.30354956693E+01 -2.78197663499E+00 -5.42342572272E+01  6.35772258761E+01  1.27500000000E+00  0.00000000000E+00  1.
</event>
<event>
 9   0   1.0000000E+00   6.2498696E+01   7.8125000E-03   1.3828987E-01
       21   -1    0    0  501  502  0.00000000000E+00  0.00000000000E+00  3.93243181445E+02  3.93243181445E+02  0.00000000000E+00  0.00000000000E+00  1.
       21   -1    0    0  502  501  0.00000000000E+00  0.00000000000E+00 -9.93300625925E+00  9.93300625925E+00  0.00000000000E+00  0.00000000000E+00  1.
       25    2    1    2    0    0  0.00000000000E+00 -3.55271367880E-15  3.83310175186E+02  4.03176187705E+02  1.24997391696E+02  0.00000000000E+00  1.
       24    2    3    3    0    0  1.24925427203E+01  2.11751798454E+01  2.15648259346E+02  2.29147910723E+02  7.34856541395E+01  0.00000000000E+00  1.
      -24    2    3    3    0    0 -1.24925427203E+01 -2.11751798454E+01  1.67661915840E+02  1.74028276982E+02  3.96342188162E+01  0.00000000000E+00  1.
        4    1    4    4  804    0 -1.94862243417E+01 -6.37299899678E+00  1.47952013198E+02  1.49371188285E+02  1.27500000000E+00  0.00000000000E+00  1.
       -3    1    4    4    0  804  3.19787670619E+01  2.75481788422E+01  6.76962461486E+01  7.97767224379E+01  0.00000000000E+00  0.00000000000E+00  1.
       15    1    5    5    0    0  1.08587063444E+01  2.34771505027E+00  2.28253704712E+01  2.54475504680E+01  1.77680000000E+00  0.00000000000E+00  1.
      -16    1    5    5    0    0 -2.33512490647E+01 -2.35228948957E+01  1.44836545368E+02  1.48580726614E+02  3.30362473978E-06  0.00000000000E+00  1.
</event>
<event>
 9   0   1.0000000E+00   6.2499732E+01   7.8125000E-03   1.3828949E-01
       21   -1    0    0  501  502  0.00000000000E+00  0.00000000000E+00  1.08095663102E+02  1.08095663102E+02  0.00000000000E+00  0.00000000000E+00  1.
       21   -1    0    0  502  501  0.00000000000E+00  0.00000000000E+00 -3.61366629507E+01  3.61366629507E+01  0.00000000000E+00  0.00000000000E+00  1.
       25    2    1    2    0    0  0.00000000000E+00  1.77635683940E-15  7.19590001512E+01  1.44232326053E+02  1.24999464702E+02  0.00000000000E+00  1.
      -24    2    3    3    0    0  1.65194513492E+00 -1.35787749241E+01  2.82130004734E+01  5.30641682208E+01  4.28102850035E+01  0.00000000000E+00  1.
       24    2    3    3    0    0 -1.65194513492E+00  1.35787749241E+01  4.37459996777E+01  9.11681578318E+01  7.88086826655E+01  0.00000000000E+00  1.
        1    1    4    4  803    0  1.04729718415E+01  1.04063021255E+01 -3.10023047853E-01  1.47672061477E+01  0.00000000000E+00  0.00000000000E+00  1.
       -2    1    4    4    0  803 -8.82102670658E+00 -2.39850770496E+01  2.85230235213E+01  3.82969620731E+01  0.00000000000E+00  0.00000000000E+00  1.
        2    1    5    5  804    0 -3.67594899100E+01  1.40582072189E+01  3.95709609582E+01  5.58099833346E+01  0.00000000000E+00  0.00000000000E+00  1.
       -1    1    5    5    0  804  3.51075447751E+01 -4.79432294838E-01  4.17503871954E+00  3.53581744972E+01  0.00000000000E+00  0.00000000000E+00  1.
</event>
<event>
 9   0   1.0000000E+00   6.2501949E+01   7.8125000E-03   1.3828866E-01
       21   -1    0    0  501  502  0.00000000000E+00  0.00000000000E+00  5.40072132809E+01  5.40072132809E+01  0.00000000000E+00  0.00000000000E+00  1.
       21   -1    0    0  502  501  0.00000000000E+00  0.00000000000E+00 -7.23328120914E+01  7.23328120914E+01  0.00000000000E+00  0.00000000000E+00  1.
       25    2    1    2    0    0  0.00000000000E+00  3.55271367880E-15 -1.83255988106E+01  1.26340025372E+02  1.25003897696E+02  0.00000000000E+00  1.
       24    2    3    3    0    0 -2.53677450881E+00 -1.08907530882E+01 -4.15400740569E+01  8.94249357917E+01  7.83976891303E+01  0.00000000000E+00  1.
      -24    2    3    3    0    0  2.53677450881E+00  1.08907530882E+01  2.32144752463E+01  3.69150895805E+01  2.64342249752E+01  0.00000000000E+00  1.
        2    1    4    4  803    0  1.51180140329E+00 -1.69607170626E+01  2.06744520027E+01  2.67840332611E+01  0.00000000000E+00  0.00000000000E+00  1.
       -1    1    4    4    0  803 -4.04857591210E+00  6.06996397435E+00 -6.22145260596E+01  6.26409027307E+01  1.16800772800E-06  0.00000000000E+00  1.
       13    1    5    5    0    0 -9.83521478889E+00  8.62387480911E+00  2.00589641497E+01  2.39473562938E+01  1.05660000002E-01  0.00000000000E+00  1.
      -14    1    5    5    0    0  1.23719892977E+01  2.26687827910E+00  3.15551109658E+00  1.29677332867E+01  0.00000000000E+00  0.00000000000E+00  1.
</event>
<event>
 9   0   1.0000000E+00   6.2499890E+01   7.8125000E-03   1.3828943E-01
       21   -1    0    0  501  502  0.00000000000E+00  0.00000000000E+00  3.16555944103E+01  3.16555944103E+01  0.00000000000E+00  0.00000000000E+00  1.
       21   -1    0    0  502  501  0.00000000000E+00  0.00000000000E+00 -1.23397975822E+02  1.23397975822E+02  0.00000000000E+00  0.00000000000E+00  1.
       25    2    1    2    0    0  0.00000000000E+00  3.55271367880E-15 -9.17423814113E+01  1.55053570232E+02  1.24999780378E+02  0.00000000000E+00  1.
      -24    2    3    3    0    0 -4.72058629223E+00  1.59700316060E+01  8.02411620397E-01  3.07687893832E+01  2.58601757778E+01  0.00000000000E+00  1.
       24    2    3    3    0    0  4.72058629223E+00 -1.59700316060E+01 -9.25447930317E+01  1.24284780849E+02  8.12701801948E+01  0.00000000000E+00  1.
        1    1    4    4  804    0 -1.36081323214E+00  2.12118409988E+01 -5.45217613025E+00  2.19435694488E+01  0.00000000000E+00  0.00000000000E+00  1.
       -2    1    4    4    0  804 -3.35977306010E+00 -5.24180939275E+00  6.25458775065E+00  8.82522013441E+00  0.00000000000E+00  0.00000000000E+00  1.
        2    1    5    5  803    0 -1.71750995548E+01 -4.37438655766E+01 -6.00816752340E+01  7.62778967624E+01  0.00000000000E+00  0.00000000000E+00  1.
       -1    1    5    5    0  803  2.18956858470E+01  2.77738339706E+01 -3.24631177976E+01  4.80068841864E+01  1.26159253648E-06  0.00000000000E+00  1.
</event>
<event>
 9   0   1.0000000E+00   6.2499466E+01   7.8125000E-03   1.3828959E-01
       21   -1    0    0  501  502  0.00000000000E+00  0.00000000000E+00  2.30543243139E+02  2.30543243139E+02  0.00000000000E+00  0.00000000000E+00  1.
       21   -1    0    0  502  501  0.00000000000E+00  0.00000000000E+00 -1.69433864589E+01  1.69433864589E+01  0.00000000000E+00  0.00000000000E+00  1.
       25    2    1    2    0    0 -8.88178419700E-16 -3.55271367880E-15  2.13599856680E+02  2.47486629598E+02  1.24998932219E+02  0.00000000000E+00  1.
       24    2    3    3    0    0  3.13564596957E+00 -2.54065026163E+01  1.93736135127E+01  3.61821392355E+01  1.66879491934E+01  0.00000000000E+00  1.
      -24    2    3    3    0    0 -3.13564596957E+00  2.54065026163E+01  1.94226243167E+02  2.11304490362E+02  7.91860559790E+01  0.00000000000E+00  1.
       12    1    4    4    0    0 -1.11202086908E-01 -1.85320918624E+00 -3.00413673255E+00  3.53151351406E+00  0.00000000000E+00  0.00000000000E+00  1.
      -11    1    4    4    0    0  3.24684805648E+00 -2.35532934301E+01  2.23777502452E+01  3.26506257215E+01  5.10999988203E-04  0.00000000000E+00  1.
        1    1    5    5  804    0 -1.30744643677E+00 -2.02744300422E+01  1.34825230266E+02  1.36347367580E+02  1.90734863281E-06  0.00000000000E+00  1.
       -2    1    5    5    0  804 -1.82819953280E+00  4.56809326585E+01  5.94010129012E+01  7.49571228821E+01  1.16800772800E-06  0.00000000000E+00  1.
</event>
<event>
 9   0   1.0000000E+00   6.2499531E+01   7.8125000E-03   1.3828956E-01
       21   -1    0    0  501  502  0.00000000000E+00  0.00000000000E+00  2.45798030312E+02  2.45798030312E+02  0.00000000000E+00  0.00000000000E+00  1.
       21   -1    0    0  502  501  0.00000000000E+00  0.00000000000E+00 -1.58918742407E+01  1.58918742407E+01  0.00000000000E+00  0.00000000000E+00  1.
       25    2    1    2    0    0  0.00000000000E+00 -1.77635683940E-15  2.29906156071E+02  2.61689904553E+02  1.24999062178E+02  0.00000000000E+00  1.
      -24    2    3    3    0    0 -1.85911630066E+01  1.81968737034E+00  1.00557843436E+02  1.16128887611E+02  5.50008732387E+01  0.00000000000E+00  1.
       24    2    3    3    0    0  1.85911630066E+01 -1.81968737034E+00  1.29348312635E+02  1.45561016942E+02  6.40943138481E+01  0.00000000000E+00  1.
        1    1    4    4  803    0 -2.45562725489E+01 -1.13998200142E+01  9.76547785645E+01  1.01338157642E+02  1.90734863281E-06  0.00000000000E+00  1.
       -2    1    4    4    0  803  5.96510954231E+00  1.32195073845E+01  2.90306487181E+00  1.47907299682E+01  0.00000000000E+00  0.00000000000E+00  1.
       14    1    5    5    0    0  3.80758881475E+01 -1.45793664675E+01  1.00691231497E+02  1.08632662147E+02  1.90734863281E-06  0.00000000000E+00  1.
      -13    1    5    5    0    0 -1.94847251409E+01  1.27596790972E+01  2.86570811384E+01  3.69283547953E+01  1.05660000008E-01  0.00000000000E+00  1.
</event>
<event>
 9   0   1.0000000E+00   6.2498417E+01   7.8125000E-03   1.3828998E-01
       21   -1    0    0  501  502  0.00000000000E+00  0.00000000000E+00  1.09198308430E+01  1.09198308430E+01  0.00000000000E+00  0.00000000000E+00  1.
       21   -1    0    0  502  501  0.00000000000E+00  0.00000000000E+00 -3.57702616646E+02  3.57702616646E+02  0.00000000000E+00  0.00000000000E+00  1.
       25    2    1    2    0    0  1.77635683940E-15  0.00000000000E+00 -3.46782785803E+02  3.68622447489E+02  1.24996833014E+02  0.00000000000E+00  1.
       24    2    3    3    0    0 -6.15280001873E+00 -4.07821583619E+00 -1.46693340148E+02  1.60624786218E+02  6.50145915249E+01  0.00000000000E+00  1.
      -24    2    3    3    0    0  6.15280001873E+00  4.07821583619E+00 -2.00089445655E+02  2.07997661272E+02  5.63271873918E+01  0.00000000000E+00  1.
       12    1    4    4    0    0 -2.01665059045E+01 -2.68830598329E+01 -4.96241807205E+01  5.99328473422E+01  0.00000000000E+00  0.00000000000E+00  1.
      -11    1    4    4    0    0  1.40137058858E+01  2.28048439967E+01 -9.70691594277E+01  1.00691938975E+02  5.10995038018E-04  0.00000000000E+00  1.
        1    1    5    5  804    0 -1.53606069124E+01 -8.44165372899E+00 -1.58954758840E+02  1.59918182582E+02  1.90734863281E-06  0.00000000000E+00  1.
       -2    1    5    5    0  804  2.15134069311E+01  1.25198695652E+01 -4.11346868149E+01  4.80794786897E+01  2.13248059988E-06  0.00000000000E+00  1.
</event>
<event>
 9   0   1.0000000E+00   6.2500799E+01   7.8125000E-03   1.3828909E-01
       21   -1    0    0  501  502  0.00000000000E+00  0.00000000000E+00  2.36420088667E+03  2.36420088667E+03  0.00000000000E+00  0.00000000000E+00  1.
       21   -1    0    0  502  501  0.00000000000E+00  0.00000000000E+00 -1.65229183315E+00  1.65229183315E+00  0.00000000000E+00  0.00000000000E+00  1.
       25    2    1    2    0    0  1.77635683940E-15  0.00000000000E+00  2.36254859484E+03  2.36585317850E+03  1.25001597061E+02  0.00000000000E+00  1.
      -24    2    3    3    0    0  1.42604468381E+01  6.58205643166E-02  1.43493353452E+03  1.43716581818E+03  7.87907086691E+01  0.00000000000E+00  1.
       24    2    3    3    0    0 -1.42604468381E+01 -6.58205643166E-02  9.27615060317E+02  9.28687360325E+02  4.22746782937E+01  0.00000000000E+00  1.
        3    1    4    4  803    0  3.05452403265E+01 -1.93956214643E+01  3.36732036550E+02  3.38670439137E+02  1.00927402918E-05  0.00000000000E+00  1.
       -4    1    4    4    0  803 -1.62847934884E+01  1.94614420287E+01  1.09820149797E+03  1.09849537914E+03  1.27499999995E+00  0.00000000000E+00  1.
       16    1    5    5    0    0 -2.68026562524E+01 -9.65392527719E+00  5.47967747234E+02  5.48707784403E+02  0.00000000000E+00  0.00000000000E+00  1.
      -15    1    5    5    0    0  1.25422094143E+01  9.58810471287E+00  3.79647313083E+02  3.79979575923E+02  1.77680000001E+00  0.00000000000E+00  1.
</event>
<event>
 9   0   1.0000000E+00   6.2494210E+01   7.8125000E-03   1.3829155E-01
       21   -1    0    0  501  502  0.00000000000E+00  0.00000000000E+00  4.38769556142E+02  4.38769556142E+02  0.00000000000E+00  0.00000000000E+00  1.
       21   -1    0    0  502  501  0.00000000000E+00  0.00000000000E+00 -8.90108756813E+00  8.90108756813E+00  0.00000000000E+00  0.00000000000E+00  1.
       25    2    1    2    0    0 -8.88178419700E-16  3.55271367880E-15  4.29868468574E+02  4.47670643710E+02  1.24988419327E+02  0.00000000000E+00  1.
       24    2    3    3    0    0 -2.56705749989E+00 -2.18228931166E+01  2.01678415610E+02  2.05603174948E+02  3.34014038260E+01  0.00000000000E+00  1.
      -24    2    3    3    0    0  2.56705749989E+00  2.18228931166E+01  2.28190052964E+02  2.42067468762E+02  7.77375759403E+01  0.00000000000E+00  1.
       14    1    4    4    0    0 -1.75270180712E+00 -4.33901301963E+00  1.88578354136E+00  5.04531239608E+00  2.02458474926E-06  0.00000000000E+00  1.
      -13    1    4    4    0    0 -8.14355692776E-01 -1.74838800970E+01  1.99792632069E+02  2.00557862552E+02  1.05659999952E-01  0.00000000000E+00  1.
       15    1    5    5    0    0 -1.30612946165E+01  4.64451396915E+01  1.73444869538E+02  1.80038963020E+02  1.77680000000E+00  0.00000000000E+00  1.
      -16    1    5    5    0    0  1.56283521164E+01 -2.46222465749E+01  5.47451834258E+01  6.20285057421E+01  1.78416127528E-06  0.00000000000E+00  1.
</event>
<event>
 9   0   1.0000000E+00   6.2500427E+01   7.8125000E-03   1.3828923E-01
       21   -1    0    0  501  502  0.00000000000E+00  0.00000000000E+00  1.75131651838E+02  1.75131651838E+02  0.00000000000E+00  0.00000000000E+00  1.
       21   -1    0    0  502  501  0.00000000000E+00  0.00000000000E+00 -2.23049538729E+01  2.23049538729E+01  0.00000000000E+00  0.00000000000E+00  1.
       25    2    1    2    0    0  3.55271367880E-15 -3.55271367880E-15  1.52826697965E+02  1.97436605711E+02  1.25000854652E+02  0.00000000000E+00  1.
       24    2    3    3    0    0 -8.24101339136E+00  2.91976196642E+01  1.00618681850E+02  1.20917427278E+02  5.98037606383E+01  0.00000000000E+00  1.
      -24    2    3    3    0    0  8.24101339136E+00 -2.91976196642E+01  5.22080161145E+01  7.65191784325E+01  4.70009832408E+01  0.00000000000E+00  1.
        2    1    4    4  804    0 -2.10106461957E+01  2.13803198148E+01  1.01583455216E+02  1.05913944798E+02  1.34869915235E-06  0.00000000000E+00  1.
       -1    1    4    4    0  804  1.27696328044E+01  7.81729984944E+00 -9.64773365816E-01  1.50034824805E+01  2.05387521636E-06  0.00000000000E+00  1.
       11    1    5    5    0    0  2.53568231685E+01 -1.71031799676E+01  1.55946430746E+01  3.43319113811E+01  5.11000071632E-04  0.00000000000E+00  1.
      -12    1    5    5    0    0 -1.71158097771E+01 -1.20944396966E+01  3.66133730399E+01  4.21872670514E+01  0.00000000000E+00  0.00000000000E+00  1.
</event>
<event>
 9   0   1.0000000E+00   6.2497577E+01   7.8125000E-03   1.3829029E-01
       21   -1    0    0  501  502  0.00000000000E+00  0.00000000000E+00  3.47766015750E+01  3.47766015750E+01  0.00000000000E+00  0.00000000000E+00  1.
       21   -1    0    0  502  501  0.00000000000E+00  0.00000000000E+00 -1.12315378009E+02  1.12315378009E+02  0.00000000000E+00  0.00000000000E+00  1.
       25    2    1    2    0    0  1.77635683940E-15  7.10542735760E-15 -7.75387764335E+01  1.47091979584E+02  1.24995154334E+02  0.00000000000E+00  1.
      -24    2    3    3    0    0  1.21387166891E+01  2.19302067330E+01 -2.35524031167E+00  3.37321616658E+01  2.24505938342E+01  0.00000000000E+00  1.
       24    2    3    3    0    0 -1.21387166891E+01 -2.19302067330E+01 -7.51835361218E+01  1.13359817918E+02  8.10530801658E+01  0.00000000000E+00  1.
       11    1    4    4    0    0  1.22928670168E+01  1.26370860017E+00  2.24343384125E+00  1.25596391103E+01  5.10999956917E-04  0.00000000000E+00  1.
      -12    1    4    4    0    0 -1.54150327685E-01  2.06664981329E+01 -4.59867415293E+00  2.11725226555E+01  0.00000000000E+00  0.00000000000E+00  1.
        4    1    5    5  804    0 -1.49140667011E+01  1.50917947202E+01 -7.31528356293E+01  7.61784394632E+01  1.27500000000E+00  0.00000000000E+00  1.
       -3    1    5    5    0  804  2.77535001193E+00 -3.70220014532E+01 -2.03070049251E+00  3.71813784546E+01  0.00000000000E+00  0.00000000000E+00  1.
</event>
<event>
 9   0   1.0000000E+00   6.2498796E+01   7.8125000E-03   1.3828984E-01
       21   -1    0    0  501  502  0.00000000000E+00  0.00000000000E+00  8.86554688832E+00  8.86554688832E+00  0.00000000000E+00  0.00000000000E+00  1.
       21   -1    0    0  502  501  0.00000000000E+00  0.00000000000E+00 -4.40593184469E+02  4.40593184469E+02  0.00000000000E+00  0.00000000000E+00  1.
       25    2    1    2    0    0  8.88178419700E-16  3.55271367880E-15 -4.31727637580E+02  4.49458731357E+02  1.24997592546E+02  0.00000000000E+00  1.
      -24    2    3    3    0    0 -1.58883253507E+00 -1.56883210023E+01 -8.11992302254E+01  9.05808052713E+01  3.69177394989E+01  0.00000000000E+00  1.
       24    2    3    3    0    0  1.58883253507E+00  1.56883210023E+01 -3.50528407355E+02  3.58877926086E+02  7.53296333728E+01  0.00000000000E+00  1.
        3    1    4    4  804    0  5.77439464353E+00 -1.36850821880E+01 -8.14959335766E+01  8.28384711201E+01  0.00000000000E+00  0.00000000000E+00  1.
       -4    1    4    4    0  804 -7.36322717861E+00 -2.00323881429E+00  2.96703351186E-01  7.74233415124E+00  1.27500000000E+00  0.00000000000E+00  1.
        2    1    5    5  803    0 -1.60643510137E+01  3.73857743817E+01 -1.21164419980E+02  1.27814616513E+02  2.69739830470E-06  0.00000000000E+00  1.
       -1    1    5    5    0  803  1.76531835487E+01 -2.16974533794E+01 -2.29363987375E+02  2.31063309773E+02  3.81469726562E-06  0.00000000000E+00  1.
</event>
<event>
 9   0   1.0000000E+00   6.2502620E+01   7.8125000E-03   1.3828841E-01
       21   -1    0    0  501  502  0.00000000000E+00  0.00000000000E+00  4.04060813949E+00  4.04060813949E+00  0.00000000000E+00  0.00000000000E+00  1.
       21   -1    0    0  502  501  0.00000000000E+00  0.00000000000E+00 -9.66829100065E+02  9.66829100065E+02  0.00000000000E+00  0.00000000000E+00  1.
       25    2    1    2    0    0 -1.77635683940E-15  7.10542735760E-15 -9.62788491926E+02  9.70869708205E+02  1.25005240390E+02  0.00000000000E+00  1.
       24    2    3    3    0    0  1.53415536738E+01 -3.48562158030E+01 -3.73684191745E+02  3.79751195031E+02  5.58639053252E+01  0.00000000000E+00  1.
      -24    2    3    3    0    0 -1.53415536738E+01  3.48562158030E+01 -5.89104300181E+02  5.91118513174E+02  3.04450501057E+01  0.00000000000E+00  1.
        2    1    4    4  804    0  2.86916837477E+01  1.57797697974E+00 -1.67698211028E+02  1.70142272065E+02  4.67203091199E-06  0.00000000000E+00  1.
       -1    1    4    4    0  804 -1.33501300740E+01 -3.64341927828E+01 -2.05985980717E+02  2.09608923165E+02  4.67203091199E-06  0.00000000000E+00  1.
        3    1    5    5  803    0 -1.80741852133E+01  1.59976990888E+01 -4.57435265300E+02  4.58071636950E+02  5.39479660939E-06  0.00000000000E+00  1.
       -4    1    5    5    0  803  2.73263153958E+00  1.88585167142E+01 -1.31669034882E+02  1.33046876324E+02  1.27500000001E+00  0.00000000000E+00  1.
</event>
<event>
 9   0   1.0000000E+00   6.2501467E+01   7.8125000E-03   1.3828884E-01
       21   -1    0    0  501  502  0.00000000000E+00  0.00000000000E+00  2.68779455335E+01  2.68779455335E+01  0.00000000000E+00  0.00000000000E+00  1.
       21   -1    0    0  502  501  0.00000000000E+00  0.00000000000E+00 -1.45339729354E+02  1.45339729354E+02  0.00000000000E+00  0.00000000000E+00  1.
       25    2    1    2    0    0 -2.66453525910E-15  0.00000000000E+00 -1.18461783821E+02  1.72217674888E+02  1.25002933237E+02  0.00000000000E+00  1.
      -24    2    3    3    0    0  1.55784380140E+00 -1.10394372815E+01 -1.19526343209E+01  3.82157225481E+01  3.45438841167E+01  0.00000000000E+00  1.
       24    2    3    3    0    0 -1.55784380140E+00  1.10394372815E+01 -1.06509149500E+02  1.34001952340E+02  8.05482976285E+01  0.00000000000E+00  1.
        3    1    4    4  803    0  9.37160541893E+00  6.72689714074E+00  4.84861723956E+00  1.25134816261E+01  0.00000000000E+00  0.00000000000E+00  1.
       -4    1    4    4    0  803 -7.81376161752E+00 -1.77663344222E+01 -1.68012515605E+01  2.57022409221E+01  1.27500000000E+00  0.00000000000E+00  1.
        2    1    5    5  804    0 -3.70968097666E+01  1.45667858726E+01 -3.10630909279E+01  5.05299927124E+01  0.00000000000E+00  0.00000000000E+00  1.
       -1    1    5    5    0  804  3.55389659652E+01 -3.52734859110E+00 -7.54460585722E+01  8.34719596274E+01  0.00000000000E+00  0.00000000000E+00  1.
</event>
<event>
 9   0   1.0000000E+00   6.2498938E+01   7.8125000E-03   1.3828978E-01
       21   -1    0    0  501  502  0.00000000000E+00  0.00000000000E+00  3.65574774953E+01  3.65574774953E+01  0.00000000000E+00  0.00000000000E+00  1.
       21   -1    0    0  502  501  0.00000000000E+00  0.00000000000E+00 -1.06848654199E+02  1.06848654199E+02  0.00000000000E+00  0.00000000000E+00  1.
       25    2    1    2    0    0  8.88178419700E-16 -1.77635683940E-15 -7.02911767035E+01  1.43406131694E+02  1.24997876322E+02  0.00000000000E+00  1.
       24    2    3    3    0    0  6.92292259241E+00  1.22442366574E+01 -3.40158773980E+01  9.05268327823E+01  8.27053767895E+01  0.00000000000E+00  1.
      -24    2    3    3    0    0 -6.92292259241E+00 -1.22442366574E+01 -3.62752993056E+01  5.28792989118E+01  3.58116562749E+01  0.00000000000E+00  1.
       14    1    4    4    0    0  2.38109686916E+01 -2.23931342792E+01 -3.98628091956E+01  5.15505407328E+01  1.50789149292E-06  0.00000000000E+00  1.
      -13    1    4    4    0    0 -1.68880460992E+01  3.46373709366E+01  5.84693179764E+00  3.89762920495E+01  1.05660000014E-01  0.00000000000E+00  1.
       13    1    5    5    0    0 -7.88521867170E+00 -3.18290635066E+00  5.49612614913E+00  1.01255189013E+01  1.05659999998E-01  0.00000000000E+00  1.
      -14    1    5    5    0    0  9.62296079289E-01 -9.06133030673E+00 -4.17714254547E+01  4.27537800105E+01  0.00000000000E+00  0.00000000000E+00  1.
</event>
<event>
 9   0   1.0000000E+00   6.2499799E+01   7.8125000E-03   1.3828946E-01
       21   -1    0    0  501  502  0.00000000000E+00  0.00000000000E+00  1.44841335601E+02  1.44841335601E+02  0.00000000000E+00  0.00000000000E+00  1.
       21   -1    0    0  502  501  0.00000000000E+00  0.00000000000E+00 -2.69689927701E+01  2.69689927701E+01  0.00000000000E+00  0.00000000000E+00  1.
       25    2    1    2    0    0 -7.10542735760E-15  1.77635683940E-15  1.17872342831E+02  1.71810328372E+02  1.24999598922E+02  0.00000000000E+00  1.
       24    2    3    3    0    0 -3.12729814181E+01  6.86024850803E+00  5.34048678497E+01  9.79506718083E+01  7.56121142496E+01  0.00000000000E+00  1.
      -24    2    3    3    0    0  3.12729814181E+01 -6.86024850803E+00  6.44674749817E+01  7.38596565632E+01  1.65569067388E+01  0.00000000000E+00  1.
        2    1    4    4  804    0  6.00592627948E+00 -2.94291958214E+01  2.12031678437E+01  3.67657863207E+01  0.00000000000E+00  0.00000000000E+00  1.
       -1    1    4    4    0  804 -3.72789076975E+01  3.62894443294E+01  3.22017000060E+01  6.11848854876E+01  0.00000000000E+00  0.00000000000E+00  1.
        3    1    5    5  803    0  1.44323240827E+01  1.85745212852E+00  1.51485547046E+01  2.10052568772E+01  0.00000000000E+00  0.00000000000E+00  1.
       -4    1    5    5    0  803  1.68406573354E+01 -8.71770063655E+00  4.93189202771E+01  5.28543996860E+01  1.27500000000E+00  0.00000000000E+00  1.
</event>
<event>
 9   0   1.0000000E+00   6.2504193E+01   7.8125000E-03   1.3828782E-01
       21   -1    0    0  501  502  0.00000000000E+00  0.00000000000E+00  1.31904018969E+01  1.31904018969E+01  0.00000000000E+00  0.00000000000E+00  1.
       21   -1    0    0  502  501  0.00000000000E+00  0.00000000000E+00 -2.96183098927E+02  2.96183098927E+02  0.00000000000E+00  0.00000000000E+00  1.
       25    2    1    2    0    0  1.77635683940E-15  0.00000000000E+00 -2.82992697030E+02  3.09373500824E+02  1.25008385478E+02  0.00000000000E+00  1.
      -24    2    3    3    0    0 -8.60008066727E+00  4.77440013299E+00 -8.85023125741E+01  9.87427411708E+01  4.26698174222E+01  0.00000000000E+00  1.
       24    2    3    3    0    0  8.60008066727E+00 -4.77440013299E+00 -1.94490384456E+02  2.10630759653E+02  8.02623883406E+01  0.00000000000E+00  1.
        3    1    4    4  804    0 -2.58322080255E+00  7.11799576756E+00 -9.12837771214E+01  9.15973081428E+01  1.90734863281E-06  0.00000000000E+00  1.
       -4    1    4    4    0  804 -6.01685986473E+00 -2.34359563457E+00  2.78146454725E+00  7.14543302801E+00  1.27500000000E+00  0.00000000000E+00  1.
       16    1    5    5    0    0 -1.16669967227E+01 -3.88486731912E+01 -1.11247336574E+02  1.18411604651E+02  0.00000000000E+00  0.00000000000E+00  1.
      -15    1    5    5    0    0  2.02670773899E+01  3.40742730582E+01 -8.32430478820E+01  9.22191550021E+01  1.77680000000E+00  0.00000000000E+00  1.
</event>
<event>
 9   0   1.0000000E+00   6.2500994E+01   7.8125000E-03   1.3828901E-01
       21   -1    0    0  501  502  0.00000000000E+00  0.00000000000E+00  2.45697990923E+01  2.45697990923E+01  0.00000000000E+00  0.00000000000E+00  1.
       21   -1    0    0  502  501  0.00000000000E+00  0.00000000000E+00 -1.58990891752E+02  1.58990891752E+02  0.00000000000E+00  0.00000000000E+00  1.
       25    2    1    2    0    0 -8.88178419700E-16  2.66453525910E-15 -1.34421092659E+02  1.83560690844E+02  1.25001988270E+02  0.00000000000E+00  1.
      -24    2    3    3    0    0  1.99098312101E+00  5.55594946181E+00 -6.28576748168E+01  7.86882774931E+01  4.69672773668E+01  0.00000000000E+00  1.
       24    2    3    3    0    0 -1.99098312101E+00 -5.55594946181E+00 -7.15634178426E+01  1.04872413351E+02  7.64334201806E+01  0.00000000000E+00  1.
        3    1    4    4  804    0 -7.28052803729E+00  5.64618180320E+00 -6.75800336729E+01  6.82051788527E+01  0.00000000000E+00  0.00000000000E+00  1.
       -4    1    4    4    0  804  9.27151115831E+00 -9.02323413838E-02  4.72235885618E+00  1.04830987404E+01  1.27500000000E+00  0.00000000000E+00  1.
        2    1    5    5  803    0  2.71696473156E+00  1.61475330271E+01  1.07683406009E+01  1.95980070290E+01  1.01852461640E-06  0.00000000000E+00  1.
       -1    1    5    5    0  803 -4.70794785257E+00 -2.17034824889E+01 -8.23317584436E+01  8.52744063218E+01  0.00000000000E+00  0.00000000000E+00  1.
</event>
<event>
 9   0   1.0000000E+00   6.2502664E+01   7.8125000E-03   1.3828839E-01
       21   -1    0    0  501  502  0.00000000000E+00  0.00000000000E+00  1.48378402758E+01  1.48378402758E+01  0.00000000000E+00  0.00000000000E+00  1.
       21   -1    0    0  502  501  0.00000000000E+00  0.00000000000E+00 -2.63285152885E+02  2.63285152885E+02  0.00000000000E+00  0.00000000000E+00  1.
       25    2    1    2    0    0  0.00000000000E+00  1.77635683940E-15 -2.48447312609E+02  2.78122993161E+02  1.25005328614E+02  0.00000000000E+00  1.
       24    2    3    3    0    0 -3.21786550362E+01 -1.23118166894E+01 -1.58108496411E+02  1.80161944608E+02  7.92021652308E+01  0.00000000000E+00  1.
      -24    2    3    3    0    0  3.21786550362E+01  1.23118166894E+01 -9.03388161981E+01  9.79610485533E+01  1.57549564098E+01  0.00000000000E+00  1.
        2    1    4    4  803    0 -1.63665530760E+01  2.56305660767E+01 -2.08269821211E+01  3.68585561475E+01  3.20759392907E-06  0.00000000000E+00  1.
       -1    1    4    4    0  803 -1.58121019602E+01 -3.79423827661E+01 -1.37281514290E+02  1.43303388460E+02  3.81469726562E-06  0.00000000000E+00  1.
        1    1    5    5  804    0  1.62502728133E+01  1.09184140538E+00 -5.76487930181E+01  5.99053154621E+01  1.16800772800E-06  0.00000000000E+00  1.
       -2    1    5    5    0  804  1.59283822228E+01  1.12199752840E+01 -3.26900231799E+01  3.80557330913E+01  1.16800772800E-06  0.00000000000E+00  1.
</event>
<event>
 9   0   1.0000000E+00   6.2502009E+01   7.8125000E-03   1.3828864E-01
       21   -1    0    0  501  502  0.00000000000E+00  0.00000000000E+00  4.69606890604E+01  4.69606890604E+01  0.00000000000E+00  0.00000000000E+00  1.
       21   -1    0    0  502  501  0.00000000000E+00  0.00000000000E+00 -8.31866221954E+01  8.31866221954E+01  0.00000000000E+00  0.00000000000E+00  1.
       25    2    1    2    0    0  3.55271367880E-15 -1.42108547152E-14 -3.62259331350E+01  1.30147311256E+02  1.25004017518E+02  0.00000000000E+00  1.
       24    2    3    3    0    0  6.15030858721E+00 -1.82890408868E+01  1.28003293119E+01  3.39948743891E+01  2.48895106814E+01  0.00000000000E+00  1.
      -24    2    3    3    0    0 -6.15030858721E+00  1.82890408868E+01 -4.90262624469E+01  9.61524368668E+01  8.04325891268E+01  0.00000000000E+00  1.
        2    1    4    4  804    0 -7.21254527082E+00  1.46203530573E+00  1.12983102774E+00  7.44546000392E+00  0.00000000000E+00  0.00000000000E+00  1.
       -1    1    4    4    0  804  1.33628538580E+01 -1.97510761925E+01  1.16704982842E+01  2.65494144851E+01  0.00000000000E+00  0.00000000000E+00  1.
       15    1    5    5    0    0  1.03066468889E+01 -2.97719407104E+01 -1.44851003655E+01  3.47213273737E+01  1.77680000000E+00  0.00000000000E+00  1.
      -16    1    5    5    0    0 -1.64569554761E+01  4.80609815971E+01 -3.45411620814E+01  6.14311094931E+01  0.00000000000E+00  0.00000000000E+00  1.
</event>
<event>
 9   0   1.0000000E+00   6.2500231E+01   7.8125000E-03   1.3828930E-01
       21   -1    0    0  501  502  0.00000000000E+00  0.00000000000E+00  6.96743089432E+01  6.96743089432E+01  0.00000000000E+00  0.00000000000E+00  1.
       21   -1    0    0  502  501  0.00000000000E+00  0.00000000000E+00 -5.60648390595E+01  5.60648390595E+01  0.00000000000E+00  0.00000000000E+00  1.
       25    2    1    2    0    0 -1.77635683940E-15 -3.55271367880E-15  1.36094698838E+01  1.25739148003E+02  1.25000462679E+02  0.00000000000E+00  1.
       24    2    3    3    0    0  7.92006566849E+00 -1.72446736729E+01  2.00903484633E+01  4.22719310344E+01  3.19873075098E+01  0.00000000000E+00  1.
      -24    2    3    3    0    0 -7.92006566849E+00  1.72446736729E+01 -6.48087857953E+00  8.34672169683E+01  8.10226407308E+01  0.00000000000E+00  1.
        2    1    4    4  803    0  1.47797509536E+01 -2.28989922008E+01  1.05319757101E+01  2.92186138347E+01  0.00000000000E+00  0.00000000000E+00  1.
       -1    1    4    4    0  803 -6.85968528514E+00  5.65431852795E+00  9.55837275318E+00  1.30533171997E+01  0.00000000000E+00  0.00000000000E+00  1.
        3    1    5    5  804    0 -2.08857251841E+00  3.39077047813E+01  2.84477185824E+01  4.43099003750E+01  1.06624029994E-06  0.00000000000E+00  1.
       -4    1    5    5    0  804 -5.83149315008E+00 -1.66630311085E+01 -3.49285971619E+01  3.91573165932E+01  1.27500000000E+00  0.00000000000E+00  1.
</event>
<event>
 9   0   1.0000000E+00   6.2503102E+01   7.8125000E-03   1.3828823E-01
       21   -1    0    0  501  502  0.00000000000E+00  0.00000000000E+00  9.36031517601E+02  9.36031517601E+02  0.00000000000E+00  0.00000000000E+00  1.
       21   -1    0    0  502  501  0.00000000000E+00  0.00000000000E+00 -4.17361776796E+00  4.17361776796E+00  0.00000000000E+00  0.00000000000E+00  1.
       25    2    1    2    0    0  3.55271367880E-15  3.55271367880E-15  9.31857899833E+02  9.40205135369E+02  1.25006204218E+02  0.00000000000E+00  1.
      -24    2    3    3    0    0  2.06443275109E+01 -9.10675656476E-01  4.83323699119E+02  4.90388742732E+02  8.03262303313E+01  0.00000000000E+00  1.
       24    2    3    3    0    0 -2.06443275109E+01  9.10675656476E-01  4.48534200713E+02  4.49816392637E+02  2.69228580692E+01  0.00000000000E+00  1.
        1    1    4    4  804    0  3.92297551143E+01 -2.14083965388E+01  1.67641732802E+02  1.73496523712E+02  3.81469726562E-06  0.00000000000E+00  1.
       -2    1    4    4    0  804 -1.85854276034E+01  2.04977208823E+01  3.15681966317E+02  3.16892219220E+02  3.81469726562E-06  0.00000000000E+00  1.
        2    1    5    5  803    0 -1.05020905094E+01 -1.25304383963E+01  1.74054426652E+02  1.74820620248E+02  1.90734863281E-06  0.00000000000E+00  1.
       -1    1    5    5    0  803 -1.01422370015E+01  1.34411140528E+01  2.74479774061E+02  2.74995772589E+02  3.81469726562E-06  0.00000000000E+00  1.
</event>
<event>
 9   0   1.0000000E+00   6.2499650E+01   7.8125000E-03   1.3828952E-01
       21   -1    0    0  501  502  0.00000000000E+00  0.00000000000E+00  1.06760531006E+02  1.06760531006E+02  0.00000000000E+00  0.00000000000E+00  1.
       21   -1    0    0  502  501  0.00000000000E+00  0.00000000000E+00 -3.65884866855E+01  3.65884866855E+01  0.00000000000E+00  0.00000000000E+00  1.
       25    2    1    2    0    0  0.00000000000E+00 -1.33226762955E-15  7.01720443206E+01  1.43349017692E+02  1.24999300274E+02  0.00000000000E+00  1.
      -24    2    3    3    0    0  1.03303421285E+01  4.35730879307E-01  4.45061799256E+01  6.17611176319E+01  4.15539380767E+01  0.00000000000E+00  1.
       24    2    3    3    0    0 -1.03303421285E+01 -4.35730879307E-01  2.56658643950E+01  8.15879000597E+01  7.67524788597E+01  0.00000000000E+00  1.
        1    1    4    4  803    0  1.62590718364E+01  9.00625619119E+00  4.74262866210E+01  5.09384210632E+01  0.00000000000E+00  0.00000000000E+00  1.
       -2    1    4    4    0  803 -5.92872970783E+00 -8.57052531189E+00 -2.92010669547E+00  1.08226967687E+01  0.00000000000E+00  0.00000000000E+00  1.
        2    1    5    5  804    0  2.18863368007E+01 -2.51902009120E+00 -1.71821881694E+01  2.79389476654E+01  0.00000000000E+00  0.00000000000E+00  1.
       -1    1    5    5    0  804 -3.22166789292E+01  2.08328921189E+00  4.28480525645E+01  5.36489525943E+01  1.58148993986E-06  0.00000000000E+00  1.
</event>
<event>
 9   0   1.0000000E+00   6.2496361E+01   7.8125000E-03   1.3829074E-01
       21   -1    0    0  501  502  0.00000000000E+00  0.00000000000E+00  8.52962800078E+00  8.52962800078E+00  0.00000000000E+00  0.00000000000E+00  1.
       21   -1    0    0  502  501  0.00000000000E+00  0.00000000000E+00 -4.57909195025E+02  4.57909195025E+02  0.00000000000E+00  0.00000000000E+00  1.
       25    2    1    2    0    0 -7.10542735760E-15 -2.66453525910E-15 -4.49379567025E+02  4.66438823026E+02  1.24992721255E+02  0.00000000000E+00  1.
      -24    2    3    3    0    0  3.59850744529E+00  5.01240524997E-01 -3.24426360365E+02  3.32988743720E+02  7.49389060918E+01  0.00000000000E+00  1.
       24    2    3    3    0    0 -3.59850744529E+00 -5.01240524997E-01 -1.24953206659E+02  1.33450079307E+02  4.67163709482E+01  0.00000000000E+00  1.
        1    1    4    4  803    0  2.66180139036E+01 -5.60514872351E+00 -2.89144481174E+02  2.90421189567E+02  3.81469726562E-06  0.00000000000E+00  1.
       -2    1    4    4    0  803 -2.30195064583E+01  6.10638924851E+00 -3.52818791916E+01  4.25675541526E+01  3.60004159702E-06  0.00000000000E+00  1.
        4    1    5    5  804    0 -1.86613785380E+01  1.42655900047E+01 -4.52074321481E+01  5.09616684729E+01  1.27500000000E+00  0.00000000000E+00  1.
       -3    1    5    5    0  804  1.50628710927E+01 -1.47668305297E+01 -7.97457745113E+01  8.24884109336E+01  1.65181236989E-06  0.00000000000E+00  1.
</event>
<event>
 9   0   1.0000000E+00   6.2493510E+01   7.8125000E-03   1.3829181E-01
       21   -1    0    0  501  502  0.00000000000E+00  0.00000000000E+00  1.50122860147E+02  1.50122860147E+02  0.00000000000E+00  0.00000000000E+00  1.
       21   -1    0    0  502  501  0.00000000000E+00  0.00000000000E+00 -2.60149509929E+01  2.60149509929E+01  0.00000000000E+00  0.00000000000E+00  1.
       25    2    1    2    0    0  7.10542735760E-15 -3.55271367880E-15  1.24107909154E+02  1.76137811140E+02  1.24987020920E+02  0.00000000000E+00  1.
      -24    2    3    3    0    0 -1.91404215747E+01 -1.65641139543E+01  8.58685937083E+01  1.19989844300E+02  7.98963186924E+01  0.00000000000E+00  1.
       24    2    3    3    0    0  1.91404215747E+01  1.65641139543E+01  3.82393154457E+01  5.61479668396E+01  3.23978907542E+01  0.00000000000E+00  1.
        1    1    4    4  804    0  6.27223026917E+00 -3.43473058008E+01  7.50727200428E+00  3.57132668404E+01  0.00000000000E+00  0.00000000000E+00  1.
       -2    1    4    4    0  804 -2.54126518439E+01  1.77831918466E+01  7.83613217040E+01  8.42765775598E+01  0.00000000000E+00  0.00000000000E+00  1.
        2    1    5    5  803    0  1.05513462029E+01  8.84834443728E+00  4.18447537670E+01  4.40523272099E+01  0.00000000000E+00  0.00000000000E+00  1.
       -1    1    5    5    0  803  8.58907537184E+00  7.71576951699E+00 -3.60543832134E+00  1.20956398297E+01  0.00000000000E+00  0.00000000000E+00  1.
</event>
<event>
 9   0   1.0000000E+00   6.2507910E+01   7.8125000E-03   1.3828643E-01
       21   -1    0    0  501  502  0.00000000000E+00  0.00000000000E+00  5.07818813083E+00  5.07818813083E+00  0.00000000000E+00  0.00000000000E+00  1.
       21   -1    0    0  502  501  0.00000000000E+00  0.00000000000E+00 -7.69415929568E+02  7.69415929568E+02  0.00000000000E+00  0.00000000000E+00  1.
       25    2    1    2    0    0 -2.66453525910E-15  3.55271367880E-15 -7.64337741437E+02  7.74494117699E+02  1.25015820458E+02  0.00000000000E+00  1.
       24    2    3    3    0    0  7.20637996645E+00  2.53084720707E+01 -1.89225800457E+02  1.93186872966E+02  2.86760118707E+01  0.00000000000E+00  1.
      -24    2    3    3    0    0 -7.20637996645E+00 -2.53084720707E+01 -5.75111940980E+02  5.81307244733E+02  8.04482283879E+01  0.00000000000E+00  1.
        4    1    4    4  803    0  1.39615635228E+01  2.65135698227E+01 -1.22881666510E+02  1.26488830455E+02  1.27500000000E+00  0.00000000000E+00  1.
       -3    1    4    4    0  803 -6.75518355631E+00 -1.20509775203E+00 -6.63441339476E+01  6.66980425105E+01  2.13248059988E-06  0.00000000000E+00  1.
        1    1    5    5  804    0  2.96429115367E+01 -3.49323299049E+01 -3.51844995389E+02  3.54815262718E+02  3.81469726562E-06  0.00000000000E+00  1.
       -2    1    5    5    0  804 -3.68492915031E+01  9.62385783421E+00 -2.23266945591E+02  2.26491982115E+02  7.13664510112E-06  0.00000000000E+00  1.
</event>
<event>
 9   0   1.0000000E+00   6.2503559E+01   7.8125000E-03   1.3828806E-01
       21   -1    0    0  501  502  0.00000000000E+00  0.00000000000E+00  1.69918414652E+02  1.69918414652E+02  0.00000000000E+00  0.00000000000E+00  1.
       21   -1    0    0  502  501  0.00000000000E+00  0.00000000000E+00 -2.29915923543E+01  2.29915923543E+01  0.00000000000E+00  0.00000000000E+00  1.
       25    2    1    2    0    0 -8.88178419700E-16  0.00000000000E+00  1.46926822297E+02  1.92910007006E+02  1.25007118568E+02  0.00000000000E+00  1.
       24    2    3    3    0    0  2.06429786272E+00  1.58756027050E+01  5.56702086073E+01  6.96710209505E+01  3.87115350639E+01  0.00000000000E+00  1.
      -24    2    3    3    0    0 -2.06429786272E+00 -1.58756027050E+01  9.12566136901E+01  1.23238986055E+02  8.12636576513E+01  0.00000000000E+00  1.
       14    1    4    4    0    0 -4.04328031600E+00 -1.09123898255E+01  6.46014971210E+00  1.33102179441E+01  0.00000000000E+00  0.00000000000E+00  1.
      -13    1    4    4    0    0  6.10757817872E+00  2.67879925305E+01  4.92100588952E+01  5.63608030064E+01  1.05660000010E-01  0.00000000000E+00  1.
        3    1    5    5  804    0 -1.95062304266E+01  2.87331554709E+01  4.24159059874E+01  5.48196710088E+01  1.96604996949E-06  0.00000000000E+00  1.
       -4    1    5    5    0  804  1.74419325639E+01 -4.46087581759E+01  4.88407077027E+01  6.84193150467E+01  1.27500000000E+00  0.00000000000E+00  1.
</event>
<event>
 9   0   1.0000000E+00   6.2500471E+01   7.8125000E-03   1.3828921E-01
       21   -1    0    0  501  502  0.00000000000E+00  0.00000000000E+00  1.63837780522E+01  1.63837780522E+01  0.00000000000E+00  0.00000000000E+00  1.
       21   -1    0    0  502  501  0.00000000000E+00  0.00000000000E+00 -2.38425404870E+02  2.38425404870E+02  0.00000000000E+00  0.00000000000E+00  1.
       25    2    1    2    0    0  4.44089209850E-16  0.00000000000E+00 -2.22041626818E+02  2.54809182922E+02  1.25000942643E+02  0.00000000000E+00  1.
       24    2    3    3    0    0 -3.93812233794E+00 -2.51795325508E+01 -9.55072462933E+01  1.02337990772E+02  2.64936330771E+01  0.00000000000E+00  1.
      -24    2    3    3    0    0  3.93812233794E+00  2.51795325508E+01 -1.26534380524E+02  1.52471192150E+02  8.11603185926E+01  0.00000000000E+00  1.
        4    1    4    4  803    0 -4.53913568486E+00 -3.07552772269E+01 -8.25523637470E+01  8.82213648459E+01  1.27500000000E+00  0.00000000000E+00  1.
       -1    1    4    4    0  803  6.01013346920E-01  5.57574467614E+00 -1.29548825463E+01  1.41166260257E+01  0.00000000000E+00  0.00000000000E+00  1.
       13    1    5    5    0    0 -1.37462059325E+00  4.93697116826E+01 -1.14986519181E+02  1.25144591456E+02  1.05659999995E-01  0.00000000000E+00  1.
      -14    1    5    5    0    0  5.31274293119E+00 -2.41901791318E+01 -1.15478613434E+01  2.73266007940E+01  1.29494434490E-06  0.00000000000E+00  1.
</event>
<event>
 9   0   1.0000000E+00   6.2492514E+01   7.8125000E-03   1.3829218E-01
       21   -1    0    0  501  502  0.00000000000E+00  0.00000000000E+00  6.33705823370E+01  6.33705823370E+01  0.00000000000E+00  0.00000000000E+00  1.
       21   -1    0    0  502  501  0.00000000000E+00  0.00000000000E+00 -6.16266114201E+01  6.16266114201E+01  0.00000000000E+00  0.00000000000E+00  1.
       25    2    1    2    0    0  0.00000000000E+00  3.55271367880E-15  1.74397091695E+00  1.24997193757E+02  1.24985027154E+02  0.00000000000E+00  1.
       24    2    3    3    0    0  8.02997650320E+00 -4.57687810493E+00 -1.81877673348E+01  4.18171241631E+01  3.65027212248E+01  0.00000000000E+00  1.
      -24    2    3    3    0    0 -8.02997650320E+00  4.57687810493E+00  1.99317382517E+01  8.31800695941E+01  8.02260646680E+01  0.00000000000E+00  1.
        4    1    4    4  803    0  6.93681853144E+00  1.31661199930E+01 -1.88230582204E+01  2.40291346656E+01  1.27500000000E+00  0.00000000000E+00  1.
       -3    1    4    4    0  803  1.09315797176E+00 -1.77429980979E+01  6.35290885636E-01  1.77879894975E+01  0.00000000000E+00  0.00000000000E+00  1.
        3    1    5    5  804    0  5.91887488812E+00 -2.72418059199E+01 -1.68455826567E+01  3.25718087426E+01  1.11828226085E-06  0.00000000000E+00  1.
       -4    1    5    5    0  804 -1.39488513913E+01  3.18186840249E+01  3.67773209084E+01  5.06082608515E+01  1.27500000000E+00  0.00000000000E+00  1.
</event>
<event>
 9   0   1.0000000E+00   6.2500354E+01   7.8125000E-03   1.3828925E-01
       21   -1    0    0  501  502  0.00000000000E+00  0.00000000000E+00  4.33608001960E+00  4.33608001960E+00  0.00000000000E+00  0.00000000000E+00  1.
       21   -1    0    0  502  501  0.00000000000E+00  0.00000000000E+00 -9.00881482236E+02  9.00881482236E+02  0.00000000000E+00  0.00000000000E+00  1.
       25    2    1    2    0    0 -1.55431223448E-15  0.00000000000E+00 -8.96545402216E+02  9.05217562255E+02  1.25000707120E+02  0.00000000000E+00  1.
      -24    2    3    3    0    0  1.11989362608E+00 -1.84245883449E+01 -4.56230978982E+02  4.57397090610E+02  2.69197455130E+01  0.00000000000E+00  1.
       24    2    3    3    0    0 -1.11989362608E+00  1.84245883449E+01 -4.40314423235E+02  4.47820471646E+02  7.95340423905E+01  0.00000000000E+00  1.
        3    1    4    4  803    0 -1.83806326038E+00 -2.76700527590E+00 -5.81046907260E+00  6.69300721572E+00  6.22119464547E-06  0.00000000000E+00  1.
       -4    1    4    4    0  803  2.95795688646E+00 -1.56575830690E+01 -4.50420509909E+02  4.50704083394E+02  1.27500000004E+00  0.00000000000E+00  1.
        2    1    5    5  804    0  4.36870105283E+00 -1.46913440648E+01 -3.65492149370E+02  3.65813384652E+02  5.39479660939E-06  0.00000000000E+00  1.
       -3    1    5    5    0  804 -5.48859467892E+00  3.31159324098E+01 -7.48222738644E+01  8.20070870935E+01  4.67203091199E-06  0.00000000000E+00  1.
</event>
<event>
 9   0   1.0000000E+00   6.2499500E+01   7.8125000E-03   1.3828957E-01
       21   -1    0    0  501  502  0.00000000000E+00  0.00000000000E+00  9.56275074596E+01  9.56275074596E+01  0.00000000000E+00  0.00000000000E+00  1.
       21   -1    0    0  502  501  0.00000000000E+00  0.00000000000E+00 -4.08479483591E+01  4.08479483591E+01  0.00000000000E+00  0.00000000000E+00  1.
       25    2    1    2    0    0 -1.77635683940E-15  0.00000000000E+00  5.47795591005E+01  1.36475455819E+02  1.24998999779E+02  0.00000000000E+00  1.
      -24    2    3    3    0    0 -1.40631906849E+01 -9.93768389138E+00  4.38837272596E+01  1.02760302395E+02  9.13091853914E+01  0.00000000000E+00  1.
       24    2    3    3    0    0  1.40631906849E+01  9.93768389138E+00  1.08958318409E+01  3.37151534233E+01  2.68600358430E+01  0.00000000000E+00  1.
        3    1    4    4  804    0  3.68409027615E+01 -8.03793080118E+00  3.41711889955E+01  5.08874308193E+01  0.00000000000E+00  0.00000000000E+00  1.
       -4    1    4    4    0  804 -5.09040934464E+01 -1.89975309019E+00  9.71253826418E+00  5.18728716762E+01  1.27500000000E+00  0.00000000000E+00  1.
        2    1    5    5  803    0  2.25116973097E+00 -8.69205722288E+00  6.83809121579E+00  1.12862357612E+01  0.00000000000E+00  0.00000000000E+00  1.
       -1    1    5    5    0  803  1.18120209539E+01  1.86297411143E+01  4.05774062506E+00  2.24289178621E+01  0.00000000000E+00  0.00000000000E+00  1.
</event>
<event>
 9   0   1.0000000E+00   6.2503485E+01   7.8125000E-03   1.3828809E-01
       21   -1    0    0  501  502  0.00000000000E+00  0.00000000000E+00  7.05744881389E+02  7.05744881389E+02  0.00000000000E+00  0.00000000000E+00  1.
       21   -1    0    0  502  501  0.00000000000E+00  0.00000000000E+00 -5.53554931343E+00  5.53554931343E+00  0.00000000000E+00  0.00000000000E+00  1.
       25    2    1    2    0    0 -1.77635683940E-15 -6.66133814775E-16  7.00209332075E+02  7.11280430702E+02  1.25006969304E+02  0.00000000000E+00  1.
      -24    2    3    3    0    0 -6.94160681842E+00 -1.30434387711E+00  1.73477786270E+02  1.78111519387E+02  3.97402037127E+01  0.00000000000E+00  1.
       24    2    3    3    0    0  6.94160681842E+00  1.30434387711E+00  5.26731545805E+02  5.33168911315E+02  8.22987206953E+01  0.00000000000E+00  1.
        3    1    4    4  803    0  9.69271000733E+00 -9.82806869324E-01  1.06612962563E+01  1.44422220376E+01  1.73980230323E-06  0.00000000000E+00  1.
       -4    1    4    4    0  803 -1.66343168257E+01 -3.21537007791E-01  1.62816490014E+02  1.63669297450E+02  1.27500000000E+00  0.00000000000E+00  1.
        4    1    5    5  804    0 -2.76884693850E+01  1.13607888558E+01  8.80188603024E+01  9.29766866168E+01  1.27499999997E+00  0.00000000000E+00  1.
       -3    1    5    5    0  804  3.46300762034E+01 -1.00564449787E+01  4.38712685503E+02  4.40192224798E+02  9.34406182397E-06  0.00000000000E+00  1.
</event>
<event>
 9   0   1.0000000E+00   6.2499903E+01   7.8125000E-03   1.3828942E-01
       21   -1    0    0  501  502  0.00000000000E+00  0.00000000000E+00  2.59128978194E+01  2.59128978194E+01  0.00000000000E+00  0.00000000000E+00  1.
       21   -1    0    0  502  501  0.00000000000E+00  0.00000000000E+00 -1.50744927245E+02  1.50744927245E+02  0.00000000000E+00  0.00000000000E+00  1.
       25    2    1    2    0    0 -3.55271367880E-15  1.77635683940E-15 -1.24832029426E+02  1.76657825064E+02  1.24999806344E+02  0.00000000000E+00  1.
       24    2    3    3    0    0 -1.22653079906E+01  1.34269074218E+01 -6.82413709129E+01  1.06471853584E+02  7.96784241718E+01  0.00000000000E+00  1.
      -24    2    3    3    0    0  1.22653079906E+01 -1.34269074218E+01 -5.65906585128E+01  7.01859714805E+01  3.73208834131E+01  0.00000000000E+00  1.
        4    1    4    4  803    0 -1.15892369521E+00  2.22311634226E+01  1.17709138560E+01  2.52140391302E+01  1.27500000000E+00  0.00000000000E+00  1.
       -3    1    4    4    0  803 -1.11063842954E+01 -8.80425600082E+00 -8.00122847689E+01  8.12578145537E+01  0.00000000000E+00  0.00000000000E+00  1.
        3    1    5    5  804    0 -7.85367969597E+00 -1.04430708419E+01 -4.47460058688E+01  4.66148372794E+01  0.00000000000E+00  0.00000000000E+00  1.
       -4    1    5    5    0  804  2.01189876866E+01 -2.98383657990E+00 -1.18446526439E+01  2.35711342010E+01  1.27500000000E+00  0.00000000000E+00  1.
</event>
<event>
 9   0   1.0000000E+00   6.2500657E+01   7.8125000E-03   1.3828914E-01
       21   -1    0    0  501  502  0.00000000000E+00  0.00000000000E+00  6.07519820017E+02  6.07519820017E+02  0.00000000000E+00  0.00000000000E+00  1.
       21   -1    0    0  502  501  0.00000000000E+00  0.00000000000E+00 -6.42996657366E+00  6.42996657366E+00  0.00000000000E+00  0.00000000000E+00  1.
       25    2    1    2    0    0  1.77635683940E-15  0.00000000000E+00  6.01089853443E+02  6.13949786591E+02  1.25001314162E+02  0.00000000000E+00  1.
       24    2    3    3    0    0 -1.55779756872E+00 -1.02966414184E+01  1.60893677352E+02  1.66086310567E+02  3.98677763130E+01  0.00000000000E+00  1.
      -24    2    3    3    0    0  1.55779756872E+00  1.02966414184E+01  4.40196176091E+02  4.47863476024E+02  8.18570226236E+01  0.00000000000E+00  1.
        4    1    4    4  803    0 -1.40236045590E+01  2.40679984184E+00  2.31888267581E+01  2.72360327824E+01  1.27500000000E+00  0.00000000000E+00  1.
       -3    1    4    4    0  803  1.24658069903E+01 -1.27034412603E+01  1.37704850594E+02  1.38850277884E+02  1.90734863281E-06  0.00000000000E+00  1.
        3    1    5    5  804    0  3.09207384561E+01 -1.38578363775E+01  1.00818394617E+02  1.06360144839E+02  3.01578298585E-06  0.00000000000E+00  1.
       -4    1    5    5    0  804 -2.93629408873E+01  2.41544777959E+01  3.39377781474E+02  3.41503331285E+02  1.27499999999E+00  0.00000000000E+00  1.
</event>
<event>
 9   0   1.0000000E+00   6.2500422E+01   7.8125000E-03   1.3828923E-01
       21   -1    0    0  501  502  0.00000000000E+00  0.00000000000E+00  1.73382690419E+02  1.73382690419E+02  0.00000000000E+00  0.00000000000E+00  1.
       21   -1    0    0  502  501  0.00000000000E+00  0.00000000000E+00 -2.25299462216E+01  2.25299462216E+01  0.00000000000E+00  0.00000000000E+00  1.
       25    2    1    2    0    0 -3.55271367880E-15 -3.55271367880E-15  1.50852744197E+02  1.95912636640E+02  1.25000843051E+02  0.00000000000E+00  1.
      -24    2    3    3    0    0 -1.81346619623E+00  8.36450172608E+00  1.19527410382E+02  1.42744083099E+02  7.75617036837E+01  0.00000000000E+00  1.
       24    2    3    3    0    0  1.81346619623E+00 -8.36450172608E+00  3.13253338147E+01  5.31685535411E+01  4.20994655344E+01  0.00000000000E+00  1.
        3    1    4    4  804    0  2.23591644236E+01  3.19424119706E+01  8.91588559365E+01  9.73116206223E+01  1.65181236989E-06  0.00000000000E+00  1.
       -4    1    4    4    0  804 -2.41726306198E+01 -2.35779102445E+01  3.03685544459E+01  4.54324624769E+01  1.27500000000E+00  0.00000000000E+00  1.
        2    1    5    5  803    0 -1.57913472563E+01 -1.19609638897E+01  3.60683872701E+00  2.01355554920E+01  0.00000000000E+00  0.00000000000E+00  1.
       -1    1    5    5    0  803  1.76048134526E+01  3.59646216364E+00  2.77184950877E+01  3.30329982491E+01  0.00000000000E+00  0.00000000000E+00  1.
</event>
<event>
 9   0   1.0000000E+00   6.2499879E+01   7.8125000E-03   1.3828943E-01
       21   -1    0    0  501  502  0.00000000000E+00  0.00000000000E+00  2.22502576195E+01  2.22502576195E+01  0.00000000000E+00  0.00000000000E+00  1.
       21   -1    0    0  502  501  0.00000000000E+00  0.00000000000E+00 -1.75559084456E+02  1.75559084456E+02  0.00000000000E+00  0.00000000000E+00  1.
       25    2    1    2    0    0  0.00000000000E+00  0.00000000000E+00 -1.53308826836E+02  1.97809342075E+02  1.24999757705E+02  0.00000000000E+00  1.
      -24    2    3    3    0    0  1.73699227802E+01  2.09077446886E+01 -4.07563660550E+01  5.47286763125E+01  2.43987424176E+01  0.00000000000E+00  1.
       24    2    3    3    0    0 -1.73699227802E+01 -2.09077446886E+01 -1.12552460781E+02  1.43080665763E+02  8.40545803739E+01  0.00000000000E+00  1.
        1    1    4    4  803    0  2.34790941044E+01  1.84741432895E+01 -3.20087808819E+01  4.37849732647E+01  0.00000000000E+00  0.00000000000E+00  1.
       -2    1    4    4    0  803 -6.10917132423E+00  2.43360139910E+00 -8.74758517315E+00  1.09437030479E+01  0.00000000000E+00  0.00000000000E+00  1.
       12    1    5    5    0    0 -4.66373636449E+01 -2.14708809352E+01 -4.07766223117E+01  6.55650467562E+01  0.00000000000E+00  0.00000000000E+00  1.
      -11    1    5    5    0    0  2.92674408647E+01  5.63136246600E-01 -7.17758384694E+01  7.75156191064E+01  5.10999487625E-04  0.00000000000E+00  1.
</event>
<event>
 9   0   1.0000000E+00   6.2500912E+01   7.8125000E-03   1.3828905E-01
       21   -1    0    0  501  502  0.00000000000E+00  0.00000000000E+00  3.06841215427E+01  3.06841215427E+01  0.00000000000E+00  0.00000000000E+00  1.
       21   -1    0    0  502  501  0.00000000000E+00  0.00000000000E+00 -1.27308974928E+02  1.27308974928E+02  0.00000000000E+00  0.00000000000E+00  1.
       25    2    1    2    0    0  3.55271367880E-15  1.77635683940E-15 -9.66248533850E+01  1.57993096470E+02  1.25001824949E+02  0.00000000000E+00  1.
      -24    2    3    3    0    0  1.96547198539E+01 -5.91613705425E+00 -3.95575508329E+01  8.70955965943E+01  7.48300369373E+01  0.00000000000E+00  1.
       24    2    3    3    0    0 -1.96547198539E+01  5.91613705425E+00 -5.70673025521E+01  7.08974998761E+01  3.67215165527E+01  0.00000000000E+00  1.
        1    1    4    4  803    0  3.07546354752E+01  2.80313914366E+01 -2.48647546014E+01  4.84753806635E+01  0.00000000000E+00  0.00000000000E+00  1.
       -2    1    4    4    0  803 -1.10999156213E+01 -3.39475284909E+01 -1.46927962315E+01  3.86202159308E+01  1.13091861969E-06  0.00000000000E+00  1.
        2    1    5    5  804    0  2.63349201982E+00 -1.26514302968E+00  4.30889615199E+00  5.20600164739E+00  0.00000000000E+00  0.00000000000E+00  1.
       -1    1    5    5    0  804 -2.22882118737E+01  7.18128008393E+00 -6.13761987041E+01  6.56914982288E+01  0.00000000000E+00  0.00000000000E+00  1.
</event>
<event>
 9   0   1.0000000E+00   6.2503285E+01   7.8125000E-03   1.3828816E-01
       21   -1    0    0  501  502  0.00000000000E+00  0.00000000000E+00  5.22666999174E+01  5.22666999174E+01  0.00000000000E+00  0.00000000000E+00  1.
       21   -1    0    0  502  501  0.00000000000E+00  0.00000000000E+00 -7.47447340161E+01  7.47447340161E+01  0.00000000000E+00  0.00000000000E+00  1.
       25    2    1    2    0    0  0.00000000000E+00 -7.10542735760E-15 -2.24780340987E+01  1.27011433933E+02  1.25006569159E+02  0.00000000000E+00  1.
       24    2    3    3    0    0 -2.79874526670E+01  1.05789489468E+01 -3.12569452369E+01  8.04165412971E+01  6.77835660100E+01  0.00000000000E+00  1.
      -24    2    3    3    0    0  2.79874526670E+01 -1.05789489468E+01  8.77891113828E+00  4.65948926364E+01  3.46237356653E+01  0.00000000000E+00  1.
        2    1    4    4  804    0 -8.39739603176E-01  3.50139083683E+01 -4.87815302601E+00  3.53620604430E+01  0.00000000000E+00  0.00000000000E+00  1.
       -1    1    4    4    0  804 -2.71477130638E+01 -2.44349594215E+01 -2.63787922109E+01  4.50544808541E+01  0.00000000000E+00  0.00000000000E+00  1.
       11    1    5    5    0    0  3.14069970077E+01 -1.74453719942E+01  1.25389193898E+01  3.80521348256E+01  5.11000238492E-04  0.00000000000E+00  1.
      -12    1    5    5    0    0 -3.41954434078E+00  6.86642304731E+00 -3.76000825150E+00  8.54275781083E+00  0.00000000000E+00  0.00000000000E+00  1.
</event>
<event>
 9   0   1.0000000E+00   6.2501423E+01   7.8125000E-03   1.3828885E-01
       21   -1    0    0  501  502  0.00000000000E+00  0.00000000000E+00  5.43646626939E+01  5.43646626939E+01  0.00000000000E+00  0.00000000000E+00  1.
       21   -1    0    0  502  501  0.00000000000E+00  0.00000000000E+00 -7.18560133126E+01  7.18560133126E+01  0.00000000000E+00  0.00000000000E+00  1.
       25    2    1    2    0    0 -3.55271367880E-15  7.10542735760E-15 -1.74913506188E+01  1.26220676006E+02  1.25002846788E+02  0.00000000000E+00  1.
       24    2    3    3    0    0  3.71000541602E+00  2.89385759290E+01 -1.09305431933E+01  4.04332939743E+01  2.57714797815E+01  0.00000000000E+00  1.
      -24    2    3    3    0    0 -3.71000541602E+00 -2.89385759290E+01 -6.56080742551E+00  8.57873820322E+01  8.04066253792E+01  0.00000000000E+00  1.
       14    1    4    4    0    0 -8.63551972491E+00  1.74879509306E+01 -1.30422452143E+01  2.34627533251E+01  0.00000000000E+00  0.00000000000E+00  1.
      -13    1    4    4    0    0  1.23455251409E+01  1.14506249984E+01  2.11170202105E+00  1.69705407492E+01  1.05660000000E-01  0.00000000000E+00  1.
        3    1    5    5  803    0 -3.22897581676E+01 -4.28470836991E+01 -5.84782238861E+00  5.39694182063E+01  0.00000000000E+00  0.00000000000E+00  1.
       -4    1    5    5    0  803  2.85797527515E+01  1.39085077701E+01 -7.12985036900E-01  3.18179639259E+01  1.27500000000E+00  0.00000000000E+00  1.
</event>
<event>
 9   0   1.0000000E+00   6.2500024E+01   7.8125000E-03   1.3828938E-01
       21   -1    0    0  501  502  0.00000000000E+00  0.00000000000E+00  6.09909199008E+01  6.09909199008E+01  0.00000000000E+00  0.00000000000E+00  1.
       21   -1    0    0  502  501  0.00000000000E+00  0.00000000000E+00 -6.40464674855E+01  6.40464674855E+01  0.00000000000E+00  0.00000000000E+00  1.
       25    2    1    2    0    0  8.88178419700E-16 -1.77635683940E-15 -3.05554758471E+00  1.25037387386E+02  1.25000047493E+02  0.00000000000E+00  1.
      -24    2    3    3    0    0 -7.16732102481E+00  1.11672535326E+01 -1.87190289265E+01  4.36401520137E+01  3.71211904671E+01  0.00000000000E+00  1.
       24    2    3    3    0    0  7.16732102481E+00 -1.11672535326E+01  1.56634813418E+01  8.13972353726E+01  7.87660284414E+01  0.00000000000E+00  1.
        1    1    4    4  803    0 -1.56838611551E+01  1.61220359732E+01 -6.72572249029E-03  2.24923007802E+01  0.00000000000E+00  0.00000000000E+00  1.
       -2    1    4    4    0  803  8.51654013034E+00 -4.95478244055E+00 -1.87123032040E+01  2.11478514335E+01  0.00000000000E+00  0.00000000000E+00  1.
        4    1    5    5  804    0  6.29687117010E+00  1.32812603317E+00 -3.17173360211E+01  3.23887254236E+01  1.27500000000E+00  0.00000000000E+00  1.
       -3    1    5    5    0  804  8.70449854708E-01 -1.24953795658E+01  4.73808173629E+01  4.90085100490E+01  0.00000000000E+00  0.00000000000E+00  1.
</event>
<event>
 9   0   1.0000000E+00   6.2489520E+01   7.8125000E-03   1.3829330E-01
       21   -1    0    0  501  502  0.00000000000E+00  0.00000000000E+00  3.17127868608E+00  3.17127868608E+00  0.00000000000E+00  0.00000000000E+00  1.
       21   -1    0    0  502  501  0.00000000000E+00  0.00000000000E+00 -1.23134559934E+03  1.23134559934E+03  0.00000000000E+00  0.00000000000E+00  1.
       25    2    1    2    0    0  6.66133814775E-16 -3.55271367880E-15 -1.22817432065E+03  1.23451687802E+03  1.24979039113E+02  0.00000000000E+00  1.
       24    2    3    3    0    0  1.44456450099E+00 -1.40469694684E+01 -2.01425555604E+02  2.04651028589E+02  3.33224389031E+01  0.00000000000E+00  1.
      -24    2    3    3    0    0 -1.44456450099E+00  1.40469694684E+01 -1.02674876505E+03  1.02986584943E+03  7.88114026436E+01  0.00000000000E+00  1.
        2    1    4    4  803    0 -1.57352340312E+00 -2.41786376386E+01 -1.11255815550E+02  1.13863686092E+02  2.69739830470E-06  0.00000000000E+00  1.
       -1    1    4    4    0  803  3.01808790411E+00  1.01316681702E+01 -9.01697400536E+01  9.07873426971E+01  1.90734863281E-06  0.00000000000E+00  1.
        1    1    5    5  804    0  3.95950182475E+00  4.67490313630E+01 -6.07044157877E+02  6.08854464813E+02  1.07895932188E-05  0.00000000000E+00  1.
       -2    1    5    5    0  804 -5.40406632573E+00 -3.27020618946E+01 -4.19704607171E+02  4.21011384722E+02  0.00000000000E+00  0.00000000000E+00  1.
</event>
<event>
 9   0   1.0000000E+00   6.2498941E+01   7.8125000E-03   1.3828978E-01
       21   -1    0    0  501  502  0.00000000000E+00  0.00000000000E+00  2.44876425128E+01  2.44876425128E+01  0.00000000000E+00  0.00000000000E+00  1.
       21   -1    0    0  502  501  0.00000000000E+00  0.00000000000E+00 -1.59513829118E+02  1.59513829118E+02  0.00000000000E+00  0.00000000000E+00  1.
       25    2    1    2    0    0  3.55271367880E-15  3.55271367880E-15 -1.35026186606E+02  1.84001471631E+02  1.24997881955E+02  0.00000000000E+00  1.
      -24    2    3    3    0    0 -4.46263182396E-01  2.84288152728E+01 -4.71251184133E+01  6.90281464552E+01  4.16618714046E+01  0.00000000000E+00  1.
       24    2    3    3    0    0  4.46263182396E-01 -2.84288152728E+01 -8.79010681923E+01  1.14973325176E+02  6.84388122634E+01  0.00000000000E+00  1.
        1    1    4    4  803    0  1.22887290239E+01  1.90144634342E+01 -3.87421823580E+00  2.29689410345E+01  0.00000000000E+00  0.00000000000E+00  1.
       -2    1    4    4    0  803 -1.27349922063E+01  9.41435183859E+00 -4.32509001775E+01  4.60592056207E+01  0.00000000000E+00  0.00000000000E+00  1.
       16    1    5    5    0    0 -6.11248909917E+00 -4.63911200409E+01 -3.42470538924E+01  5.79858539089E+01  1.34869915235E-06  0.00000000000E+00  1.
      -15    1    5    5    0    0  6.55875228157E+00  1.79623047681E+01 -5.36540142999E+01  5.69874713670E+01  1.77680000000E+00  0.00000000000E+00  1.
</event>
</LesHouchesEvents>
