<LesHouchesEvents version="1.0">
<!--
Output from the JHUGenerator v7.5.0 described in arXiv:1001.3396 [hep-ph], arXiv:1208.4018 [hep-ph], arXiv:1309.4819 [hep-ph], arXiv:1606.03107 [hep-ph]
   
   Command line: ./JHUGen Seed=765543533 PDFSet=3 Process=0 VegasNc0=100000 VegasNc1=100 VegasNc2=100 DataFile=compare_to_reference/ggH_ZZ_Zprime Unweighted=0 WriteWeightedLHE DecayMode1=9 DecayMode2=9 ghg2=0.383432074687728,0.918260989345657 ghg3=6294.49296087723,2253.12941717723 ghg4=0.335495485382528,0.17285803562226 ghz1=0.154934976270359,0.453918144016304 ghz2=0.469297059144414,0.745302300947002 ghz3=3947.40921062637,3597.4885961919 ghz4=0.177791270766536,0.920170534486048 ghzgs2=0.0240331049939919,0.232175381101053 ghzgs3=0.331962910170583,0.0450183240308457 ghzgs4=0.808286540247172,0.133184346613754 ghgsgs2=0.530394804029869,0.211218112389125 ghgsgs3=0.914978695198138,0.055650585081425 ghgsgs4=0.694524307167701,0.511424456076726 ghz1_prime=0.143354267833606,0.0910761280837012 ghz1_prime2=7416.7007267243,4861.35525489789 ghz1_prime3=4431.44656075298,4436.48625894176 ghz1_prime4=2441.69123517064,6946.16318931911 ghz1_prime5=78314042.889773,69465359.939181 ghz1_prime6=51233058.8130761,29537873.5850
   
   Input Parameter:
    Collider: P-P, sqrt(s)=13000.00
    Resonance: spin=0, mass= 125.00 width=   0.00407
    DecayMode1: 9  DecayMode2: 9
    Z boson: mass=91.188, width=2.4952
      m(gammastar) >=     4.00 GeV
    Random seed:   765543533
    To reproduce results using this seed, JHUGen should be compiled with the same compiler:
      GNU Fortran (GCC) 6.3.0
    
    OffXVV: TTT
    WidthScheme:   2
    PChannel: 0
    PDFSet:   3
    Unweighted: F
    Interference: T
    Intermediate off-shell photons: T
    
    Spin-0-VV couplings: 
      generate_as=F
      kappa_top=  0.10000000E+01  0.00000000E+00i
      kappa_bot=  0.10000000E+01  0.00000000E+00i
      ghg2=  0.38343207E+00  0.91826099E+00i
      ghg3=  0.62944930E+04  0.22531294E+04i
      ghg4=  0.33549549E+00  0.17285804E+00i
      ghz1=  0.15493498E+00  0.45391814E+00i
      ghz2=  0.46929706E+00  0.74530230E+00i
      ghz3=  0.39474092E+04  0.35974886E+04i
      ghz4=  0.17779127E+00  0.92017053E+00i
      ghz1_prime=   0.14335427E+00  0.91076128E-01i,    Lambda_z1=  1.0000E+04
      ghz1_prime2=  0.74167007E+04  0.48613553E+04i,    Lambda_z1=  1.0000E+04
      ghz1_prime3=  0.44314466E+04  0.44364863E+04i,    Lambda_z1=  1.0000E+04
      ghz1_prime4=  0.24416912E+04  0.69461632E+04i,    Lambda_z1=  1.0000E+04
      ghz1_prime5=  0.78314043E+08  0.69465360E+08i,    Lambda_z1=  1.0000E+04
      ghz1_prime6=  0.51233059E+08  0.29537874E+08i,    Lambda_z1=  1.0000E+04
      ghz1_prime7=  0.47832193E+08  0.59559650E+08i,    Lambda_z1=  1.0000E+04
      ghz2_prime=   0.57465793E+00  0.41992191E+00i,    Lambda_z2=  1.0000E+04
      ghz2_prime2=  0.43854587E+04  0.61761246E+04i,    Lambda_z2=  1.0000E+04
      ghz2_prime3=  0.45921696E+04  0.75499391E+04i,    Lambda_z2=  1.0000E+04
      ghz2_prime4=  0.84715906E+04  0.71997238E+04i,    Lambda_z2=  1.0000E+04
      ghz2_prime5=  0.19558280E+08  0.94843889E+08i,    Lambda_z2=  1.0000E+04
      ghz2_prime6=  0.23209661E+08  0.67617823E+08i,    Lambda_z2=  1.0000E+04
      ghz2_prime7=  0.70059904E+07  0.53660191E+08i,    Lambda_z2=  1.0000E+04
      ghz3_prime=   0.40457065E+04  0.19693161E+04i,    Lambda_z3=  1.0000E+04
      ghz3_prime2=  0.33402456E+08  0.37615919E+07i,    Lambda_z3=  1.0000E+04
      ghz3_prime3=  0.44855080E+08  0.12184926E+08i,    Lambda_z3=  1.0000E+04
      ghz3_prime4=  0.27878602E+08  0.78237524E+08i,    Lambda_z3=  1.0000E+04
      ghz3_prime5=  0.93246434E+12  0.63158085E+12i,    Lambda_z3=  1.0000E+04
      ghz3_prime6=  0.35811562E+12  0.41077746E+12i,    Lambda_z3=  1.0000E+04
      ghz3_prime7=  0.62298148E+12  0.61827857E+12i,    Lambda_z3=  1.0000E+04
      ghz4_prime=   0.41653395E+00  0.33115593E+00i,    Lambda_z4=  1.0000E+04
      ghz4_prime2=  0.75883756E+04  0.39234327E+04i,    Lambda_z4=  1.0000E+04
      ghz4_prime3=  0.89560755E+04  0.93020315E+04i,    Lambda_z4=  1.0000E+04
      ghz4_prime4=  0.32034411E+04  0.28637675E+04i,    Lambda_z4=  1.0000E+04
      ghz4_prime5=  0.49012574E+08  0.74595801E+08i,    Lambda_z4=  1.0000E+04
      ghz4_prime6=  0.73323810E+08  0.53968832E+08i,    Lambda_z4=  1.0000E+04
      ghz4_prime7=  0.68563876E+08  0.43025214E+08i,    Lambda_z4=  1.0000E+04
      ghzgs2=  0.24033105E-01  0.23217538E+00i
      ghzgs3=  0.33196291E+00  0.45018324E-01i
      ghzgs4=  0.80828654E+00  0.13318435E+00i
      ghzgs1_prime2=  0.56689643E+04  0.70176759E+04i,  Lambda_zgs1=  1.0000E+04
      ghgsgs2=  0.53039480E+00  0.21121811E+00i
      ghgsgs3=  0.91497870E+00  0.55650585E-01i
      ghgsgs4=  0.69452431E+00  0.51142446E+00i
      ghzzp2=  0.15493498E+00  0.45391814E+00i
      ghzzp4=  0.39474092E+04  0.35974886E+04i
      ghzzp1_prime2=  0.75883756E+04  0.39234327E+04i,    Lambda_z1=  1.0000E+04
      ghzzp1_prime4=  0.32034411E+04  0.28637675E+04i,    Lambda_z1=  1.0000E+04
      ghzzp1_prime6=  0.73323810E+08  0.53968832E+08i,    Lambda_z1=  1.0000E+04
      ghzzp2_prime=   0.14335427E+00  0.91076128E-01i,    Lambda_z2=  1.0000E+04
      ghzzp2_prime3=  0.44314466E+04  0.44364863E+04i,    Lambda_z2=  1.0000E+04
      ghzzp2_prime5=  0.78314043E+08  0.69465360E+08i,    Lambda_z2=  1.0000E+04
      ghzzp2_prime7=  0.47832193E+08  0.59559650E+08i,    Lambda_z2=  1.0000E+04
      ghzzp3_prime2=  0.43854587E+04  0.61761246E+04i,    Lambda_z3=  1.0000E+04
      ghzzp3_prime4=  0.84715906E+04  0.71997238E+04i,    Lambda_z3=  1.0000E+04
      ghzzp3_prime6=  0.23209661E+08  0.67617823E+08i,    Lambda_z3=  1.0000E+04
      ghzzp4_prime=   0.40457065E+04  0.19693161E+04i,    Lambda_z4=  1.0000E+04
      ghzzp4_prime3=  0.44855080E+08  0.12184926E+08i,    Lambda_z4=  1.0000E+04
      ghzzp4_prime5=  0.93246434E+12  0.63158085E+12i,    Lambda_z4=  1.0000E+04
      ghzzp4_prime7=  0.62298148E+12  0.61827857E+12i,    Lambda_z4=  1.0000E+04
      ghzpgs2=  0.24033105E-01  0.23217538E+00i
      ghzpgs3=  0.33196291E+00  0.45018324E-01i
      ghzpgs4=  0.80828654E+00  0.13318435E+00i
      ghzpgs1_prime2=  0.56689643E+04  0.70176759E+04i,  Lambda_zgs1=  1.0000E+04
      ghzpzp1=  0.17779127E+00  0.92017053E+00i
      ghzpzp3=  0.46929706E+00  0.74530230E+00i
      ghzpzp1_prime=   0.41653395E+00  0.33115593E+00i,    Lambda_z1=  1.0000E+04
      ghzpzp1_prime3=  0.89560755E+04  0.93020315E+04i,    Lambda_z1=  1.0000E+04
      ghzpzp1_prime5=  0.49012574E+08  0.74595801E+08i,    Lambda_z1=  1.0000E+04
      ghzpzp1_prime7=  0.68563876E+08  0.43025214E+08i,    Lambda_z1=  1.0000E+04
      ghzpzp2_prime2=  0.74167007E+04  0.48613553E+04i,    Lambda_z2=  1.0000E+04
      ghzpzp2_prime4=  0.24416912E+04  0.69461632E+04i,    Lambda_z2=  1.0000E+04
      ghzpzp2_prime6=  0.51233059E+08  0.29537874E+08i,    Lambda_z2=  1.0000E+04
      ghzpzp3_prime=   0.57465793E+00  0.41992191E+00i,    Lambda_z3=  1.0000E+04
      ghzpzp3_prime3=  0.45921696E+04  0.75499391E+04i,    Lambda_z3=  1.0000E+04
      ghzpzp3_prime5=  0.19558280E+08  0.94843889E+08i,    Lambda_z3=  1.0000E+04
      ghzpzp3_prime7=  0.70059904E+07  0.53660191E+08i,    Lambda_z3=  1.0000E+04
      ghzpzp4_prime2=  0.33402456E+08  0.37615919E+07i,    Lambda_z4=  1.0000E+04
      ghzpzp4_prime4=  0.27878602E+08  0.78237524E+08i,    Lambda_z4=  1.0000E+04
      ghzpzp4_prime6=  0.35811562E+12  0.41077746E+12i,    Lambda_z4=  1.0000E+04
      Lambda=  1000.0
      Lambda_Q=  10000.0
      Lambda_z11=   1.3888E+02
      Lambda_z21=   1.5452E+02
      Lambda_z31=   1.1998E+02
      Lambda_z41=   1.8136E+02
      Lambda_z12=   1.3667E+02
      Lambda_z22=   1.6659E+02
      Lambda_z32=   1.3884E+02
      Lambda_z42=   4.9064E+01
      Lambda_z10=   9.6973E+00
      Lambda_z20=   1.9326E+02
      Lambda_z30=   8.9204E+01
      Lambda_z40=   1.6167E+02
    Z' boson: mass=50.000, width=******
      ezp_El_left=    0.10000000E+01  0.00000000E+00i
      ezp_El_right=   0.20000000E+01  0.00000000E+00i
      ezp_Mu_left=    0.30000000E+01  0.40000000E+01i
      ezp_Mu_right=   0.50000000E+01  0.60000000E+01i
      ezp_Ta_left=    0.20000000E+01  0.50000000E+01i
      ezp_Ta_right=   0.70000000E+01  0.30000000E+01i
      ezp_NuE_left=   0.10000000E+01  0.40000000E+01i
      ezp_NuE_right=  0.80000000E+01  0.20000000E+01i
      ezp_Up_left=    0.10000000E+01  0.10000000E+01i
      ezp_Up_right=   0.00000000E+00  0.40000000E+01i
      ezp_Dn_left=    0.90000000E+01  0.10000000E+01i
      ezp_Dn_right=   0.50000000E+01  0.40000000E+01i
      ezp_Str_left=   0.10000000E+01  0.30000000E+01i
      ezp_Str_right=  0.50000000E+01  0.30000000E+01i
      ezp_Chm_left=   0.10000000E+02  0.20000000E+01i
      ezp_Chm_right=  0.80000000E+01  0.30000000E+01i
      ezp_Bot_left=   0.10000000E+01  0.30000000E+01i
      ezp_Bot_right=  0.40000000E+01  0.40000000E+01i
    
    LHE output: compare_to_reference/ggH_ZZ_Zprime.lhe
    Histogram output: compare_to_reference/ggH_ZZ_Zprime.dat
    Log file: compare_to_reference/ggH_ZZ_Zprime.log
    
-->
<init>
2212 2212   6500.0000000000000000    6500.0000000000000000 0 0  263000  263000  4  1
 1.0000000E+00  1.0000000E+14  1.0000000E+00   0
</init>
<event>
 9   0   9.0811370E-06   6.2499992E+01   7.8125000E-03   1.3828939E-01
       21   -1    0    0  501  502  0.00000000000E+00  0.00000000000E+00  1.89046637128E+03  1.89046637128E+03  0.00000000000E+00  0.00000000000E+00  1.
       21   -1    0    0  502  501  0.00000000000E+00  0.00000000000E+00 -2.06628856038E+00  2.06628856038E+00  0.00000000000E+00  0.00000000000E+00  1.
       25    2    1    2    0    0  0.00000000000E+00  0.00000000000E+00  1.88840008272E+03  1.89253265984E+03  1.24999984588E+02  0.00000000000E+00  1.
       23    2    3    3    0    0 -8.70870339824E+00  2.13680764831E+01  1.19025378526E+03  1.19211853866E+03  6.25307978384E+01  0.00000000000E+00  1.
       23    2    3    3    0    0  8.70870339824E+00 -2.13680764831E+01  6.98146297457E+02  7.00414121180E+02  5.13736536364E+01  0.00000000000E+00  1.
        4    1    4    4  804    0 -1.17966628688E+01 -2.10066247064E+01  4.16979834527E+02  4.17677204984E+02  1.27499999997E+00  0.00000000000E+00  1.
       -4    1    4    4    0  804  3.08795947052E+00  4.23747011896E+01  7.73273950734E+02  7.74441333674E+02  1.27499999999E+00  0.00000000000E+00  1.
        1    1    5    5  803    0  1.64529141862E+01 -2.83491500075E+00  7.06280222021E+01  7.25744627845E+01  1.08735601911E-05  0.00000000000E+00  1.
       -1    1    5    5    0  803 -7.74421078799E+00 -1.85331614824E+01  6.27518275255E+02  6.27839658395E+02  7.62939453125E-06  0.00000000000E+00  1.
</event>
<event>
 9   0   1.2740621E-09   6.2497791E+01   7.8125000E-03   1.3829021E-01
       21   -1    0    0  501  502  0.00000000000E+00  0.00000000000E+00  1.75938338054E+03  1.75938338054E+03  0.00000000000E+00  0.00000000000E+00  1.
       21   -1    0    0  502  501  0.00000000000E+00  0.00000000000E+00 -2.22008112470E+00  2.22008112470E+00  0.00000000000E+00  0.00000000000E+00  1.
       25    2    1    2    0    0 -3.55271367880E-15 -3.55271367880E-15  1.75716329941E+03  1.76160346166E+03  1.24995581270E+02  0.00000000000E+00  1.
       23    2    3    3    0    0 -2.21841163218E+01  1.94199939705E+01  6.55934010925E+02  6.58604408855E+02  5.13913367545E+01  0.00000000000E+00  1.
       23    2    3    3    0    0  2.21841163218E+01 -1.94199939705E+01  1.10122928849E+03  1.10299905281E+03  5.50608162449E+01  0.00000000000E+00  1.
        3    1    4    4  803    0  1.24031059097E+01 -8.23078889816E+00  1.50517964469E+02  1.51252241471E+02  3.81469726562E-06  0.00000000000E+00  1.
       -3    1    4    4    0  803 -3.45872222316E+01  2.76507828687E+01  5.05416046455E+02  5.07352167484E+02  9.34406182397E-06  0.00000000000E+00  1.
       11    1    5    5    0    0  2.50954417861E+01 -1.77863744831E+01  2.67437428286E+02  2.69200509591E+02  5.11027074320E-04  0.00000000000E+00  1.
      -11    1    5    5    0    0 -2.91132546423E+00 -1.63361948741E+00  8.33791860204E+02  8.33798543217E+02  5.10998597706E-04  0.00000000000E+00  1.
</event>
<event>
 9   0   2.1977096E-10   6.2479393E+01   7.8125000E-03   1.3829708E-01
       21   -1    0    0  501  502  0.00000000000E+00  0.00000000000E+00  9.34595485001E+02  9.34595485001E+02  0.00000000000E+00  0.00000000000E+00  1.
       21   -1    0    0  502  501  0.00000000000E+00  0.00000000000E+00 -4.17686003810E+00  4.17686003810E+00  0.00000000000E+00  0.00000000000E+00  1.
       25    2    1    2    0    0  0.00000000000E+00  3.55271367880E-15  9.30418624963E+02  9.38772345039E+02  1.24958785735E+02  0.00000000000E+00  1.
       23    2    3    3    0    0  6.94555302431E+00  2.87909523954E+01  5.81230653104E+02  5.84580843098E+02  5.50320848500E+01  0.00000000000E+00  1.
       23    2    3    3    0    0 -6.94555302431E+00 -2.87909523954E+01  3.49187971859E+02  3.54191501941E+02  5.14025360235E+01  0.00000000000E+00  1.
        4    1    4    4  804    0 -4.48398187979E+00 -1.57144002878E+01  1.70423827884E+02  1.71210266063E+02  1.27500000000E+00  0.00000000000E+00  1.
       -4    1    4    4    0  804  1.14295349041E+01  4.45053526832E+01  4.10806825220E+02  4.13370577035E+02  1.27499999999E+00  0.00000000000E+00  1.
       15    1    5    5    0    0  1.57151051806E+01 -2.51559188496E+01  2.72719136027E+02  2.74333134997E+02  1.77680000000E+00  0.00000000000E+00  1.
      -15    1    5    5    0    0 -2.26606582049E+01 -3.63503354577E+00  7.64688358326E+01  7.98583669442E+01  1.77680000000E+00  0.00000000000E+00  1.
</event>
<event>
 9   0   4.7419135E-02   6.2499018E+01   7.8125000E-03   1.3828975E-01
       21   -1    0    0  501  502  0.00000000000E+00  0.00000000000E+00  1.90608628764E+03  1.90608628764E+03  0.00000000000E+00  0.00000000000E+00  1.
       21   -1    0    0  502  501  0.00000000000E+00  0.00000000000E+00 -2.04929190709E+00  2.04929190709E+00  0.00000000000E+00  0.00000000000E+00  1.
       25    2    1    2    0    0  8.88178419700E-16 -3.55271367880E-15  1.90403699573E+03  1.90813557955E+03  1.24998035240E+02  0.00000000000E+00  1.
       23    2    3    3    0    0 -5.36980844727E+00 -2.36642964857E+01  5.96315614856E+02  5.99016137297E+02  5.13730128603E+01  0.00000000000E+00  1.
       23    2    3    3    0    0  5.36980844727E+00  2.36642964857E+01  1.30772138088E+03  1.30911944225E+03  5.54046054343E+01  0.00000000000E+00  1.
        4    1    4    4  804    0 -1.89057991114E+00 -3.98853743227E+01  4.44355662755E+02  4.46147955307E+02  1.27499999998E+00  0.00000000000E+00  1.
       -4    1    4    4    0  804 -3.47922853613E+00  1.62210778369E+01  1.51959952101E+02  1.52868181990E+02  1.27500000000E+00  0.00000000000E+00  1.
        3    1    5    5  803    0 -1.62982225558E+01  8.26139418626E+00  1.52293980636E+02  1.53386241985E+02  1.77905636846E-05  0.00000000000E+00  1.
       -3    1    5    5    0  803  2.16680310031E+01  1.54029022995E+01  1.15542740024E+03  1.15573320027E+03  1.52587890625E-05  0.00000000000E+00  1.
</event>
<event>
 9   0   6.4813668E-14   6.2497886E+01   7.8125000E-03   1.3829018E-01
       21   -1    0    0  501  502  0.00000000000E+00  0.00000000000E+00  1.75456935803E+03  1.75456935803E+03  0.00000000000E+00  0.00000000000E+00  1.
       21   -1    0    0  502  501  0.00000000000E+00  0.00000000000E+00 -2.22617917468E+00  2.22617917468E+00  0.00000000000E+00  0.00000000000E+00  1.
       25    2    1    2    0    0 -1.77635683940E-15  1.42108547152E-14  1.75234317886E+03  1.75679553720E+03  1.24995772175E+02  0.00000000000E+00  1.
       23    2    3    3    0    0 -8.17909644336E+00 -3.45088631613E+01  6.66841106366E+02  6.69756737268E+02  5.13737941072E+01  0.00000000000E+00  1.
       23    2    3    3    0    0  8.17909644336E+00  3.45088631613E+01  1.08550207249E+03  1.08703879994E+03  4.56162683053E+01  0.00000000000E+00  1.
       12    1    4    4    0    0 -2.74245804656E+00 -4.77728562571E+01  5.36481239616E+02  5.38611072518E+02  1.32144989591E-05  0.00000000000E+00  1.
      -12    1    4    4    0    0 -5.43663839680E+00  1.32639930957E+01  1.30359866749E+02  1.31145664949E+02  1.04469787122E-05  0.00000000000E+00  1.
        3    1    5    5  803    0  1.46449638016E+01  2.49307251168E+01  2.86936999506E+02  2.88390113843E+02  6.60724947956E-06  0.00000000000E+00  1.
       -3    1    5    5    0  803 -6.46586735822E+00  9.57813804450E+00  7.98565072984E+02  7.98648686193E+02  0.00000000000E+00  0.00000000000E+00  1.
</event>
<event>
 9   0   3.6141002E-04   6.2499018E+01   7.8125000E-03   1.3828975E-01
       21   -1    0    0  501  502  0.00000000000E+00  0.00000000000E+00  1.63988110809E+02  1.63988110809E+02  0.00000000000E+00  0.00000000000E+00  1.
       21   -1    0    0  502  501  0.00000000000E+00  0.00000000000E+00 -2.38195757421E+01  2.38195757421E+01  0.00000000000E+00  0.00000000000E+00  1.
       25    2    1    2    0    0  8.88178419700E-16  0.00000000000E+00  1.40168535067E+02  1.87807686551E+02  1.24998035604E+02  0.00000000000E+00  1.
       23    2    3    3    0    0  5.92429385571E+00  2.88951240973E+01  4.69553337829E+01  7.55930255226E+01  5.13758375378E+01  0.00000000000E+00  1.
       23    2    3    3    0    0 -5.92429385571E+00 -2.88951240973E+01  9.32132012842E+01  1.12214661029E+02  5.50763452113E+01  0.00000000000E+00  1.
        3    1    4    4  804    0  4.67345107800E+00 -1.47553133224E+01  1.04419954021E+01  1.86707172920E+01  0.00000000000E+00  0.00000000000E+00  1.
       -3    1    4    4    0  804  1.25084277771E+00  4.36504374197E+01  3.65133383808E+01  5.69223082306E+01  0.00000000000E+00  0.00000000000E+00  1.
       11    1    5    5    0    0  1.03012911528E+01 -2.42999652536E+00 -3.09478949022E+00  1.10272029445E+01  5.11001644627E-04  0.00000000000E+00  1.
      -11    1    5    5    0    0 -1.62255850085E+01 -2.64651275720E+01  9.63079907744E+01  1.01187458084E+02  5.11000377541E-04  0.00000000000E+00  1.
</event>
<event>
 9   0   3.9409547E-06   6.2498981E+01   7.8125000E-03   1.3828977E-01
       21   -1    0    0  501  502  0.00000000000E+00  0.00000000000E+00  1.85518437902E+03  1.85518437902E+03  0.00000000000E+00  0.00000000000E+00  1.
       21   -1    0    0  502  501  0.00000000000E+00  0.00000000000E+00 -2.10551719501E+00  2.10551719501E+00  0.00000000000E+00  0.00000000000E+00  1.
       25    2    1    2    0    0 -1.77635683940E-15  0.00000000000E+00  1.85307886182E+03  1.85728989621E+03  1.24997961742E+02  0.00000000000E+00  1.
       23    2    3    3    0    0 -1.05570368871E+01 -4.50561397993E+01  7.45143545899E+02  7.48348835495E+02  5.14350933789E+01  0.00000000000E+00  1.
       23    2    3    3    0    0  1.05570368871E+01  4.50561397993E+01  1.10793531593E+03  1.10894106072E+03  9.38643236234E+00  0.00000000000E+00  1.
       12    1    4    4    0    0 -4.66407909269E+00 -5.60352639457E+01  6.41300211914E+02  6.43760566025E+02  1.07895932188E-05  0.00000000000E+00  1.
      -12    1    4    4    0    0 -5.89295779443E+00  1.09791241463E+01  1.03843333985E+02  1.04588269670E+02  1.90734863281E-06  0.00000000000E+00  1.
        2    1    5    5  804    0  7.54858045448E+00  2.45198519030E+01  5.08899662210E+02  5.09545945329E+02  7.62939453125E-06  0.00000000000E+00  1.
       -2    1    5    5    0  804  3.00845643264E+00  2.05362878963E+01  5.99035653715E+02  5.99395115390E+02  1.07895932188E-05  0.00000000000E+00  1.
</event>
<event>
 9   0   2.7934122E-08   6.2497779E+01   7.8125000E-03   1.3829022E-01
       21   -1    0    0  501  502  0.00000000000E+00  0.00000000000E+00  1.93959403990E+03  1.93959403990E+03  0.00000000000E+00  0.00000000000E+00  1.
       21   -1    0    0  502  501  0.00000000000E+00  0.00000000000E+00 -2.01380924867E+00  2.01380924867E+00  0.00000000000E+00  0.00000000000E+00  1.
       25    2    1    2    0    0  2.66453525910E-15  3.55271367880E-15  1.93758023065E+03  1.94160784914E+03  1.24995558580E+02  0.00000000000E+00  1.
       23    2    3    3    0    0 -7.04504892577E+00 -2.96294191814E+01  7.64082262252E+02  7.66414054167E+02  5.13932266146E+01  0.00000000000E+00  1.
       23    2    3    3    0    0  7.04504892577E+00  2.96294191814E+01  1.17349796840E+03  1.17519379498E+03  5.52760230985E+01  0.00000000000E+00  1.
        1    1    4    4  803    0 -3.32121967968E+00 -4.43489198066E+01  5.51484493583E+02  5.53274799581E+02  0.00000000000E+00  0.00000000000E+00  1.
       -1    1    4    4    0  803 -3.72382924609E+00  1.47195006252E+01  2.12597768668E+02  2.13139254687E+02  6.60724947956E-06  0.00000000000E+00  1.
        4    1    5    5  804    0  1.63681293371E+01  2.42960312906E+01  2.62678668753E+02  2.64310274937E+02  1.27499999998E+00  0.00000000000E+00  1.
       -4    1    5    5    0  804 -9.32308041136E+00  5.33338789082E+00  9.10819299642E+02  9.10883520040E+02  1.27499999986E+00  0.00000000000E+00  1.
</event>
<event>
 9   0   8.7300653E-05   6.2499995E+01   7.8125000E-03   1.3828939E-01
       21   -1    0    0  501  502  0.00000000000E+00  0.00000000000E+00  9.80003818695E+02  9.80003818695E+02  0.00000000000E+00  0.00000000000E+00  1.
       21   -1    0    0  502  501  0.00000000000E+00  0.00000000000E+00 -3.98595317440E+00  3.98595317440E+00  0.00000000000E+00  0.00000000000E+00  1.
       25    2    1    2    0    0  8.88178419700E-16  7.10542735760E-15  9.76017865521E+02  9.83989771870E+02  1.24999989313E+02  0.00000000000E+00  1.
       23    2    3    3    0    0 -5.81757009000E+00 -2.54458611045E+01  5.65654119163E+02  5.71889466126E+02  8.00727355031E+01  0.00000000000E+00  1.
       23    2    3    3    0    0  5.81757009000E+00  2.54458611045E+01  4.10363746358E+02  4.12100305744E+02  2.73298682744E+01  0.00000000000E+00  1.
        2    1    4    4  803    0 -1.54784224531E+01 -5.28723084862E+01  3.79522757341E+02  3.83500438048E+02  5.39479660939E-06  0.00000000000E+00  1.
       -2    1    4    4    0  803  9.66085236308E+00  2.74264473817E+01  1.86131361821E+02  1.88389028278E+02  3.81469726562E-06  0.00000000000E+00  1.
        5    1    5    5  804    0 -4.67513617666E+00  7.03142169714E+00  4.22582702385E+01  4.33546040566E+01  4.75000000000E+00  0.00000000000E+00  1.
       -5    1    5    5    0  804  1.04927062667E+01  1.84144394073E+01  3.68105476119E+02  3.68745701687E+02  4.75000000001E+00  0.00000000000E+00  1.
</event>
<event>
 9   0   3.5185641E-04   6.2499019E+01   7.8125000E-03   1.3828975E-01
       21   -1    0    0  501  502  0.00000000000E+00  0.00000000000E+00  1.54184746663E+02  1.54184746663E+02  0.00000000000E+00  0.00000000000E+00  1.
       21   -1    0    0  502  501  0.00000000000E+00  0.00000000000E+00 -2.53340709776E+01  2.53340709776E+01  0.00000000000E+00  0.00000000000E+00  1.
       25    2    1    2    0    0 -3.55271367880E-15 -3.55271367880E-15  1.28850675685E+02  1.79518817640E+02  1.24998037035E+02  0.00000000000E+00  1.
       23    2    3    3    0    0 -6.61301433988E+00 -2.87011740275E+01  4.23183804916E+01  7.27953949942E+01  5.13890538511E+01  0.00000000000E+00  1.
       23    2    3    3    0    0  6.61301433988E+00  2.87011740275E+01  8.65322951936E+01  1.06723422646E+02  5.50868539729E+01  0.00000000000E+00  1.
        2    1    4    4  804    0  1.41211489270E+01 -2.80546330553E+01  4.14863503282E+01  5.20344745956E+01  0.00000000000E+00  0.00000000000E+00  1.
       -2    1    4    4    0  804 -2.07341632668E+01 -6.46540972217E-01  8.32030163371E-01  2.07609204986E+01  0.00000000000E+00  0.00000000000E+00  1.
        4    1    5    5  803    0  1.86754128448E+01  1.79838950634E+01  8.92999814738E+00  2.74510841041E+01  1.27500000000E+00  0.00000000000E+00  1.
       -4    1    5    5    0  803 -1.20623985050E+01  1.07172789641E+01  7.76022970462E+01  7.92723385422E+01  1.27500000000E+00  0.00000000000E+00  1.
</event>
<event>
 9   0   5.4993264E-05   6.2460622E+01   7.8125000E-03   1.3830409E-01
       21   -1    0    0  501  502  0.00000000000E+00  0.00000000000E+00  1.99093790105E+03  1.99093790105E+03  0.00000000000E+00  0.00000000000E+00  1.
       21   -1    0    0  502  501  0.00000000000E+00  0.00000000000E+00 -1.95954344518E+00  1.95954344518E+00  0.00000000000E+00  0.00000000000E+00  1.
       25    2    1    2    0    0 -2.22044604925E-15  0.00000000000E+00  1.98897835760E+03  1.99289744449E+03  1.24921244210E+02  0.00000000000E+00  1.
       23    2    3    3    0    0 -2.85486757918E-01  2.96250318403E+01  1.24124767282E+03  1.24281822480E+03  5.49875495253E+01  0.00000000000E+00  1.
       23    2    3    3    0    0  2.85486757918E-01 -2.96250318403E+01  7.47730684783E+02  7.50079219692E+02  5.13802961618E+01  0.00000000000E+00  1.
        3    1    4    4  803    0  3.36295584004E+00 -1.61150620166E+01  3.61790206879E+02  3.62164546252E+02  1.61843898282E-05  0.00000000000E+00  1.
       -3    1    4    4    0  803 -3.64844259796E+00  4.57400938570E+01  8.79457465939E+02  8.80653678647E+02  0.00000000000E+00  0.00000000000E+00  1.
       16    1    5    5    0    0  1.33982132365E+01 -1.23070394752E+01  8.19854082294E+01  8.39796552810E+01  1.65181236989E-06  0.00000000000E+00  1.
      -16    1    5    5    0    0 -1.31127264786E+01 -1.73179923651E+01  6.65745276554E+02  6.66099564511E+02  7.62939453125E-06  0.00000000000E+00  1.
</event>
<event>
 9   0   6.3500640E-10   6.2499981E+01   7.8125000E-03   1.3828939E-01
       21   -1    0    0  501  502  0.00000000000E+00  0.00000000000E+00  1.66157427232E+02  1.66157427232E+02  0.00000000000E+00  0.00000000000E+00  1.
       21   -1    0    0  502  501  0.00000000000E+00  0.00000000000E+00 -2.35093169966E+01  2.35093169966E+01  0.00000000000E+00  0.00000000000E+00  1.
       25    2    1    2    0    0  0.00000000000E+00 -7.10542735760E-15  1.42648110236E+02  1.89666744229E+02  1.24999962050E+02  0.00000000000E+00  1.
       23    2    3    3    0    0 -7.21212886486E+00 -2.85635878643E+01  4.78718341547E+01  7.61514410249E+01  5.13754426783E+01  0.00000000000E+00  1.
       23    2    3    3    0    0  7.21212886486E+00  2.85635878643E+01  9.47762760813E+01  1.13515303204E+02  5.50934496946E+01  0.00000000000E+00  1.
       14    1    4    4    0    0 -3.88586017533E+00 -3.89500375734E+01  5.14732937995E+01  6.46661064529E+01  0.00000000000E+00  0.00000000000E+00  1.
      -14    1    4    4    0    0 -3.32626868953E+00  1.03864497091E+01 -3.60145964482E+00  1.14853347720E+01  1.13562100430E-06  0.00000000000E+00  1.
        3    1    5    5  803    0  1.63272178675E+01  2.34910279999E+01  1.36078802042E+01  3.16793442131E+01  0.00000000000E+00  0.00000000000E+00  1.
       -3    1    5    5    0  803 -9.11508900261E+00  5.07255986446E+00  8.11683958770E+01  8.18359590911E+01  0.00000000000E+00  0.00000000000E+00  1.
</event>
<event>
 9   0   5.1118458E-03   6.2499995E+01   7.8125000E-03   1.3828939E-01
       21   -1    0    0  501  502  0.00000000000E+00  0.00000000000E+00  1.10096619836E+03  1.10096619836E+03  0.00000000000E+00  0.00000000000E+00  1.
       21   -1    0    0  502  501  0.00000000000E+00  0.00000000000E+00 -3.54801940091E+00  3.54801940091E+00  0.00000000000E+00  0.00000000000E+00  1.
       25    2    1    2    0    0  3.55271367880E-15  0.00000000000E+00  1.09741817896E+03  1.10451421776E+03  1.24999990905E+02  0.00000000000E+00  1.
       23    2    3    3    0    0 -2.82092496674E+01  8.47822734641E+00  4.09098901562E+02  4.13365719670E+02  5.13971286506E+01  0.00000000000E+00  1.
       23    2    3    3    0    0  2.82092496674E+01 -8.47822734641E+00  6.88319277398E+02  6.91148498092E+02  5.50924375100E+01  0.00000000000E+00  1.
        3    1    4    4  804    0  1.43072779749E+01 -3.98552176399E+00  9.35775171095E+01  9.47487957452E+01  3.30362473978E-06  0.00000000000E+00  1.
       -3    1    4    4    0  804 -4.25165276424E+01  1.24637491104E+01  3.15521384452E+02  3.18616923925E+02  3.81469726562E-06  0.00000000000E+00  1.
       15    1    5    5    0    0  4.10239334082E+01  1.69710862873E+00  3.45734754124E+02  3.48168810374E+02  1.77680000002E+00  0.00000000000E+00  1.
      -15    1    5    5    0    0 -1.28146837407E+01 -1.01753359751E+01  3.42584523274E+02  3.42979687718E+02  1.77680000001E+00  0.00000000000E+00  1.
</event>
<event>
 9   0   9.2630154E-05   6.2499017E+01   7.8125000E-03   1.3828975E-01
       21   -1    0    0  501  502  0.00000000000E+00  0.00000000000E+00  1.93956660588E+03  1.93956660588E+03  0.00000000000E+00  0.00000000000E+00  1.
       21   -1    0    0  502  501  0.00000000000E+00  0.00000000000E+00 -2.01391751495E+00  2.01391751495E+00  0.00000000000E+00  0.00000000000E+00  1.
       25    2    1    2    0    0  0.00000000000E+00  3.55271367880E-15  1.93755268836E+03  1.94158052339E+03  1.24998034528E+02  0.00000000000E+00  1.
       23    2    3    3    0    0 -2.35878606937E+01  1.82554421952E+01  7.35360924228E+02  7.37756749464E+02  5.13778566758E+01  0.00000000000E+00  1.
       23    2    3    3    0    0  2.35878606937E+01 -1.82554421952E+01  1.20219176413E+03  1.20382377393E+03  5.51089156142E+01  0.00000000000E+00  1.
       14    1    4    4    0    0 -6.24669674954E+00 -1.80729411287E+01  2.25799215274E+02  2.26607453728E+02  5.39479660939E-06  0.00000000000E+00  1.
      -14    1    4    4    0    0 -1.73411639442E+01  3.63283833239E+01  5.09561708953E+02  5.11149295836E+02  5.39479660939E-06  0.00000000000E+00  1.
       13    1    5    5    0    0  2.73736704734E+01 -7.32020606903E+00  2.56363344830E+02  2.57924560654E+02  1.05659999126E-01  0.00000000000E+00  1.
      -13    1    5    5    0    0 -3.78580977973E+00 -1.09352361261E+01  9.45828419304E+02  9.45899213274E+02  1.05659998575E-01  0.00000000000E+00  1.
</event>
<event>
 9   0   2.2702773E-14   6.2500054E+01   7.8125000E-03   1.3828937E-01
       21   -1    0    0  501  502  0.00000000000E+00  0.00000000000E+00  1.93933357155E+03  1.93933357155E+03  0.00000000000E+00  0.00000000000E+00  1.
       21   -1    0    0  502  501  0.00000000000E+00  0.00000000000E+00 -2.01422635600E+00  2.01422635600E+00  0.00000000000E+00  0.00000000000E+00  1.
       25    2    1    2    0    0  3.55271367880E-15  3.55271367880E-15  1.93731934519E+03  1.94134779790E+03  1.25000108686E+02  0.00000000000E+00  1.
       23    2    3    3    0    0 -2.29646927865E+01  1.84780265767E+01  7.22890427441E+02  7.25313172006E+02  5.13791087732E+01  0.00000000000E+00  1.
       23    2    3    3    0    0  2.29646927865E+01 -1.84780265767E+01  1.21442891775E+03  1.21603462590E+03  5.50799467372E+01  0.00000000000E+00  1.
       15    1    4    4    0    0 -3.87748063837E+01  6.74770298234E+00  4.97659241865E+02  4.99216280922E+02  1.77680000003E+00  0.00000000000E+00  1.
      -15    1    4    4    0    0  1.58101135971E+01  1.17303235943E+01  2.25231185577E+02  2.26096891084E+02  1.77680000000E+00  0.00000000000E+00  1.
        1    1    5    5  804    0  2.34961149502E+01  3.77951277426E-01  1.92137105815E+02  1.93568793287E+02  1.82946453984E-05  0.00000000000E+00  1.
       -1    1    5    5    0  804 -5.31422163706E-01 -1.88559778541E+01  1.02229181193E+03  1.02246583281E+03  2.15791864376E-05  0.00000000000E+00  1.
</event>
<event>
 9   0   2.2100342E-05   6.2495554E+01   7.8125000E-03   1.3829105E-01
       21   -1    0    0  501  502  0.00000000000E+00  0.00000000000E+00  1.93956887395E+03  1.93956887395E+03  0.00000000000E+00  0.00000000000E+00  1.
       21   -1    0    0  502  501  0.00000000000E+00  0.00000000000E+00 -2.01369199490E+00  2.01369199490E+00  0.00000000000E+00  0.00000000000E+00  1.
       25    2    1    2    0    0 -1.77635683940E-15  1.42108547152E-14  1.93755518195E+03  1.94158256594E+03  1.24991108724E+02  0.00000000000E+00  1.
       23    2    3    3    0    0 -8.25958806255E+00 -3.40281773881E+01  7.36301601915E+02  7.38922356176E+02  5.13815319313E+01  0.00000000000E+00  1.
       23    2    3    3    0    0  8.25958806255E+00  3.40281773881E+01  1.20125358004E+03  1.20266020977E+03  4.64249819553E+01  0.00000000000E+00  1.
        2    1    4    4  804    0 -3.94324107913E+00 -4.75658384238E+01  5.93199418515E+02  5.95116466132E+02  7.62939453125E-06  0.00000000000E+00  1.
       -2    1    4    4    0  804 -4.31634698342E+00  1.35376610357E+01  1.43102183400E+02  1.43805890044E+02  1.25073214041E-05  0.00000000000E+00  1.
        3    1    5    5  803    0  1.68587629471E+01  1.81478863769E+01  2.47658848092E+02  2.48894493121E+02  6.60724947956E-06  0.00000000000E+00  1.
       -3    1    5    5    0  803 -8.59917488457E+00  1.58802910113E+01  9.53594731947E+02  9.53765716745E+02  1.07895932188E-05  0.00000000000E+00  1.
</event>
<event>
 9   0   9.3201733E-11   6.2501265E+01   7.8125000E-03   1.3828891E-01
       21   -1    0    0  501  502  0.00000000000E+00  0.00000000000E+00  1.63079721334E+02  1.63079721334E+02  0.00000000000E+00  0.00000000000E+00  1.
       21   -1    0    0  502  501  0.00000000000E+00  0.00000000000E+00 -2.39539785241E+01  2.39539785241E+01  0.00000000000E+00  0.00000000000E+00  1.
       25    2    1    2    0    0  0.00000000000E+00  0.00000000000E+00  1.39125742810E+02  1.87033699858E+02  1.25002530255E+02  0.00000000000E+00  1.
       23    2    3    3    0    0 -2.28379350590E+01 -1.99939111391E+01  8.19629743417E+01  9.70300892337E+01  4.21376469841E+01  0.00000000000E+00  1.
       23    2    3    3    0    0  2.28379350590E+01  1.99939111391E+01  5.71627684685E+01  9.00036106247E+01  6.25439051075E+01  0.00000000000E+00  1.
       14    1    4    4    0    0 -9.37064380572E+00 -3.23210074571E+01  5.17584983349E+01  6.17365259652E+01  0.00000000000E+00  0.00000000000E+00  1.
      -14    1    4    4    0    0 -1.34672912533E+01  1.23270963180E+01  3.02044760069E+01  3.52935632685E+01  0.00000000000E+00  0.00000000000E+00  1.
        4    1    5    5  803    0  2.83155053640E+01  2.24883991221E+01  3.90527952667E+00  3.63919327911E+01  1.27500000000E+00  0.00000000000E+00  1.
       -4    1    5    5    0  803 -5.47757030498E+00 -2.49448798300E+00  5.32574889418E+01  5.36116778336E+01  1.27500000000E+00  0.00000000000E+00  1.
</event>
<event>
 9   0   5.0085168E-01   6.2497869E+01   7.8125000E-03   1.3829018E-01
       21   -1    0    0  501  502  0.00000000000E+00  0.00000000000E+00  1.63382467117E+02  1.63382467117E+02  0.00000000000E+00  0.00000000000E+00  1.
       21   -1    0    0  502  501  0.00000000000E+00  0.00000000000E+00 -2.39069934601E+01  2.39069934601E+01  0.00000000000E+00  0.00000000000E+00  1.
       25    2    1    2    0    0  8.88178419700E-16 -7.10542735760E-15  1.39475473657E+02  1.87289460577E+02  1.24995737093E+02  0.00000000000E+00  1.
       23    2    3    3    0    0 -5.62144378444E+00  3.00357027908E+01  8.89836970074E+01  1.09041914610E+02  5.51207468780E+01  0.00000000000E+00  1.
       23    2    3    3    0    0  5.62144378444E+00 -3.00357027908E+01  5.04917766492E+01  7.82475459667E+01  5.13762091659E+01  0.00000000000E+00  1.
        3    1    4    4  804    0 -1.77940151119E+00 -9.96122343580E+00 -1.31774006263E+00  1.02043462794E+01  1.63227240818E-06  0.00000000000E+00  1.
       -3    1    4    4    0  804 -3.84204227325E+00  3.99969262266E+01  9.03014370700E+01  9.88375684308E+01  0.00000000000E+00  0.00000000000E+00  1.
        1    1    5    5  803    0 -3.31573676418E+00 -1.79810078880E+00 -1.01124809608E+01  1.07930324783E+01  0.00000000000E+00  0.00000000000E+00  1.
       -1    1    5    5    0  803  8.93718054861E+00 -2.82376020020E+01  6.06042576100E+01  6.74545136884E+01  1.65181236989E-06  0.00000000000E+00  1.
</event>
<event>
 9   0   1.9490599E-10   6.2499966E+01   7.8125000E-03   1.3828940E-01
       21   -1    0    0  501  502  0.00000000000E+00  0.00000000000E+00  1.80563158622E+03  1.80563158622E+03  0.00000000000E+00  0.00000000000E+00  1.
       21   -1    0    0  502  501  0.00000000000E+00  0.00000000000E+00 -2.16336808330E+00  2.16336808330E+00  0.00000000000E+00  0.00000000000E+00  1.
       25    2    1    2    0    0 -1.77635683940E-15  3.55271367880E-15  1.80346821814E+03  1.80779495430E+03  1.24999931901E+02  0.00000000000E+00  1.
       23    2    3    3    0    0 -3.62923185696E+00 -1.57059967985E+01  1.29181742073E+03  1.29294060756E+03  5.14131938952E+01  0.00000000000E+00  1.
       23    2    3    3    0    0  3.62923185696E+00  1.57059967985E+01  5.11650797404E+02  5.14854346745E+02  5.50328103801E+01  0.00000000000E+00  1.
        3    1    4    4  803    0  1.51854653056E+01 -2.28367788778E+01  1.02451134942E+03  1.02487834504E+03  2.15791864376E-05  0.00000000000E+00  1.
       -3    1    4    4    0  803 -1.88146971626E+01  7.13078207933E+00  2.67306071313E+02  2.68062262724E+02  1.32144989591E-05  0.00000000000E+00  1.
        2    1    5    5  804    0  1.49645516209E+01  1.88882741645E+01  9.40670499317E+01  9.71046579160E+01  5.87884331033E-06  0.00000000000E+00  1.
       -2    1    5    5    0  804 -1.13353197639E+01 -3.18227736600E+00  4.17583747473E+02  4.17749688829E+02  7.62939453125E-06  0.00000000000E+00  1.
</event>
<event>
 9   0   1.3144906E-08   6.2499976E+01   7.8125000E-03   1.3828940E-01
       21   -1    0    0  501  502  0.00000000000E+00  0.00000000000E+00  1.63310918944E+02  1.63310918944E+02  0.00000000000E+00  0.00000000000E+00  1.
       21   -1    0    0  502  501  0.00000000000E+00  0.00000000000E+00 -2.39190804693E+01  2.39190804693E+01  0.00000000000E+00  0.00000000000E+00  1.
       25    2    1    2    0    0  3.55271367880E-15  3.55271367880E-15  1.39391838475E+02  1.87229999413E+02  1.24999952188E+02  0.00000000000E+00  1.
       23    2    3    3    0    0 -7.18839223017E+00 -2.85810414643E+01  4.66285204807E+01  7.53986789058E+01  5.14022659469E+01  0.00000000000E+00  1.
       23    2    3    3    0    0  7.18839223017E+00  2.85810414643E+01  9.27633179940E+01  1.11831320508E+02  5.50696120121E+01  0.00000000000E+00  1.
        2    1    4    4  804    0 -1.09558348264E+01 -4.29033017895E+01  3.72952489840E+01  5.78935162996E+01  1.26159253648E-06  0.00000000000E+00  1.
       -2    1    4    4    0  804  3.76744259621E+00  1.43222603251E+01  9.33327149675E+00  1.75051628061E+01  1.28392334154E-06  0.00000000000E+00  1.
        5    1    5    5  803    0  1.60630555172E+01  2.32719915705E+01  1.33892019709E+01  3.16455458734E+01  4.75000000000E+00  0.00000000000E+00  1.
       -5    1    5    5    0  803 -8.87466328702E+00  5.30904989380E+00  7.93741160231E+01  8.01857746342E+01  4.75000000000E+00  0.00000000000E+00  1.
</event>
<event>
 9   0   1.9350891E-12   6.2495712E+01   7.8125000E-03   1.3829099E-01
       21   -1    0    0  501  502  0.00000000000E+00  0.00000000000E+00  1.75467281011E+03  1.75467281011E+03  0.00000000000E+00  0.00000000000E+00  1.
       21   -1    0    0  502  501  0.00000000000E+00  0.00000000000E+00 -2.22589307282E+00  2.22589307282E+00  0.00000000000E+00  0.00000000000E+00  1.
       25    2    1    2    0    0 -1.77635683940E-15  1.42108547152E-14  1.75244691703E+03  1.75689870318E+03  1.24991424555E+02  0.00000000000E+00  1.
       23    2    3    3    0    0 -6.77832653215E+00 -2.87129041350E+01  6.54780114411E+02  6.57457380887E+02  5.14084903435E+01  0.00000000000E+00  1.
       23    2    3    3    0    0  6.77832653215E+00  2.87129041350E+01  1.09766680262E+03  1.09944132229E+03  5.50312185129E+01  0.00000000000E+00  1.
        4    1    4    4  803    0 -2.72182918840E+00 -4.35702578679E+01  5.03067124298E+02  5.04959337867E+02  1.27499999999E+00  0.00000000000E+00  1.
       -4    1    4    4    0  803 -4.05649734375E+00  1.48573537329E+01  1.51712990113E+02  1.52498043019E+02  1.27500000001E+00  0.00000000000E+00  1.
        4    1    5    5  804    0  2.46005926890E+01  3.10906760101E+01  5.27349546104E+02  5.28839284373E+02  1.27499999990E+00  0.00000000000E+00  1.
       -4    1    5    5    0  804 -1.78222661569E+01 -2.37777187508E+00  5.70317256518E+02  5.70602037919E+02  1.27499999999E+00  0.00000000000E+00  1.
</event>
<event>
 9   0   3.3751547E-10   6.2499019E+01   7.8125000E-03   1.3828975E-01
       21   -1    0    0  501  502  0.00000000000E+00  0.00000000000E+00  1.74067883626E+03  1.74067883626E+03  0.00000000000E+00  0.00000000000E+00  1.
       21   -1    0    0  502  501  0.00000000000E+00  0.00000000000E+00 -2.24402534763E+00  2.24402534763E+00  0.00000000000E+00  0.00000000000E+00  1.
       25    2    1    2    0    0  0.00000000000E+00  0.00000000000E+00  1.73843481091E+03  1.74292286161E+03  1.24998038875E+02  0.00000000000E+00  1.
       23    2    3    3    0    0 -5.33884090267E+00 -2.10902494717E+01  1.15245519935E+03  1.15618672325E+03  9.02299876082E+01  0.00000000000E+00  1.
       23    2    3    3    0    0  5.33884090267E+00  2.10902494717E+01  5.85979611562E+02  5.86736138359E+02  2.03442631737E+01  0.00000000000E+00  1.
       14    1    4    4    0    0  4.12516020787E+01 -2.08467390490E+01  5.79734587290E+02  5.81574133627E+02  7.62939453125E-06  0.00000000000E+00  1.
      -14    1    4    4    0    0 -4.65904429814E+01 -2.43510422722E-01  5.72720612061E+02  5.74612589724E+02  1.32144989591E-05  0.00000000000E+00  1.
        3    1    5    5  803    0  8.17002319762E+00  1.01689224256E+01  1.38160411694E+02  1.38774837955E+02  5.04637014592E-06  0.00000000000E+00  1.
       -3    1    5    5    0  803 -2.83118229495E+00  1.09213270462E+01  4.47819199869E+02  4.47961300603E+02  9.34406182397E-06  0.00000000000E+00  1.
</event>
<event>
 9   0   1.1046636E+00   6.2499737E+01   7.8125000E-03   1.3828948E-01
       21   -1    0    0  501  502  0.00000000000E+00  0.00000000000E+00  1.83403166573E+03  1.83403166573E+03  0.00000000000E+00  0.00000000000E+00  1.
       21   -1    0    0  502  501  0.00000000000E+00  0.00000000000E+00 -2.12985259417E+00  2.12985259417E+00  0.00000000000E+00  0.00000000000E+00  1.
       25    2    1    2    0    0  0.00000000000E+00  0.00000000000E+00  1.83190181313E+03  1.83616151832E+03  1.24999473616E+02  0.00000000000E+00  1.
       23    2    3    3    0    0  5.10380821994E+00  2.09584868143E+01  1.16987973063E+03  1.17178983926E+03  6.33051042110E+01  0.00000000000E+00  1.
       23    2    3    3    0    0 -5.10380821994E+00 -2.09584868143E+01  6.62022082505E+02  6.64371679066E+02  5.14896416113E+01  0.00000000000E+00  1.
        4    1    5    5  804    0 -1.90061619176E+00 -3.81473599929E+01  4.69829565929E+02  4.71381247042E+02  1.27500000007E+00  0.00000000000E+00  1.
       -4    1    4    4    0  803  2.25063717996E+01  2.99745993543E+00  9.80260999406E+02  9.80524744266E+02  1.27499999995E+00  0.00000000000E+00  1.
        4    1    4    4  803    0 -1.74025635797E+01  1.79610268788E+01  1.89618731223E+02  1.91265094989E+02  1.27499999999E+00  0.00000000000E+00  1.
       -4    1    5    5    0  804 -3.20319202818E+00  1.71888731787E+01  1.92192516576E+02  1.92990432025E+02  1.27500000000E+00  0.00000000000E+00  1.
</event>
<event>
 9   0   1.1899533E-06   6.2499019E+01   7.8125000E-03   1.3828975E-01
       21   -1    0    0  501  502  0.00000000000E+00  0.00000000000E+00  1.75661781645E+03  1.75661781645E+03  0.00000000000E+00  0.00000000000E+00  1.
       21   -1    0    0  502  501  0.00000000000E+00  0.00000000000E+00 -2.22366373273E+00  2.22366373273E+00  0.00000000000E+00  0.00000000000E+00  1.
       25    2    1    2    0    0 -4.44089209850E-15  3.55271367880E-15  1.75439415272E+03  1.75884148018E+03  1.24998037276E+02  0.00000000000E+00  1.
       23    2    3    3    0    0  5.55952402831E+00  2.19634381237E+01  1.23166394138E+03  1.23310459873E+03  5.51142992818E+01  0.00000000000E+00  1.
       23    2    3    3    0    0 -5.55952402831E+00 -2.19634381237E+01  5.22730211338E+02  5.25736881456E+02  5.13721106830E+01  0.00000000000E+00  1.
       15    1    4    4    0    0  4.92967627371E+00 -1.83274858003E+01  4.42939964418E+02  4.43349938018E+02  1.77680000002E+00  0.00000000000E+00  1.
      -15    1    4    4    0    0  6.29847754598E-01  4.02909239240E+01  7.88723976961E+02  7.89754660709E+02  1.77679999999E+00  0.00000000000E+00  1.
       14    1    5    5    0    0 -1.88124125247E+01 -4.96399630290E+00  7.48209712791E+01  7.73092871712E+01  6.10649513000E-06  0.00000000000E+00  1.
      -14    1    5    5    0    0  1.32528884964E+01 -1.69994418208E+01  4.47909240059E+02  4.48427594485E+02  5.39479660939E-06  0.00000000000E+00  1.
</event>
<event>
 9   0   8.7341912E-05   6.2497785E+01   7.8125000E-03   1.3829021E-01
       21   -1    0    0  501  502  0.00000000000E+00  0.00000000000E+00  1.99104192407E+03  1.99104192407E+03  0.00000000000E+00  0.00000000000E+00  1.
       21   -1    0    0  502  501  0.00000000000E+00  0.00000000000E+00 -1.96177339570E+00  1.96177339570E+00  0.00000000000E+00  0.00000000000E+00  1.
       25    2    1    2    0    0  0.00000000000E+00  7.10542735760E-15  1.98908015068E+03  1.99300369747E+03  1.24995569143E+02  0.00000000000E+00  1.
       23    2    3    3    0    0 -5.14220928030E+00 -2.21002995219E+01  9.07596471993E+02  9.10017773697E+02  6.23388074545E+01  0.00000000000E+00  1.
       23    2    3    3    0    0  5.14220928030E+00  2.21002995219E+01  1.08148367868E+03  1.08298592377E+03  5.23134616722E+01  0.00000000000E+00  1.
        1    1    4    4  804    0  5.82391178210E-01 -4.38325900764E+01  6.12796534192E+02  6.14362456187E+02  7.62939453125E-06  0.00000000000E+00  1.
       -1    1    4    4    0  804 -5.72460045851E+00  2.17322905545E+01  2.94799937801E+02  2.95655317610E+02  6.60724947956E-06  0.00000000000E+00  1.
       16    1    5    5    0    0  2.26753758741E+01  2.65092847653E+01  4.97025808755E+02  4.98248501672E+02  5.39479660939E-06  0.00000000000E+00  1.
      -16    1    5    5    0    0 -1.75331665938E+01 -4.40898524343E+00  5.84457869927E+02  5.84737422098E+02  0.00000000000E+00  0.00000000000E+00  1.
</event>
<event>
 9   0   7.9873947E-18   6.2499019E+01   7.8125000E-03   1.3828975E-01
       21   -1    0    0  501  502  0.00000000000E+00  0.00000000000E+00  1.63286720238E+02  1.63286720238E+02  0.00000000000E+00  0.00000000000E+00  1.
       21   -1    0    0  502  501  0.00000000000E+00  0.00000000000E+00 -2.39218922675E+01  2.39218922675E+01  0.00000000000E+00  0.00000000000E+00  1.
       25    2    1    2    0    0  8.88178419700E-16 -3.55271367880E-15  1.39364827970E+02  1.87208612505E+02  1.24998037268E+02  0.00000000000E+00  1.
       23    2    3    3    0    0 -6.66347210793E+00 -2.86857079249E+01  4.65798912544E+01  7.53589311580E+01  5.14004915960E+01  0.00000000000E+00  1.
       23    2    3    3    0    0  6.66347210793E+00  2.86857079249E+01  9.27849367157E+01  1.11849681347E+02  5.50820754550E+01  0.00000000000E+00  1.
        4    1    4    4  803    0 -3.21982586228E+00 -4.35972983091E+01  3.67513412493E+01  5.71259871430E+01  1.27500000000E+00  0.00000000000E+00  1.
       -4    1    4    4    0  803 -3.44364624565E+00  1.49115903842E+01  9.82855000513E+00  1.82329440150E+01  1.27500000000E+00  0.00000000000E+00  1.
       11    1    5    5    0    0  2.32795913334E+01  3.12827579413E+01  8.45821809633E+01  9.31380462209E+01  5.11003937192E-04  0.00000000000E+00  1.
      -11    1    5    5    0    0 -1.66161192255E+01 -2.59705001635E+00  8.20275575233E+00  1.87116351262E+01  5.11000780784E-04  0.00000000000E+00  1.
</event>
<event>
 9   0   5.2618142E-02   6.2498993E+01   7.8125000E-03   1.3828976E-01
       21   -1    0    0  501  502  0.00000000000E+00  0.00000000000E+00  1.93921846437E+03  1.93921846437E+03  0.00000000000E+00  0.00000000000E+00  1.
       21   -1    0    0  502  501  0.00000000000E+00  0.00000000000E+00 -2.01427752505E+00  2.01427752505E+00  0.00000000000E+00  0.00000000000E+00  1.
       25    2    1    2    0    0 -3.55271367880E-15  3.55271367880E-15  1.93720418685E+03  1.94123274190E+03  1.24997986687E+02  0.00000000000E+00  1.
       23    2    3    3    0    0 -6.31442424304E+00 -2.83042296313E+01  8.51614416135E+02  8.54476753105E+02  6.35799218159E+01  0.00000000000E+00  1.
       23    2    3    3    0    0  6.31442424304E+00  2.83042296313E+01  1.08558977071E+03  1.08675598879E+03  4.11391241277E+01  0.00000000000E+00  1.
       13    1    4    4    0    0  2.16966276249E+01 -3.48793380574E+01  5.13423961518E+02  5.15064546730E+02  1.05659999677E-01  0.00000000000E+00  1.
      -13    1    4    4    0    0 -2.80110518679E+01  6.57510842604E+00  3.38190454618E+02  3.39412206375E+02  1.05659999608E-01  0.00000000000E+00  1.
        2    1    5    5  804    0 -3.53611121896E+00  2.34476637903E+01  2.56568379520E+02  2.57661852902E+02  5.39479660939E-06  0.00000000000E+00  1.
       -2    1    5    5    0  804  9.85053546200E+00  4.85656584102E+00  8.29021391193E+02  8.29094136092E+02  1.07895932188E-05  0.00000000000E+00  1.
</event>
<event>
 9   0   8.5837961E-10   6.2499799E+01   7.8125000E-03   1.3828946E-01
       21   -1    0    0  501  502  0.00000000000E+00  0.00000000000E+00  1.99582838057E+03  1.99582838057E+03  0.00000000000E+00  0.00000000000E+00  1.
       21   -1    0    0  502  501  0.00000000000E+00  0.00000000000E+00 -1.95719480066E+00  1.95719480066E+00  0.00000000000E+00  0.00000000000E+00  1.
       25    2    1    2    0    0  0.00000000000E+00 -3.55271367880E-15  1.99387118577E+03  1.99778557537E+03  1.24999598871E+02  0.00000000000E+00  1.
       23    2    3    3    0    0  7.29351376545E+00  2.85431609222E+01  1.24991942033E+03  1.25148042884E+03  5.51071600028E+01  0.00000000000E+00  1.
       23    2    3    3    0    0 -7.29351376545E+00 -2.85431609222E+01  7.43951765440E+02  7.46305146527E+02  5.13734858955E+01  0.00000000000E+00  1.
        2    1    4    4  803    0  6.83225032388E+00 -1.62224219166E+01  3.88280006687E+02  3.88678800924E+02  7.62939453125E-06  0.00000000000E+00  1.
       -2    1    4    4    0  803  4.61263441562E-01  4.47655828388E+01  8.61639413640E+02  8.62801628117E+02  1.07895932188E-05  0.00000000000E+00  1.
       14    1    5    5    0    0  8.20555056066E+00 -5.63650751731E+00  2.63058754148E+01  2.81265063301E+01  5.69216555896E-06  0.00000000000E+00  1.
      -14    1    5    5    0    0 -1.54990643261E+01 -2.29066534049E+01  7.17645890025E+02  7.18178640197E+02  0.00000000000E+00  0.00000000000E+00  1.
</event>
<event>
 9   0   2.3834205E-10   6.2497778E+01   7.8125000E-03   1.3829022E-01
       21   -1    0    0  501  502  0.00000000000E+00  0.00000000000E+00  1.74445551711E+03  1.74445551711E+03  0.00000000000E+00  0.00000000000E+00  1.
       21   -1    0    0  502  501  0.00000000000E+00  0.00000000000E+00 -2.23907815667E+00  2.23907815667E+00  0.00000000000E+00  0.00000000000E+00  1.
       25    2    1    2    0    0 -2.66453525910E-15 -7.10542735760E-15  1.74221643896E+03  1.74669459527E+03  1.24995555819E+02  0.00000000000E+00  1.
       23    2    3    3    0    0 -7.20075307966E+00 -2.85840432196E+01  6.50642091180E+02  6.53335424149E+02  5.14115479278E+01  0.00000000000E+00  1.
       23    2    3    3    0    0  7.20075307966E+00  2.85840432196E+01  1.09157434778E+03  1.09335917112E+03  5.50529016500E+01  0.00000000000E+00  1.
       13    1    4    4    0    0 -2.53620071094E+00 -3.81822980009E+01  6.13451984945E+02  6.14644343659E+02  1.05660000779E-01  0.00000000000E+00  1.
      -13    1    4    4    0    0 -4.66455236872E+00  9.59825478135E+00  3.71901062352E+01  3.86910804898E+01  1.05660000531E-01  0.00000000000E+00  1.
        3    1    5    5  803    0  2.41257806520E+01  2.62342200403E+00  7.46975680219E+02  7.47369789644E+02  1.52587890625E-05  0.00000000000E+00  1.
       -3    1    5    5    0  803 -1.69250275723E+01  2.59606212155E+01  3.44598667559E+02  3.45989381478E+02  7.62939453125E-06  0.00000000000E+00  1.
</event>
<event>
 9   0   2.7776451E-07   6.2495448E+01   7.8125000E-03   1.3829109E-01
       21   -1    0    0  501  502  0.00000000000E+00  0.00000000000E+00  1.67228610538E+02  1.67228610538E+02  0.00000000000E+00  0.00000000000E+00  1.
       21   -1    0    0  502  501  0.00000000000E+00  0.00000000000E+00 -2.33553396968E+01  2.33553396968E+01  0.00000000000E+00  0.00000000000E+00  1.
       25    2    1    2    0    0 -3.55271367880E-15  0.00000000000E+00  1.43873270841E+02  1.90583950235E+02  1.24990895767E+02  0.00000000000E+00  1.
       23    2    3    3    0    0 -2.36362676177E+01  1.90001933545E+01  5.16691755854E+01  7.89222771225E+01  5.13745231231E+01  0.00000000000E+00  1.
       23    2    3    3    0    0  2.36362676177E+01 -1.90001933545E+01  9.22040952555E+01  1.11661673112E+02  5.52001228792E+01  0.00000000000E+00  1.
        5    1    4    4  804    0 -6.22179026539E+00 -1.73597596192E+01  1.55387528393E+01  2.45781868319E+01  4.75000000000E+00  0.00000000000E+00  1.
       -5    1    4    4    0  804 -1.74144773523E+01  3.63599529737E+01  3.61304227461E+01  5.43440902906E+01  4.75000000000E+00  0.00000000000E+00  1.
        1    1    5    5  803    0  2.39738206980E+01  5.49520477114E-02  7.91772107626E+00  2.52475228623E+01  0.00000000000E+00  0.00000000000E+00  1.
       -1    1    5    5    0  803 -3.37553080373E-01 -1.90551454023E+01  8.42863741792E+01  8.64141504497E+01  1.65181236989E-06  0.00000000000E+00  1.
</event>
<event>
 9   0   9.6307364E-08   6.2501265E+01   7.8125000E-03   1.3828891E-01
       21   -1    0    0  501  502  0.00000000000E+00  0.00000000000E+00  1.63103237561E+02  1.63103237561E+02  0.00000000000E+00  0.00000000000E+00  1.
       21   -1    0    0  502  501  0.00000000000E+00  0.00000000000E+00 -2.39505246481E+01  2.39505246481E+01  0.00000000000E+00  0.00000000000E+00  1.
       25    2    1    2    0    0 -3.55271367880E-15 -7.10542735760E-15  1.39152712912E+02  1.87053762209E+02  1.25002529756E+02  0.00000000000E+00  1.
       23    2    3    3    0    0  7.15683029290E+00  2.85872638910E+01  9.26486080637E+01  1.11725157059E+02  5.50481086602E+01  0.00000000000E+00  1.
       23    2    3    3    0    0 -7.15683029290E+00 -2.85872638910E+01  4.65041048488E+01  7.53286051498E+01  5.14131803083E+01  0.00000000000E+00  1.
        3    1    4    4  804    0  2.49367730157E+01 -4.03284207371E+00  3.91537084108E+01  4.65952718123E+01  0.00000000000E+00  0.00000000000E+00  1.
       -3    1    4    4    0  804 -1.77799427228E+01  3.26201059648E+01  5.34948996529E+01  6.51298854465E+01  1.16800772800E-06  0.00000000000E+00  1.
        5    1    5    5  803    0 -1.08906981942E+01 -2.12581009872E+00 -7.97198158791E+00  1.44651777096E+01  4.75000000000E+00  0.00000000000E+00  1.
       -5    1    5    5    0  803  3.73386790131E+00 -2.64614537923E+01  5.44760864367E+01  6.08634274402E+01  4.75000000000E+00  0.00000000000E+00  1.
</event>
<event>
 9   0   1.5337022E-09   6.2497438E+01   7.8125000E-03   1.3829034E-01
       21   -1    0    0  501  502  0.00000000000E+00  0.00000000000E+00  1.93941249968E+03  1.93941249968E+03  0.00000000000E+00  0.00000000000E+00  1.
       21   -1    0    0  502  501  0.00000000000E+00  0.00000000000E+00 -2.01397577611E+00  2.01397577611E+00  0.00000000000E+00  0.00000000000E+00  1.
       25    2    1    2    0    0 -8.88178419700E-16  0.00000000000E+00  1.93739852390E+03  1.94142647546E+03  1.24994876603E+02  0.00000000000E+00  1.
       23    2    3    3    0    0 -7.85516608206E+00 -3.44214977271E+01  7.37476139648E+02  7.40108713156E+02  5.14131072741E+01  0.00000000000E+00  1.
       23    2    3    3    0    0  7.85516608206E+00  3.44214977271E+01  1.19992238425E+03  1.20131776230E+03  4.58704113684E+01  0.00000000000E+00  1.
        4    1    4    4  803    0 -2.33643846528E+01 -3.94259198838E+01  5.67102176626E+02  5.68952372337E+02  1.27499999999E+00  0.00000000000E+00  1.
       -4    1    4    4    0  803  1.55092185708E+01  5.00442215670E+00  1.70373963022E+02  1.71156340820E+02  1.27500000002E+00  0.00000000000E+00  1.
        4    1    5    5  804    0  1.39030169265E+01  2.43544477582E+01  2.98302342932E+02  2.99620337142E+02  1.27499999999E+00  0.00000000000E+00  1.
       -4    1    5    5    0  804 -6.04785084448E+00  1.00670499689E+01  9.01620041323E+02  9.01697425157E+02  1.27500000009E+00  0.00000000000E+00  1.
</event>
<event>
 9   0   2.5467245E-12   6.2473165E+01   7.8125000E-03   1.3829941E-01
       21   -1    0    0  501  502  0.00000000000E+00  0.00000000000E+00  1.93957019800E+03  1.93957019800E+03  0.00000000000E+00  0.00000000000E+00  1.
       21   -1    0    0  502  501  0.00000000000E+00  0.00000000000E+00 -2.01224805491E+00  2.01224805491E+00  0.00000000000E+00  0.00000000000E+00  1.
       25    2    1    2    0    0  0.00000000000E+00  0.00000000000E+00  1.93755794994E+03  1.94158244605E+03  1.24946330211E+02  0.00000000000E+00  1.
       23    2    3    3    0    0  7.24679998701E+00  2.85806075535E+01  1.21424382739E+03  1.21584485874E+03  5.49661799732E+01  0.00000000000E+00  1.
       23    2    3    3    0    0 -7.24679998701E+00 -2.85806075535E+01  7.23314122553E+02  7.25737587309E+02  5.14038764135E+01  0.00000000000E+00  1.
        5    1    4    4  803    0  4.76812206345E+00 -1.59971579951E+01  3.73533728270E+02  3.73936696122E+02  4.75000000001E+00  0.00000000000E+00  1.
       -5    1    4    4    0  803  2.47867792357E+00  4.45777655486E+01  8.40710099119E+02  8.41908162620E+02  4.75000000004E+00  0.00000000000E+00  1.
        4    1    5    5  804    0  1.06109410305E+01 -1.31963557254E+01  7.12235068859E+01  7.32198704731E+01  1.27500000002E+00  0.00000000000E+00  1.
       -4    1    5    5    0  804 -1.78577410175E+01 -1.53842518280E+01  6.52090615668E+02  6.52517716836E+02  1.27500000004E+00  0.00000000000E+00  1.
</event>
<event>
 9   0   2.5517404E-09   6.2499995E+01   7.8125000E-03   1.3828939E-01
       21   -1    0    0  501  502  0.00000000000E+00  0.00000000000E+00  1.75100765882E+03  1.75100765882E+03  0.00000000000E+00  0.00000000000E+00  1.
       21   -1    0    0  502  501  0.00000000000E+00  0.00000000000E+00 -2.23085799157E+00  2.23085799157E+00  0.00000000000E+00  0.00000000000E+00  1.
       25    2    1    2    0    0  8.88178419700E-16  0.00000000000E+00  1.74877680083E+03  1.75323851681E+03  1.24999990864E+02  0.00000000000E+00  1.
       23    2    3    3    0    0 -7.22185058155E+00  2.06764972863E+01  1.23770286269E+03  1.23912245684E+03  5.51036664780E+01  0.00000000000E+00  1.
       23    2    3    3    0    0  7.22185058155E+00 -2.06764972863E+01  5.11073938136E+02  5.14116059973E+02  5.13719788819E+01  0.00000000000E+00  1.
        2    1    4    4  804    0 -1.20639199400E+00 -1.89620337919E+01  4.47452827576E+02  4.47856056231E+02  5.39479660939E-06  0.00000000000E+00  1.
       -2    1    4    4    0  804 -6.01545858755E+00  3.96385310782E+01  7.90250035117E+02  7.91266400709E+02  1.52587890625E-05  0.00000000000E+00  1.
        3    1    5    5  803    0  2.31489441222E+01  3.23618708119E+00  1.40597652192E+02  1.42527352893E+02  1.90734863281E-06  0.00000000000E+00  1.
       -3    1    5    5    0  803 -1.59270935407E+01 -2.39126843675E+01  3.70476285945E+02  3.71588707080E+02  0.00000000000E+00  0.00000000000E+00  1.
</event>
<event>
 9   0   6.1458291E-09   6.2497644E+01   7.8125000E-03   1.3829027E-01
       21   -1    0    0  501  502  0.00000000000E+00  0.00000000000E+00  1.63113078943E+02  1.63113078943E+02  0.00000000000E+00  0.00000000000E+00  1.
       21   -1    0    0  502  501  0.00000000000E+00  0.00000000000E+00 -2.39463046841E+01  2.39463046841E+01  0.00000000000E+00  0.00000000000E+00  1.
       25    2    1    2    0    0 -3.55271367880E-15 -3.55271367880E-15  1.39166774259E+02  1.87059383627E+02  1.24995287693E+02  0.00000000000E+00  1.
       23    2    3    3    0    0 -4.17222321109E+00 -2.13959043023E+01  1.04415772359E+02  1.18406085482E+02  5.14019006884E+01  0.00000000000E+00  1.
       23    2    3    3    0    0  4.17222321109E+00  2.13959043023E+01  3.47510018998E+01  6.86532981452E+01  5.50495326568E+01  0.00000000000E+00  1.
        2    1    4    4  803    0  1.91806330236E-01 -3.82679699058E+01  6.77963270867E+01  7.78512445426E+01  1.65181236989E-06  0.00000000000E+00  1.
       -2    1    4    4    0  803 -4.36402954133E+00  1.68720656034E+01  3.66194452725E+01  4.05548410395E+01  0.00000000000E+00  0.00000000000E+00  1.
        2    1    5    5  804    0  1.54692706885E+01  2.25420356327E+01 -4.57610743600E+00  2.77197126773E+01  0.00000000000E+00  0.00000000000E+00  1.
       -2    1    5    5    0  804 -1.12970474774E+01 -1.14613133039E+00  3.93271093358E+01  4.09335856679E+01  0.00000000000E+00  0.00000000000E+00  1.
</event>
<event>
 9   0   4.3367986E-02   6.2497816E+01   7.8125000E-03   1.3829020E-01
       21   -1    0    0  501  502  0.00000000000E+00  0.00000000000E+00  1.76365583364E+03  1.76365583364E+03  0.00000000000E+00  0.00000000000E+00  1.
       21   -1    0    0  502  501  0.00000000000E+00  0.00000000000E+00 -2.21470475837E+00  2.21470475837E+00  0.00000000000E+00  0.00000000000E+00  1.
       25    2    1    2    0    0  0.00000000000E+00 -3.55271367880E-15  1.76144112888E+03  1.76587053840E+03  1.24995631394E+02  0.00000000000E+00  1.
       23    2    3    3    0    0  2.58619072752E+00  1.09855664948E+01  6.88531974631E+02  6.91672844735E+02  6.48665784624E+01  0.00000000000E+00  1.
       23    2    3    3    0    0 -2.58619072752E+00 -1.09855664948E+01  1.07290915425E+03  1.07419769366E+03  5.13737359194E+01  0.00000000000E+00  1.
       13    1    4    4    0    0  3.25186267065E+01 -3.27294637527E+00  3.44966225151E+02  3.46511011253E+02  1.05659999814E-01  0.00000000000E+00  1.
      -13    1    4    4    0    0 -2.99324359790E+01  1.42585128701E+01  3.43565749479E+02  3.45161833482E+02  1.05659999883E-01  0.00000000000E+00  1.
       11    1    5    5    0    0  2.26971825228E+01 -4.32425378053E+00  3.19192897684E+02  3.20028072514E+02  5.11069786266E-04  0.00000000000E+00  1.
      -11    1    5    5    0    0 -2.52833732504E+01 -6.66131271429E+00  7.53716256564E+02  7.54169621146E+02  5.10884675378E-04  0.00000000000E+00  1.
</event>
<event>
 9   0   2.9116003E-15   6.2499994E+01   7.8125000E-03   1.3828939E-01
       21   -1    0    0  501  502  0.00000000000E+00  0.00000000000E+00  1.92192662331E+03  1.92192662331E+03  0.00000000000E+00  0.00000000000E+00  1.
       21   -1    0    0  502  501  0.00000000000E+00  0.00000000000E+00 -2.03246533421E+00  2.03246533421E+00  0.00000000000E+00  0.00000000000E+00  1.
       25    2    1    2    0    0  3.55271367880E-15  0.00000000000E+00  1.91989415798E+03  1.92395908864E+03  1.24999987788E+02  0.00000000000E+00  1.
       23    2    3    3    0    0  1.76932213696E+01 -1.37546136638E+01  6.69004634598E+02  6.69716565083E+02  2.12329214540E+01  0.00000000000E+00  1.
       23    2    3    3    0    0 -1.76932213696E+01  1.37546136638E+01  1.25088952338E+03  1.25424252356E+03  8.88677035455E+01  0.00000000000E+00  1.
       14    1    4    4    0    0  1.29312810758E+01 -1.83226879813E+01  5.93685919357E+02  5.94109341593E+02  1.32144989591E-05  0.00000000000E+00  1.
      -14    1    4    4    0    0  4.76194029382E+00  4.56807431751E+00  7.53187152411E+01  7.56072234902E+01  1.18731494884E-05  0.00000000000E+00  1.
        1    1    5    5  804    0  1.13830671819E+01  2.17440666971E+01  1.00345616715E+02  1.03303540450E+02  1.26519195189E-05  0.00000000000E+00  1.
       -1    1    5    5    0  804 -2.90762885515E+01 -7.98945303330E+00  1.15054390666E+03  1.15093898321E+03  0.00000000000E+00  0.00000000000E+00  1.
</event>
<event>
 9   0   4.9050366E-06   6.2499019E+01   7.8125000E-03   1.3828975E-01
       21   -1    0    0  501  502  0.00000000000E+00  0.00000000000E+00  9.34388064046E+02  9.34388064046E+02  0.00000000000E+00  0.00000000000E+00  1.
       21   -1    0    0  502  501  0.00000000000E+00  0.00000000000E+00 -4.18041231178E+00  4.18041231178E+00  0.00000000000E+00  0.00000000000E+00  1.
       25    2    1    2    0    0  7.10542735760E-15  0.00000000000E+00  9.30207651734E+02  9.38568476358E+02  1.24998037855E+02  0.00000000000E+00  1.
       23    2    3    3    0    0  5.24161538013E+00  2.13695674333E+01  6.57336824828E+02  6.60033460263E+02  5.53925486643E+01  0.00000000000E+00  1.
       23    2    3    3    0    0 -5.24161538013E+00 -2.13695674333E+01  2.72870826906E+02  2.78535016095E+02  5.13725030578E+01  0.00000000000E+00  1.
        3    1    5    5  804    0 -2.81925902813E+01 -1.54122602091E+01  1.62453278356E+02  1.65600203986E+02  4.67203091199E-06  0.00000000000E+00  1.
       -3    1    4    4    0  803  4.93301315475E+00 -4.14350340970E+00  5.36200066422E+02  5.36238766289E+02  1.07895932188E-05  0.00000000000E+00  1.
        3    1    4    4  803    0  3.08602225381E-01  2.55130708430E+01  1.21136758406E+02  1.23794693974E+02  0.00000000000E+00  0.00000000000E+00  1.
       -3    1    5    5    0  804  2.29509749012E+01 -5.95730722422E+00  1.10417548550E+02  1.12934812109E+02  2.33601545599E-06  0.00000000000E+00  1.
</event>
<event>
 9   0   3.4519961E-10   6.2499991E+01   7.8125000E-03   1.3828939E-01
       21   -1    0    0  501  502  0.00000000000E+00  0.00000000000E+00  9.33364554859E+02  9.33364554859E+02  0.00000000000E+00  0.00000000000E+00  1.
       21   -1    0    0  502  501  0.00000000000E+00  0.00000000000E+00 -4.18512658962E+00  4.18512658962E+00  0.00000000000E+00  0.00000000000E+00  1.
       25    2    1    2    0    0 -8.88178419700E-16  0.00000000000E+00  9.29179428269E+02  9.37549681448E+02  1.24999981062E+02  0.00000000000E+00  1.
       23    2    3    3    0    0 -5.83467443357E+00 -2.41089192301E+01  3.43746651208E+02  3.48452101887E+02  5.13986739224E+01  0.00000000000E+00  1.
       23    2    3    3    0    0  5.83467443357E+00  2.41089192301E+01  5.85432777061E+02  5.89097579561E+02  6.07382776728E+01  0.00000000000E+00  1.
        5    1    4    4  804    0  4.15042837836E-01 -3.94622373463E+01  2.47930798635E+02  2.51096961051E+02  4.75000000000E+00  0.00000000000E+00  1.
       -5    1    4    4    0  804 -6.24971727141E+00  1.53533181162E+01  9.58158525724E+01  9.73551408367E+01  4.75000000000E+00  0.00000000000E+00  1.
        1    1    5    5  803    0  1.69633873116E+01  2.21445477150E+01  1.08422348949E+02  1.11953308466E+02  6.87704329579E-06  0.00000000000E+00  1.
       -1    1    5    5    0  803 -1.11287128780E+01  1.96437151502E+00  4.77010428113E+02  4.77144271195E+02  5.39479660939E-06  0.00000000000E+00  1.
</event>
<event>
 9   0   1.2470007E-10   6.2498987E+01   7.8125000E-03   1.3828976E-01
       21   -1    0    0  501  502  0.00000000000E+00  0.00000000000E+00  1.93962416922E+03  1.93962416922E+03  0.00000000000E+00  0.00000000000E+00  1.
       21   -1    0    0  502  501  0.00000000000E+00  0.00000000000E+00 -2.01385579414E+00  2.01385579414E+00  0.00000000000E+00  0.00000000000E+00  1.
       25    2    1    2    0    0 -5.32907051820E-15  0.00000000000E+00  1.93761031343E+03  1.94163802502E+03  1.24997973930E+02  0.00000000000E+00  1.
       23    2    3    3    0    0  6.51431249622E+00  2.87264767083E+01  1.21449164545E+03  1.21609814333E+03  5.51098052097E+01  0.00000000000E+00  1.
       23    2    3    3    0    0 -6.51431249622E+00 -2.87264767083E+01  7.23118667983E+02  7.25539881684E+02  5.13796184930E+01  0.00000000000E+00  1.
        4    1    4    4  804    0  4.49146389425E+00 -1.05256052025E+01  7.07690812254E+01  7.16997217239E+01  1.27500000010E+00  0.00000000000E+00  1.
       -4    1    4    4    0  804  2.02284860197E+00  3.92520819108E+01  1.14372256422E+03  1.14439842161E+03  1.27500000022E+00  0.00000000000E+00  1.
       16    1    5    5    0    0  8.58295278528E+00 -5.76270152184E+00  2.75070999515E+01  2.93856487947E+01  6.77712936571E-06  0.00000000000E+00  1.
      -16    1    5    5    0    0 -1.50972652815E+01 -2.29637751864E+01  6.95611568032E+02  6.96154232889E+02  1.32144989591E-05  0.00000000000E+00  1.
</event>
<event>
 9   0   1.5637482E-05   6.2497796E+01   7.8125000E-03   1.3829021E-01
       21   -1    0    0  501  502  0.00000000000E+00  0.00000000000E+00  1.99006301057E+03  1.99006301057E+03  0.00000000000E+00  0.00000000000E+00  1.
       21   -1    0    0  502  501  0.00000000000E+00  0.00000000000E+00 -1.96273914038E+00  1.96273914038E+00  0.00000000000E+00  0.00000000000E+00  1.
       25    2    1    2    0    0  1.77635683940E-15 -1.06581410364E-14  1.98810027143E+03  1.99202574971E+03  1.24995592925E+02  0.00000000000E+00  1.
       23    2    3    3    0    0 -6.72463429539E+00 -2.84401115027E+01  7.41499599829E+02  7.43852820883E+02  5.13935982381E+01  0.00000000000E+00  1.
       23    2    3    3    0    0  6.72463429539E+00  2.84401115027E+01  1.24660067160E+03  1.24817292882E+03  5.53928260200E+01  0.00000000000E+00  1.
        1    1    4    4  803    0  5.87516630883E-02 -4.29620116872E+01  5.61341785605E+02  5.62983426292E+02  1.32144989591E-05  0.00000000000E+00  1.
       -1    1    4    4    0  803 -6.78338595848E+00  1.45219001845E+01  1.80157814224E+02  1.80869394791E+02  7.38712949029E-06  0.00000000000E+00  1.
       15    1    5    5    0    0  1.70327347805E+01  7.55637926092E+00  1.31280798888E+02  1.32608514420E+02  1.77679999996E+00  0.00000000000E+00  1.
      -15    1    5    5    0    0 -1.03081004851E+01  2.08837322418E+01  1.11531987271E+03  1.11556441440E+03  1.77680000002E+00  0.00000000000E+00  1.
</event>
<event>
 9   0   1.0546733E-06   6.2499019E+01   7.8125000E-03   1.3828975E-01
       21   -1    0    0  501  502  0.00000000000E+00  0.00000000000E+00  1.64565539274E+02  1.64565539274E+02  0.00000000000E+00  0.00000000000E+00  1.
       21   -1    0    0  502  501  0.00000000000E+00  0.00000000000E+00 -2.37359983434E+01  2.37359983434E+01  0.00000000000E+00  0.00000000000E+00  1.
       25    2    1    2    0    0  1.77635683940E-15  0.00000000000E+00  1.40829540930E+02  1.88301537617E+02  1.24998037866E+02  0.00000000000E+00  1.
       23    2    3    3    0    0  7.76459532550E+00  3.33970900168E+01  8.04055864295E+01  9.28058637900E+01  3.11803698274E+01  0.00000000000E+00  1.
       23    2    3    3    0    0 -7.76459532550E+00 -3.33970900168E+01  6.04239545009E+01  9.54956738272E+01  6.55188131763E+01  0.00000000000E+00  1.
        3    1    4    4  803    0  1.55151203359E+01  4.20059826398E+00  3.02751703803E+01  3.42775425952E+01  0.00000000000E+00  0.00000000000E+00  1.
       -3    1    4    4    0  803 -7.75052501036E+00  2.91964917528E+01  5.01304160492E+01  5.85283211948E+01  0.00000000000E+00  0.00000000000E+00  1.
        4    1    5    5  804    0  1.32442562809E+01 -1.46228163902E+01 -8.12234760622E+00  2.13737043877E+01  1.27500000000E+00  0.00000000000E+00  1.
       -4    1    5    5    0  804 -2.10088516064E+01 -1.87742736266E+01  6.85463021071E+01  7.41219694395E+01  1.27500000000E+00  0.00000000000E+00  1.
</event>
<event>
 9   0   8.3830723E-09   6.2499017E+01   7.8125000E-03   1.3828975E-01
       21   -1    0    0  501  502  0.00000000000E+00  0.00000000000E+00  9.34538636911E+02  9.34538636911E+02  0.00000000000E+00  0.00000000000E+00  1.
       21   -1    0    0  502  501  0.00000000000E+00  0.00000000000E+00 -4.17973853347E+00  4.17973853347E+00  0.00000000000E+00  0.00000000000E+00  1.
       25    2    1    2    0    0  1.77635683940E-15  3.55271367880E-15  9.30358898377E+02  9.38718375444E+02  1.24998034412E+02  0.00000000000E+00  1.
       23    2    3    3    0    0 -5.11645588555E+00 -2.04159953392E+01  6.38047518435E+02  6.40458373184E+02  5.13741278770E+01  0.00000000000E+00  1.
       23    2    3    3    0    0  5.11645588555E+00  2.04159953392E+01  2.92311379943E+02  2.98260002260E+02  5.54084390452E+01  0.00000000000E+00  1.
        3    1    4    4  803    0  5.51351531726E-01 -3.74451327483E+01  4.11004821709E+02  4.12707409075E+02  5.39479660939E-06  0.00000000000E+00  1.
       -3    1    4    4    0  803 -5.66780741727E+00  1.70291374090E+01  2.27042696726E+02  2.27750964209E+02  6.60724947956E-06  0.00000000000E+00  1.
        5    1    5    5  804    0  1.54660894443E+01  2.14233415554E+01  6.07607602722E+01  6.64273435789E+01  4.75000000000E+00  0.00000000000E+00  1.
       -5    1    5    5    0  804 -1.03496335587E+01 -1.00734621616E+00  2.31550619670E+02  2.31832658681E+02  4.75000000000E+00  0.00000000000E+00  1.
</event>
<event>
 9   0   1.2779030E-11   6.2495781E+01   7.8125000E-03   1.3829096E-01
       21   -1    0    0  501  502  0.00000000000E+00  0.00000000000E+00  1.63148895321E+02  1.63148895321E+02  0.00000000000E+00  0.00000000000E+00  1.
       21   -1    0    0  502  501  0.00000000000E+00  0.00000000000E+00 -2.39396204149E+01  2.39396204149E+01  0.00000000000E+00  0.00000000000E+00  1.
       25    2    1    2    0    0 -1.77635683940E-15  3.55271367880E-15  1.39209274906E+02  1.87088515736E+02  1.24991561717E+02  0.00000000000E+00  1.
       23    2    3    3    0    0 -7.23715829746E+00 -2.85734097186E+01  4.65317539398E+01  7.53207292396E+01  5.13730661466E+01  0.00000000000E+00  1.
       23    2    3    3    0    0  7.23715829746E+00  2.85734097186E+01  9.26775209661E+01  1.11767786496E+02  5.50826560967E+01  0.00000000000E+00  1.
        4    1    4    4  803    0  1.62203294256E+01 -3.15699357693E+01  2.90862318988E+01  4.59063660316E+01  1.27500000000E+00  0.00000000000E+00  1.
       -4    1    4    4    0  803 -2.34574877231E+01  2.99652605070E+00  1.74455220410E+01  2.94143632080E+01  1.27500000000E+00  0.00000000000E+00  1.
        4    1    5    5  804    0 -7.42109138454E+00  2.50247672903E+01  1.04272893916E+01  2.81365521045E+01  1.27500000000E+00  0.00000000000E+00  1.
       -4    1    5    5    0  804  1.46582496820E+01  3.54864242831E+00  8.22502315745E+01  8.36312343917E+01  1.27500000000E+00  0.00000000000E+00  1.
</event>
<event>
 9   0   9.6178244E-15   6.2501265E+01   7.8125000E-03   1.3828891E-01
       21   -1    0    0  501  502  0.00000000000E+00  0.00000000000E+00  1.22971611328E+03  1.22971611328E+03  0.00000000000E+00  0.00000000000E+00  1.
       21   -1    0    0  502  501  0.00000000000E+00  0.00000000000E+00 -3.17667474505E+00  3.17667474505E+00  0.00000000000E+00  0.00000000000E+00  1.
       25    2    1    2    0    0 -8.88178419700E-16  3.55271367880E-15  1.22653943854E+03  1.23289278803E+03  1.25002529905E+02  0.00000000000E+00  1.
       23    2    3    3    0    0 -9.20774554633E-01  4.86587268910E+01  4.44017858972E+02  4.47065027886E+02  1.86215075785E+01  0.00000000000E+00  1.
       23    2    3    3    0    0  9.20774554633E-01 -4.86587268910E+01  7.82521579565E+02  7.85827760141E+02  5.30728423446E+01  0.00000000000E+00  1.
        5    1    5    5  804    0  2.61878389912E+00 -5.62101575155E+01  5.03237408649E+02  5.06395983200E+02  4.75000000000E+00  0.00000000000E+00  1.
       -5    1    4    4    0  803 -7.69688664890E+00  3.48938189219E+01  3.06217702402E+02  3.08332068438E+02  4.75000000000E+00  0.00000000000E+00  1.
        5    1    4    4  803    0  6.77611209427E+00  1.37649079691E+01  1.37800156570E+02  1.38732959448E+02  4.75000000000E+00  0.00000000000E+00  1.
       -5    1    5    5    0  804 -1.69800934448E+00  7.55143062453E+00  2.79284170916E+02  2.79431776941E+02  4.75000000000E+00  0.00000000000E+00  1.
</event>
<event>
 9   0   4.9661680E-10   6.2499018E+01   7.8125000E-03   1.3828975E-01
       21   -1    0    0  501  502  0.00000000000E+00  0.00000000000E+00  1.90875066360E+03  1.90875066360E+03  0.00000000000E+00  0.00000000000E+00  1.
       21   -1    0    0  502  501  0.00000000000E+00  0.00000000000E+00 -2.04643135885E+00  2.04643135885E+00  0.00000000000E+00  0.00000000000E+00  1.
       25    2    1    2    0    0  1.77635683940E-15 -3.55271367880E-15  1.90670423224E+03  1.91079709496E+03  1.24998035412E+02  0.00000000000E+00  1.
       23    2    3    3    0    0  3.29342724752E-01 -3.05800738242E+01  7.50411806181E+02  7.52789689960E+02  5.13730383770E+01  0.00000000000E+00  1.
       23    2    3    3    0    0 -3.29342724752E-01  3.05800738242E+01  1.15629242606E+03  1.15800740500E+03  5.50792709379E+01  0.00000000000E+00  1.
        1    1    4    4  803    0  1.99424548002E+01 -3.43924289801E+01  5.13791147011E+02  5.15326967589E+02  7.62939453125E-06  0.00000000000E+00  1.
       -1    1    4    4    0  803 -1.96131120755E+01  3.81235515591E+00  2.36620659171E+02  2.37462722471E+02  8.09219491409E-06  0.00000000000E+00  1.
        1    1    5    5  804    0  1.32476006436E+01  2.31133530373E+01  2.22900559371E+02  2.24486938204E+02  1.47742589806E-05  0.00000000000E+00  1.
       -1    1    5    5    0  804 -1.35769433683E+01  7.46672078695E+00  9.33391866687E+02  9.33520466993E+02  1.86881236479E-05  0.00000000000E+00  1.
</event>
<event>
 9   0   1.2515891E-05   6.2497754E+01   7.8125000E-03   1.3829022E-01
       21   -1    0    0  501  502  0.00000000000E+00  0.00000000000E+00  1.80620603473E+03  1.80620603473E+03  0.00000000000E+00  0.00000000000E+00  1.
       21   -1    0    0  502  501  0.00000000000E+00  0.00000000000E+00 -2.16252696633E+00  2.16252696633E+00  0.00000000000E+00  0.00000000000E+00  1.
       25    2    1    2    0    0  0.00000000000E+00 -7.10542735760E-15  1.80404350777E+03  1.80836856170E+03  1.24995508029E+02  0.00000000000E+00  1.
       23    2    3    3    0    0  7.11673664864E+00 -2.04727392434E+01  6.67821927796E+02  6.70147899170E+02  5.14032929226E+01  0.00000000000E+00  1.
       23    2    3    3    0    0 -7.11673664864E+00  2.04727392434E+01  1.13622157997E+03  1.13822066253E+03  6.38515217241E+01  0.00000000000E+00  1.
        3    1    4    4  804    0  7.88921968098E+00 -3.76813028821E+01  4.75674392147E+02  4.77229764175E+02  5.39479660939E-06  0.00000000000E+00  1.
       -3    1    4    4    0  804 -7.72483032338E-01  1.72085636387E+01  1.92147535649E+02  1.92918135095E+02  4.67203091199E-06  0.00000000000E+00  1.
        5    1    5    5  803    0  1.26006574620E+01  1.74958173070E+01  1.35324001574E+02  1.37113194455E+02  4.75000000001E+00  0.00000000000E+00  1.
       -5    1    5    5    0  803 -1.97173941106E+01  2.97692193641E+00  1.00089757840E+03  1.00110746808E+03  4.75000000000E+00  0.00000000000E+00  1.
</event>
<event>
 9   0   1.3983558E-05   6.2473196E+01   7.8125000E-03   1.3829940E-01
       21   -1    0    0  501  502  0.00000000000E+00  0.00000000000E+00  1.93960291805E+03  1.93960291805E+03  0.00000000000E+00  0.00000000000E+00  1.
       21   -1    0    0  502  501  0.00000000000E+00  0.00000000000E+00 -2.01221608224E+00  2.01221608224E+00  0.00000000000E+00  0.00000000000E+00  1.
       25    2    1    2    0    0  8.88178419700E-16  3.55271367880E-15  1.93759070196E+03  1.94161513413E+03  1.24946391462E+02  0.00000000000E+00  1.
       23    2    3    3    0    0 -5.84718331003E+00 -2.33326554884E+01  1.29086026862E+03  1.29210813681E+03  5.14256913916E+01  0.00000000000E+00  1.
       23    2    3    3    0    0  5.84718331003E+00  2.33326554884E+01  6.46730433343E+02  6.49506997321E+02  5.49589282289E+01  0.00000000000E+00  1.
        5    1    4    4  804    0 -2.36550857470E+00 -3.80159982639E+01  1.06663989354E+03  1.06733033159E+03  4.75000000002E+00  0.00000000000E+00  1.
       -5    1    4    4    0  804 -3.48167473533E+00  1.46833427756E+01  2.24220375082E+02  2.24777805212E+02  4.74999999998E+00  0.00000000000E+00  1.
       14    1    5    5    0    0  1.59397592897E+01  2.40676185212E+01  1.54568782535E+02  1.57241326380E+02  8.31393994053E-06  0.00000000000E+00  1.
      -14    1    5    5    0    0 -1.00925759796E+01 -7.34963032870E-01  4.92161650808E+02  4.92265671040E+02  5.39479660939E-06  0.00000000000E+00  1.
</event>
<event>
 9   0   2.7709337E-12   6.2499991E+01   7.8125000E-03   1.3828939E-01
       21   -1    0    0  501  502  0.00000000000E+00  0.00000000000E+00  1.80842126765E+03  1.80842126765E+03  0.00000000000E+00  0.00000000000E+00  1.
       21   -1    0    0  502  501  0.00000000000E+00  0.00000000000E+00 -2.16003256098E+00  2.16003256098E+00  0.00000000000E+00  0.00000000000E+00  1.
       25    2    1    2    0    0 -8.88178419700E-16  0.00000000000E+00  1.80626123509E+03  1.81058130021E+03  1.24999981153E+02  0.00000000000E+00  1.
       23    2    3    3    0    0 -5.04397874472E+00 -2.00755590766E+01  6.68940632339E+02  6.71232711741E+02  5.14131687727E+01  0.00000000000E+00  1.
       23    2    3    3    0    0  5.04397874472E+00  2.00755590766E+01  1.13732060275E+03  1.13934858847E+03  6.47192615460E+01  0.00000000000E+00  1.
        4    1    4    4  804    0 -9.59175384625E+00 -3.67677055535E+01  4.73159248995E+02  4.74684280810E+02  1.27500000003E+00  0.00000000000E+00  1.
       -4    1    4    4    0  804  4.54777510153E+00  1.66921464769E+01  1.95781383344E+02  1.96548430931E+02  1.27500000001E+00  0.00000000000E+00  1.
       12    1    5    5    0    0 -1.00971897301E+01  2.32197704769E+01  1.67342783935E+02  1.69247506186E+02  2.03649106064E-05  0.00000000000E+00  1.
      -12    1    5    5    0    0  1.51411684748E+01 -3.14421140026E+00  9.69977818816E+02  9.70101082485E+02  1.52587890625E-05  0.00000000000E+00  1.
</event>
<event>
 9   0   3.8318514E-14   6.2501265E+01   7.8125000E-03   1.3828891E-01
       21   -1    0    0  501  502  0.00000000000E+00  0.00000000000E+00  1.63189892104E+02  1.63189892104E+02  0.00000000000E+00  0.00000000000E+00  1.
       21   -1    0    0  502  501  0.00000000000E+00  0.00000000000E+00 -2.39378068404E+01  2.39378068404E+01  0.00000000000E+00  0.00000000000E+00  1.
       25    2    1    2    0    0  3.55271367880E-15 -7.10542735760E-15  1.39252085264E+02  1.87127698944E+02  1.25002529822E+02  0.00000000000E+00  1.
       23    2    3    3    0    0 -7.18400678399E+00 -2.85789803622E+01  4.65954833305E+01  7.53585150113E+01  5.13750780622E+01  0.00000000000E+00  1.
       23    2    3    3    0    0  7.18400678399E+00  2.85789803622E+01  9.26566019332E+01  1.11769183933E+02  5.51247360380E+01  0.00000000000E+00  1.
        2    1    4    4  804    0 -2.18183786211E+00 -4.33944241935E+01  3.64986923160E+01  5.67449647076E+01  0.00000000000E+00  0.00000000000E+00  1.
       -2    1    4    4    0  804 -5.00216892188E+00  1.48154438313E+01  1.00967910144E+01  1.86135505037E+01  0.00000000000E+00  0.00000000000E+00  1.
       13    1    5    5    0    0  1.70011561496E+01  2.22776762224E+01  1.23584648633E+01  3.06280424791E+01  1.05660000007E-01  0.00000000000E+00  1.
      -13    1    5    5    0    0 -9.81714936562E+00  6.30130413984E+00  8.02981370699E+01  8.11411414540E+01  1.05660000004E-01  0.00000000000E+00  1.
</event>
<event>
 9   0   1.0221200E-09   6.2496520E+01   7.8125000E-03   1.3829069E-01
       21   -1    0    0  501  502  0.00000000000E+00  0.00000000000E+00  9.34596320842E+02  9.34596320842E+02  0.00000000000E+00  0.00000000000E+00  1.
       21   -1    0    0  502  501  0.00000000000E+00  0.00000000000E+00 -4.17914663856E+00  4.17914663856E+00  0.00000000000E+00  0.00000000000E+00  1.
       25    2    1    2    0    0  0.00000000000E+00  0.00000000000E+00  9.30417174204E+02  9.38775467481E+02  1.24993040969E+02  0.00000000000E+00  1.
       23    2    3    3    0    0 -8.62677238175E+00 -3.42986467078E+01  3.52315277249E+02  3.57797662810E+02  5.14032543868E+01  0.00000000000E+00  1.
       23    2    3    3    0    0  8.62677238175E+00  3.42986467078E+01  5.78101896955E+02  5.80977804671E+02  4.56353798030E+01  0.00000000000E+00  1.
        1    1    4    4  803    0 -3.79556816692E+00 -4.77275271738E+01  2.84013487676E+02  2.88020805445E+02  6.60724947956E-06  0.00000000000E+00  1.
       -1    1    4    4    0  803 -4.83120421483E+00  1.34288804660E+01  6.83017895731E+01  6.97768573642E+01  3.69356474515E-06  0.00000000000E+00  1.
       11    1    5    5    0    0  1.50043275713E+01  2.49259596074E+01  1.53979643135E+02  1.56704064428E+02  5.10998597706E-04  0.00000000000E+00  1.
      -11    1    5    5    0    0 -6.37755518959E+00  9.37268710034E+00  4.24122253820E+02  4.24273740243E+02  5.11055549347E-04  0.00000000000E+00  1.
</event>
<event>
 9   0   3.2139624E-10   6.2501265E+01   7.8125000E-03   1.3828891E-01
       21   -1    0    0  501  502  0.00000000000E+00  0.00000000000E+00  1.65389826612E+02  1.65389826612E+02  0.00000000000E+00  0.00000000000E+00  1.
       21   -1    0    0  502  501  0.00000000000E+00  0.00000000000E+00 -2.36193978179E+01  2.36193978179E+01  0.00000000000E+00  0.00000000000E+00  1.
       25    2    1    2    0    0 -4.44089209850E-16  3.55271367880E-15  1.41770428794E+02  1.89009224430E+02  1.25002529731E+02  0.00000000000E+00  1.
       23    2    3    3    0    0  2.98032729561E-01 -2.94744202390E+01  4.75825362374E+01  7.59944914665E+01  5.14026721732E+01  0.00000000000E+00  1.
       23    2    3    3    0    0 -2.98032729561E-01  2.94744202390E+01  9.41878925565E+01  1.13014732963E+02  5.50648752888E+01  0.00000000000E+00  1.
       15    1    4    4    0    0  3.74080631242E+00 -3.84122148829E+01  1.41059595766E+01  4.11293933567E+01  1.77680000000E+00  0.00000000000E+00  1.
      -15    1    4    4    0    0 -3.44277358286E+00  8.93779464387E+00  3.34765766608E+01  3.48650981098E+01  1.77680000000E+00  0.00000000000E+00  1.
        1    1    5    5  803    0  1.25605320247E+01  2.35358452418E+01  1.13788144280E+01  2.90031101707E+01  0.00000000000E+00  0.00000000000E+00  1.
       -1    1    5    5    0  803 -1.28585647543E+01  5.93857499726E+00  8.28090781285E+01  8.40116228924E+01  0.00000000000E+00  0.00000000000E+00  1.
</event>
<event>
 9   0   1.7539476E-10   6.2499994E+01   7.8125000E-03   1.3828939E-01
       21   -1    0    0  501  502  0.00000000000E+00  0.00000000000E+00  1.66209726602E+02  1.66209726602E+02  0.00000000000E+00  0.00000000000E+00  1.
       21   -1    0    0  502  501  0.00000000000E+00  0.00000000000E+00 -2.35019293760E+01  2.35019293760E+01  0.00000000000E+00  0.00000000000E+00  1.
       25    2    1    2    0    0  0.00000000000E+00  3.55271367880E-15  1.42707797226E+02  1.89711655978E+02  1.24999988099E+02  0.00000000000E+00  1.
       23    2    3    3    0    0 -7.34635778508E+00 -2.85572599611E+01  4.79916151385E+01  7.62615670668E+01  5.14115300171E+01  0.00000000000E+00  1.
       23    2    3    3    0    0  7.34635778508E+00  2.85572599611E+01  9.47161820877E+01  1.13450088911E+02  5.50479922933E+01  0.00000000000E+00  1.
       13    1    4    4    0    0  1.56496089053E+01 -3.23414132145E+01  3.03476857977E+01  4.70305269470E+01  1.05660000000E-01  0.00000000000E+00  1.
      -13    1    4    4    0    0 -2.29959666904E+01  3.78415325344E+00  1.76439293408E+01  2.92310401198E+01  1.05660000003E-01  0.00000000000E+00  1.
        2    1    5    5  804    0  1.73965990753E+01  2.43730160858E+01  1.59356833220E+01  3.39209607093E+01  0.00000000000E+00  0.00000000000E+00  1.
       -2    1    5    5    0  804 -1.00502412903E+01  4.18424387533E+00  7.87804987657E+01  7.95291282020E+01  1.34869915235E-06  0.00000000000E+00  1.
</event>
<event>
 9   0   1.5862138E-12   6.2501265E+01   7.8125000E-03   1.3828891E-01
       21   -1    0    0  501  502  0.00000000000E+00  0.00000000000E+00  1.93942784744E+03  1.93942784744E+03  0.00000000000E+00  0.00000000000E+00  1.
       21   -1    0    0  502  501  0.00000000000E+00  0.00000000000E+00 -2.01420645836E+00  2.01420645836E+00  0.00000000000E+00  0.00000000000E+00  1.
       25    2    1    2    0    0 -1.77635683940E-15  3.55271367880E-15  1.93741364098E+03  1.94144205390E+03  1.25002529508E+02  0.00000000000E+00  1.
       23    2    3    3    0    0  3.84437269539E+00  1.60069687621E+01  1.33853784739E+03  1.34014024431E+03  6.34137467375E+01  0.00000000000E+00  1.
       23    2    3    3    0    0 -3.84437269539E+00 -1.60069687621E+01  5.98875793592E+02  6.01301809588E+02  5.13872339499E+01  0.00000000000E+00  1.
        3    1    4    4  803    0 -1.97163723110E+01 -1.62263414563E+01  5.49086832076E+02  5.49680251386E+02  1.70598447990E-05  0.00000000000E+00  1.
       -3    1    4    4    0  803  2.35607450064E+01  3.22333102184E+01  7.89451015316E+02  7.90459993127E+02  1.07895932188E-05  0.00000000000E+00  1.
       13    1    5    5    0    0  9.78444242779E+00 -1.18462303940E-01  2.23778404707E+01  2.44239279213E+01  1.05659999828E-01  0.00000000000E+00  1.
      -13    1    5    5    0    0 -1.36288151232E+01 -1.58885064582E+01  5.76497953121E+02  5.76877881667E+02  1.05659999952E-01  0.00000000000E+00  1.
</event>
<event>
 9   0   4.3596974E-01   6.2499994E+01   7.8125000E-03   1.3828939E-01
       21   -1    0    0  501  502  0.00000000000E+00  0.00000000000E+00  1.94555807489E+03  1.94555807489E+03  0.00000000000E+00  0.00000000000E+00  1.
       21   -1    0    0  502  501  0.00000000000E+00  0.00000000000E+00 -2.00777825194E+00  2.00777825194E+00  0.00000000000E+00  0.00000000000E+00  1.
       25    2    1    2    0    0 -5.32907051820E-15  0.00000000000E+00  1.94355029664E+03  1.94756585314E+03  1.24999987050E+02  0.00000000000E+00  1.
       23    2    3    3    0    0 -4.88128629138E+00 -2.04959387353E+01  1.33840963467E+03  1.33956239774E+03  5.14116407984E+01  0.00000000000E+00  1.
       23    2    3    3    0    0  4.88128629138E+00  2.04959387353E+01  6.05140661965E+02  6.08003455395E+02  5.50369925517E+01  0.00000000000E+00  1.
        1    1    4    4  803    0 -1.85352402395E+01 -2.83302744288E+01  1.14935765296E+03  1.14985615361E+03  0.00000000000E+00  0.00000000000E+00  1.
       -1    1    4    4    0  803  1.36539539482E+01  7.83433569348E+00  1.89051981709E+02  1.89706244131E+02  1.90734863281E-05  0.00000000000E+00  1.
        1    1    5    5  804    0 -1.03763080365E+01  2.02736734074E+01  9.71562723080E+01  9.97899337140E+01  2.33601545599E-06  0.00000000000E+00  1.
       -1    1    5    5    0  804  1.52575943279E+01  2.22265327938E-01  5.07984389656E+02  5.08213521881E+02  5.39479660939E-06  0.00000000000E+00  1.
</event>
<event>
 9   0   9.1312521E-11   6.2499992E+01   7.8125000E-03   1.3828939E-01
       21   -1    0    0  501  502  0.00000000000E+00  0.00000000000E+00  1.98949811644E+03  1.98949811644E+03  0.00000000000E+00  0.00000000000E+00  1.
       21   -1    0    0  502  501  0.00000000000E+00  0.00000000000E+00 -1.96343439113E+00  1.96343439113E+00  0.00000000000E+00  0.00000000000E+00  1.
       25    2    1    2    0    0 -2.66453525910E-15  7.10542735760E-15  1.98753468205E+03  1.99146155084E+03  1.24999984367E+02  0.00000000000E+00  1.
       23    2    3    3    0    0 -7.79228973148E+00 -3.45853300886E+01  7.55965368963E+02  7.58538684592E+02  5.13851351598E+01  0.00000000000E+00  1.
       23    2    3    3    0    0  7.79228973148E+00  3.45853300886E+01  1.23156931309E+03  1.23292286624E+03  4.55955734979E+01  0.00000000000E+00  1.
       15    1    4    4    0    0  1.52896922637E+01 -3.60293145776E+01  4.89847679504E+02  4.91412039262E+02  1.77679999998E+00  0.00000000000E+00  1.
      -15    1    4    4    0    0 -2.30819819952E+01  1.44398448891E+00  2.66117689459E+02  2.67126645330E+02  1.77679999999E+00  0.00000000000E+00  1.
        3    1    5    5  803    0  1.44258692065E+01  2.49788449166E+01  3.24784778477E+02  3.26063185175E+02  1.61843898282E-05  0.00000000000E+00  1.
       -3    1    5    5    0  803 -6.63357947500E+00  9.60648517209E+00  9.06784534613E+02  9.06859681068E+02  1.52587890625E-05  0.00000000000E+00  1.
</event>
<event>
 9   0   2.7777935E-08   6.2491463E+01   7.8125000E-03   1.3829257E-01
       21   -1    0    0  501  502  0.00000000000E+00  0.00000000000E+00  1.92071765807E+03  1.92071765807E+03  0.00000000000E+00  0.00000000000E+00  1.
       21   -1    0    0  502  501  0.00000000000E+00  0.00000000000E+00 -2.03318947433E+00  2.03318947433E+00  0.00000000000E+00  0.00000000000E+00  1.
       25    2    1    2    0    0  3.55271367880E-15  1.06581410364E-14  1.91868446859E+03  1.92275084754E+03  1.24982925642E+02  0.00000000000E+00  1.
       23    2    3    3    0    0 -7.31322119239E+00 -3.09384495321E+01  8.16400780695E+02  8.18635572469E+02  5.14129840550E+01  0.00000000000E+00  1.
       23    2    3    3    0    0  7.31322119239E+00  3.09384495321E+01  1.10228368790E+03  1.10411527507E+03  5.50503512970E+01  0.00000000000E+00  1.
        3    1    4    4  804    0 -2.73673098736E+00 -4.52655417224E+01  6.28384453771E+02  6.30018635205E+02  1.07895932188E-05  0.00000000000E+00  1.
       -3    1    4    4    0  804 -4.57649020504E+00  1.43270921903E+01  1.88016326923E+02  1.88616937264E+02  2.69739830470E-06  0.00000000000E+00  1.
        2    1    5    5  803    0  1.90167261836E+01  1.84245812898E+01  2.09429025399E+02  2.11096228750E+02  9.34406182397E-06  0.00000000000E+00  1.
       -2    1    5    5    0  803 -1.17035049912E+01  1.25138682422E+01  8.92854662498E+02  8.93019046421E+02  1.07895932188E-05  0.00000000000E+00  1.
</event>
<event>
 9   0   2.3654828E-05   6.2495146E+01   7.8125000E-03   1.3829120E-01
       21   -1    0    0  501  502  0.00000000000E+00  0.00000000000E+00  1.67693645427E+02  1.67693645427E+02  0.00000000000E+00  0.00000000000E+00  1.
       21   -1    0    0  502  501  0.00000000000E+00  0.00000000000E+00 -2.32903474473E+01  2.32903474473E+01  0.00000000000E+00  0.00000000000E+00  1.
       25    2    1    2    0    0  4.44089209850E-15  3.55271367880E-15  1.44403297980E+02  1.90983992875E+02  1.24990291890E+02  0.00000000000E+00  1.
       23    2    3    3    0    0 -6.74699833457E+00 -2.86933606166E+01  4.86032978185E+01  7.66347511158E+01  5.13981866387E+01  0.00000000000E+00  1.
       23    2    3    3    0    0  6.74699833457E+00  2.86933606166E+01  9.58000001617E+01  1.14349241759E+02  5.50388783485E+01  0.00000000000E+00  1.
       12    1    4    4    0    0 -1.25230183170E+00 -4.33962504954E+01  3.79699079856E+01  5.76759631855E+01  0.00000000000E+00  0.00000000000E+00  1.
      -12    1    4    4    0    0 -5.49469650287E+00  1.47028898788E+01  1.06333898329E+01  1.89587879303E+01  0.00000000000E+00  0.00000000000E+00  1.
        3    1    5    5  804    0 -1.24555917761E+01  1.47976740303E+01  4.28034443044E+00  1.98099538526E+01  0.00000000000E+00  0.00000000000E+00  1.
       -3    1    5    5    0  804  1.92025901107E+01  1.38956865863E+01  9.15196557312E+01  9.45392879063E+01  1.90734863281E-06  0.00000000000E+00  1.
</event>
<event>
 9   0   5.1230593E-08   6.2499020E+01   7.8125000E-03   1.3828975E-01
       21   -1    0    0  501  502  0.00000000000E+00  0.00000000000E+00  1.65479821641E+02  1.65479821641E+02  0.00000000000E+00  0.00000000000E+00  1.
       21   -1    0    0  502  501  0.00000000000E+00  0.00000000000E+00 -2.36048567723E+01  2.36048567723E+01  0.00000000000E+00  0.00000000000E+00  1.
       25    2    1    2    0    0  3.55271367880E-15 -7.10542735760E-15  1.41874964869E+02  1.89084678413E+02  1.24998039801E+02  0.00000000000E+00  1.
       23    2    3    3    0    0 -8.59519929293E+00 -3.47287896700E+01  4.82374413751E+01  7.90370733556E+01  5.13813383572E+01  0.00000000000E+00  1.
       23    2    3    3    0    0  8.59519929293E+00  3.47287896700E+01  9.36375234938E+01  1.10047605058E+02  4.54150117261E+01  0.00000000000E+00  1.
        3    1    4    4  803    0 -2.17473901113E+00 -4.77861828108E+01  3.97225698874E+01  6.21782222992E+01  1.43051147461E-06  0.00000000000E+00  1.
       -3    1    4    4    0  803 -6.42046028179E+00  1.30573931408E+01  8.51487148777E+00  1.68588512565E+01  1.05282793836E-06  0.00000000000E+00  1.
        3    1    5    5  804    0  1.68166084931E+01  1.66547914258E+01  1.30039518655E+01  2.70052432458E+01  0.00000000000E+00  0.00000000000E+00  1.
       -3    1    5    5    0  804 -8.22140920019E+00  1.80739982442E+01  8.06335716284E+01  8.30423618120E+01  1.34869915235E-06  0.00000000000E+00  1.
</event>
<event>
 9   0   1.2765592E-13   6.2499019E+01   7.8125000E-03   1.3828975E-01
       21   -1    0    0  501  502  0.00000000000E+00  0.00000000000E+00  1.67508455851E+02  1.67508455851E+02  0.00000000000E+00  0.00000000000E+00  1.
       21   -1    0    0  502  501  0.00000000000E+00  0.00000000000E+00 -2.33189861876E+01  2.33189861876E+01  0.00000000000E+00  0.00000000000E+00  1.
       25    2    1    2    0    0 -2.66453525910E-15 -3.55271367880E-15  1.44189469663E+02  1.90827442039E+02  1.24998037877E+02  0.00000000000E+00  1.
       23    2    3    3    0    0  7.17596474770E+00  2.85819284702E+01  9.55885274423E+01  1.14195537014E+02  5.50911334989E+01  0.00000000000E+00  1.
       23    2    3    3    0    0 -7.17596474770E+00 -2.85819284702E+01  4.86009422211E+01  7.66319050246E+01  5.14001573711E+01  0.00000000000E+00  1.
        3    1    4    4  803    0  7.93404909983E+00 -1.59563899421E+01  3.04867898478E+01  3.53128854300E+01  1.58148993986E-06  0.00000000000E+00  1.
       -3    1    4    4    0  803 -7.58084352137E-01  4.45383184123E+01  6.51017375945E+01  7.88826517840E+01  1.34869915235E-06  0.00000000000E+00  1.
       15    1    5    5    0    0  8.40198621780E+00 -5.63161124515E+00 -8.36599584460E+00  1.32459549423E+01  1.77680000000E+00  0.00000000000E+00  1.
      -15    1    5    5    0    0 -1.55779509655E+01 -2.29503172250E+01  5.69669380657E+01  6.33859500823E+01  1.77680000000E+00  0.00000000000E+00  1.
</event>
<event>
 9   0   6.0978171E-09   6.2495392E+01   7.8125000E-03   1.3829111E-01
       21   -1    0    0  501  502  0.00000000000E+00  0.00000000000E+00  1.75353983798E+03  1.75353983798E+03  0.00000000000E+00  0.00000000000E+00  1.
       21   -1    0    0  502  501  0.00000000000E+00  0.00000000000E+00 -2.22730839940E+00  2.22730839940E+00  0.00000000000E+00  0.00000000000E+00  1.
       25    2    1    2    0    0  0.00000000000E+00 -7.10542735760E-15  1.75131252958E+03  1.75576714638E+03  1.24990783817E+02  0.00000000000E+00  1.
       23    2    3    3    0    0 -7.19701403317E+00 -2.87830357717E+01  6.59631879041E+02  6.62296104734E+02  5.13970265576E+01  0.00000000000E+00  1.
       23    2    3    3    0    0  7.19701403317E+00  2.87830357717E+01  1.09168065054E+03  1.09347104165E+03  5.50637448425E+01  0.00000000000E+00  1.
        2    1    4    4  804    0  1.62733012248E+01 -3.17434213165E+01  4.04516101581E+02  4.06085879547E+02  0.00000000000E+00  0.00000000000E+00  1.
       -2    1    4    4    0  804 -2.34703152580E+01  2.96038554479E+00  2.55115777460E+02  2.56210225286E+02  6.03156597170E-06  0.00000000000E+00  1.
        4    1    5    5  803    0  1.63015452203E+01  2.36268186290E+01  2.38399432500E+02  2.40124721710E+02  1.27500000002E+00  0.00000000000E+00  1.
       -4    1    5    5    0  803 -9.10453118714E+00  5.15621714268E+00  8.53281218039E+02  8.53346319935E+02  1.27500000013E+00  0.00000000000E+00  1.
</event>
<event>
 9   0   7.4251070E-06   6.2501265E+01   7.8125000E-03   1.3828891E-01
       21   -1    0    0  501  502  0.00000000000E+00  0.00000000000E+00  1.77284958668E+03  1.77284958668E+03  0.00000000000E+00  0.00000000000E+00  1.
       21   -1    0    0  502  501  0.00000000000E+00  0.00000000000E+00 -2.20346282226E+00  2.20346282226E+00  0.00000000000E+00  0.00000000000E+00  1.
       25    2    1    2    0    0  5.32907051820E-15  3.55271367880E-15  1.77064612386E+03  1.77505304951E+03  1.25002530434E+02  0.00000000000E+00  1.
       23    2    3    3    0    0  6.64379013636E+00  2.84614671546E+01  1.11068666193E+03  1.11245195314E+03  5.54102155107E+01  0.00000000000E+00  1.
       23    2    3    3    0    0 -6.64379013636E+00 -2.84614671546E+01  6.59959461928E+02  6.62601096368E+02  5.13763219804E+01  0.00000000000E+00  1.
        1    1    4    4  803    0  3.48397763611E+00 -1.27781432603E+01  5.81715513472E+02  5.81866271286E+02  7.62939453125E-06  0.00000000000E+00  1.
       -1    1    4    4    0  803  3.15981250025E+00  4.12396104149E+01  5.28971148462E+02  5.30585681853E+02  0.00000000000E+00  0.00000000000E+00  1.
       16    1    5    5    0    0  1.63213499200E+01  1.95537228403E+00  9.96315587642E+01  1.00978499918E+02  4.86280394897E-06  0.00000000000E+00  1.
      -16    1    5    5    0    0 -2.29651400563E+01 -3.04168394386E+01  5.60327903163E+02  5.61622596450E+02  0.00000000000E+00  0.00000000000E+00  1.
</event>
<event>
 9   0   1.8591258E-14   6.2497874E+01   7.8125000E-03   1.3829018E-01
       21   -1    0    0  501  502  0.00000000000E+00  0.00000000000E+00  1.93938476251E+03  1.93938476251E+03  0.00000000000E+00  0.00000000000E+00  1.
       21   -1    0    0  502  501  0.00000000000E+00  0.00000000000E+00 -2.01403266576E+00  2.01403266576E+00  0.00000000000E+00  0.00000000000E+00  1.
       25    2    1    2    0    0 -2.22044604925E-15 -7.10542735760E-15  1.93737072985E+03  1.94139879518E+03  1.24995748138E+02  0.00000000000E+00  1.
       23    2    3    3    0    0  3.50744755481E-01 -3.26550093385E+01  9.14767852022E+02  9.16791965923E+02  5.13888415105E+01  0.00000000000E+00  1.
       23    2    3    3    0    0 -3.50744755481E-01  3.26550093385E+01  1.02260287782E+03  1.02460682925E+03  5.51002374193E+01  0.00000000000E+00  1.
        2    1    4    4  804    0  3.19523360907E+00 -4.20017880485E+01  8.67647192829E+02  8.68669103350E+02  2.15791864376E-05  0.00000000000E+00  1.
       -2    1    4    4    0  804 -2.84448885359E+00  9.34677870999E+00  4.71206591924E+01  4.81228627727E+01  2.10457577617E-05  0.00000000000E+00  1.
        1    1    5    5  803    0  1.90002978657E+01  3.24702090548E+01  8.65393959442E+02  8.66211308520E+02  1.52587890625E-05  0.00000000000E+00  1.
       -1    1    5    5    0  803 -1.93510426212E+01  1.84800283662E-01  1.57208918382E+02  1.58395520934E+02  9.34406182397E-06  0.00000000000E+00  1.
</event>
<event>
 9   0   7.1854048E-03   6.2492994E+01   7.8125000E-03   1.3829200E-01
       21   -1    0    0  501  502  0.00000000000E+00  0.00000000000E+00  1.61611655320E+02  1.61611655320E+02  0.00000000000E+00  0.00000000000E+00  1.
       21   -1    0    0  502  501  0.00000000000E+00  0.00000000000E+00 -2.41651771771E+01  2.41651771771E+01  0.00000000000E+00  0.00000000000E+00  1.
       25    2    1    2    0    0  1.77635683940E-15 -3.55271367880E-15  1.37446478143E+02  1.85776832497E+02  1.24985987770E+02  0.00000000000E+00  1.
       23    2    3    3    0    0 -5.17935016859E+00  1.91510760496E+01  1.69850501584E+01  5.33162830092E+01  4.64816600715E+01  0.00000000000E+00  1.
       23    2    3    3    0    0  5.17935016859E+00 -1.91510760496E+01  1.20461427985E+02  1.32460549488E+02  5.13931139020E+01  0.00000000000E+00  1.
        3    1    4    4  804    0 -1.75553512966E+00 -1.54130755629E+01  2.63307334150E+00  1.57346077252E+01  0.00000000000E+00  0.00000000000E+00  1.
       -3    1    4    4    0  804 -3.42381503893E+00  3.45641516125E+01  1.43519768169E+01  3.75816754839E+01  0.00000000000E+00  0.00000000000E+00  1.
       11    1    5    5    0    0  1.37167052534E+01  1.51765412865E+00  4.73016100698E+00  1.45885468939E+01  5.10995646365E-04  0.00000000000E+00  1.
      -11    1    5    5    0    0 -8.53735508484E+00 -2.06687301782E+01  1.15731266978E+02  1.17872002594E+02  5.10995038018E-04  0.00000000000E+00  1.
</event>
<event>
 9   0   8.0571777E-01   6.2500047E+01   7.8125000E-03   1.3828937E-01
       21   -1    0    0  501  502  0.00000000000E+00  0.00000000000E+00  1.82860077659E+03  1.82860077659E+03  0.00000000000E+00  0.00000000000E+00  1.
       21   -1    0    0  502  501  0.00000000000E+00  0.00000000000E+00 -2.13619937458E+00  2.13619937458E+00  0.00000000000E+00  0.00000000000E+00  1.
       25    2    1    2    0    0 -1.77635683940E-15  0.00000000000E+00  1.82646457721E+03  1.83073697596E+03  1.25000093365E+02  0.00000000000E+00  1.
       23    2    3    3    0    0 -8.93618443808E+00  3.38291974728E+01  1.00048179351E+03  1.00166477360E+03  3.38264620229E+01  0.00000000000E+00  1.
       23    2    3    3    0    0  8.93618443808E+00 -3.38291974728E+01  8.25982783706E+02  8.29072202365E+02  6.23609474052E+01  0.00000000000E+00  1.
        5    1    4    4  804    0  7.43277297163E+00  5.04021065217E+00  4.80719679320E+02  4.80827019232E+02  4.75000000000E+00  0.00000000000E+00  1.
       -5    1    4    4    0  804 -1.63689574097E+01  2.87889868206E+01  5.19762114188E+02  5.20837754367E+02  4.74999999998E+00  0.00000000000E+00  1.
        1    1    5    5  803    0  1.90423078835E+01 -7.44310234449E+00  8.05537396652E+01  8.31078471188E+01  2.13248059988E-06  0.00000000000E+00  1.
       -1    1    5    5    0  803 -1.01061234455E+01 -2.63860951283E+01  7.45429044041E+02  7.45964355346E+02  0.00000000000E+00  0.00000000000E+00  1.
</event>
<event>
 9   0   1.4104467E-07   6.2499018E+01   7.8125000E-03   1.3828975E-01
       21   -1    0    0  501  502  0.00000000000E+00  0.00000000000E+00  1.87426750650E+03  1.87426750650E+03  0.00000000000E+00  0.00000000000E+00  1.
       21   -1    0    0  502  501  0.00000000000E+00  0.00000000000E+00 -2.08408205592E+00  2.08408205592E+00  0.00000000000E+00  0.00000000000E+00  1.
       25    2    1    2    0    0 -8.88178419700E-16 -1.06581410364E-14  1.87218342444E+03  1.87635158855E+03  1.24998036437E+02  0.00000000000E+00  1.
       23    2    3    3    0    0  5.92289837984E+00  2.59458385782E+01  1.24584884246E+03  1.24735015933E+03  5.50891500013E+01  0.00000000000E+00  1.
       23    2    3    3    0    0 -5.92289837984E+00 -2.59458385782E+01  6.26334581981E+02  6.29001429227E+02  5.13762797300E+01  0.00000000000E+00  1.
       16    1    4    4    0    0  4.61376288120E+00 -1.72150859495E+01  4.08666370070E+02  4.09054822854E+02  5.39479660939E-06  0.00000000000E+00  1.
      -16    1    4    4    0    0  1.30913549864E+00  4.31609245277E+01  8.37182472391E+02  8.38295336673E+02  1.07895932188E-05  0.00000000000E+00  1.
        2    1    5    5  803    0  8.90449198622E+00 -4.88483980872E+00  2.33038463721E+01  2.54208751467E+01  5.27762022523E-06  0.00000000000E+00  1.
       -2    1    5    5    0  803 -1.48273903661E+01 -2.10609987695E+01  6.03030735609E+02  6.03580554080E+02  0.00000000000E+00  0.00000000000E+00  1.
</event>
<event>
 9   0   8.4526602E+01   6.2497666E+01   7.8125000E-03   1.3829026E-01
       21   -1    0    0  501  502  0.00000000000E+00  0.00000000000E+00  1.36820717092E+02  1.36820717092E+02  0.00000000000E+00  0.00000000000E+00  1.
       21   -1    0    0  502  501  0.00000000000E+00  0.00000000000E+00 -2.85480026763E+01  2.85480026763E+01  0.00000000000E+00  0.00000000000E+00  1.
       25    2    1    2    0    0 -8.88178419700E-16 -7.10542735760E-15  1.08272714415E+02  1.65368719768E+02  1.24995331076E+02  0.00000000000E+00  1.
       23    2    3    3    0    0 -5.89513510952E+00 -2.51892227204E+01  2.62697368403E+01  6.32564370705E+01  5.14006634001E+01  0.00000000000E+00  1.
       23    2    3    3    0    0  5.89513510952E+00  2.51892227204E+01  8.20029775750E+01  1.02112282698E+02  5.50743169483E+01  0.00000000000E+00  1.
        3    1    4    4  803    0 -5.48685115153E-01 -4.09220283455E+01  1.84719131537E+01  4.49012810931E+01  0.00000000000E+00  0.00000000000E+00  1.
       -3    1    4    4    0  803 -5.34644999437E+00  1.57328056250E+01  7.79782368667E+00  1.83551561774E+01  0.00000000000E+00  0.00000000000E+00  1.
       14    1    5    5    0    0  1.54960231165E+01  2.10731720947E+01  7.96800705544E+00  2.73440021027E+01  0.00000000000E+00  0.00000000000E+00  1.
      -14    1    5    5    0    0 -9.60088800697E+00  4.11605062575E+00  7.40349705195E+01  7.47682805948E+01  1.34869915235E-06  0.00000000000E+00  1.
</event>
<event>
 9   0   1.5812054E-04   6.2500165E+01   7.8125000E-03   1.3828932E-01
       21   -1    0    0  501  502  0.00000000000E+00  0.00000000000E+00  9.46842107659E+02  9.46842107659E+02  0.00000000000E+00  0.00000000000E+00  1.
       21   -1    0    0  502  501  0.00000000000E+00  0.00000000000E+00 -4.12557768481E+00  4.12557768481E+00  0.00000000000E+00  0.00000000000E+00  1.
       25    2    1    2    0    0  0.00000000000E+00 -2.66453525910E-15  9.42716529974E+02  9.50967685344E+02  1.25000330726E+02  0.00000000000E+00  1.
       23    2    3    3    0    0 -3.21758494534E+01  5.27698700448E+00  4.37633972916E+02  4.41845955977E+02  5.13928271590E+01  0.00000000000E+00  1.
       23    2    3    3    0    0  3.21758494534E+01 -5.27698700448E+00  5.05082557058E+02  5.09121729367E+02  5.50764376914E+01  0.00000000000E+00  1.
        5    1    4    4  803    0 -1.19042137431E+01 -2.26520168363E+01  1.88390197502E+02  1.90179528831E+02  4.75000000000E+00  0.00000000000E+00  1.
       -5    1    4    4    0  803 -2.02716357103E+01  2.79290038408E+01  2.49243775414E+02  2.51666427146E+02  4.75000000000E+00  0.00000000000E+00  1.
        2    1    5    5  804    0  2.93015740403E+01  5.62972644267E+00  1.12875858299E+02  1.16752882068E+02  2.33601545599E-06  0.00000000000E+00  1.
       -2    1    5    5    0  804  2.87427541316E+00 -1.09067134472E+01  3.92206698759E+02  3.92368847499E+02  5.39479660939E-06  0.00000000000E+00  1.
</event>
<event>
 9   0   7.1395578E-09   6.2499019E+01   7.8125000E-03   1.3828975E-01
       21   -1    0    0  501  502  0.00000000000E+00  0.00000000000E+00  9.31615957450E+02  9.31615957450E+02  0.00000000000E+00  0.00000000000E+00  1.
       21   -1    0    0  502  501  0.00000000000E+00  0.00000000000E+00 -4.19285145633E+00  4.19285145633E+00  0.00000000000E+00  0.00000000000E+00  1.
       25    2    1    2    0    0  1.77635683940E-15  0.00000000000E+00  9.27423105993E+02  9.35808808906E+02  1.24998037168E+02  0.00000000000E+00  1.
       23    2    3    3    0    0  6.74083866706E+00  2.86931022322E+01  5.82043146665E+02  5.85386072893E+02  5.50808200322E+01  0.00000000000E+00  1.
       23    2    3    3    0    0 -6.74083866706E+00 -2.86931022322E+01  3.45379959328E+02  3.50422736013E+02  5.13813642069E+01  0.00000000000E+00  1.
        5    1    4    4  803    0  6.15716076285E+00 -1.57971819143E+01  1.80927411081E+02  1.81782155795E+02  4.75000000000E+00  0.00000000000E+00  1.
       -5    1    4    4    0  803  5.83677904215E-01  4.44902841465E+01  4.01115735584E+02  4.03603917098E+02  4.75000000000E+00  0.00000000000E+00  1.
        5    1    5    5  804    0  8.35547492645E+00 -5.81666714987E+00  1.43425282605E+01  1.82186222004E+01  4.75000000000E+00  0.00000000000E+00  1.
       -5    1    5    5    0  804 -1.50963135935E+01 -2.28764350823E+01  3.31037431068E+02  3.32204113813E+02  4.75000000000E+00  0.00000000000E+00  1.
</event>
<event>
 9   0   2.8822591E-11   6.2499837E+01   7.8125000E-03   1.3828945E-01
       21   -1    0    0  501  502  0.00000000000E+00  0.00000000000E+00  1.93939108310E+03  1.93939108310E+03  0.00000000000E+00  0.00000000000E+00  1.
       21   -1    0    0  502  501  0.00000000000E+00  0.00000000000E+00 -2.01415264748E+00  2.01415264748E+00  0.00000000000E+00  0.00000000000E+00  1.
       25    2    1    2    0    0  2.66453525910E-15  1.42108547152E-14  1.93737693046E+03  1.94140523575E+03  1.24999674952E+02  0.00000000000E+00  1.
       23    2    3    3    0    0 -6.98559705152E+00 -2.86310011797E+01  7.23226358586E+02  7.25647244089E+02  5.13714347176E+01  0.00000000000E+00  1.
       23    2    3    3    0    0  6.98559705152E+00  2.86310011797E+01  1.21415057187E+03  1.21575799166E+03  5.51121613094E+01  0.00000000000E+00  1.
       15    1    4    4    0    0  6.20911398479E-01 -4.28405084150E+01  5.45355284207E+02  5.47038607160E+02  1.77680000002E+00  0.00000000000E+00  1.
      -15    1    4    4    0    0 -7.60650845000E+00  1.42095072353E+01  1.77871074379E+02  1.78608636929E+02  1.77680000001E+00  0.00000000000E+00  1.
        5    1    5    5  803    0  2.44835879363E+01  3.07963410857E+01  5.84045528536E+02  5.85388420286E+02  4.75000000001E+00  0.00000000000E+00  1.
       -5    1    5    5    0  803 -1.74979908848E+01 -2.16533990598E+00  6.30105043335E+02  6.30369571377E+02  4.74999999998E+00  0.00000000000E+00  1.
</event>
<event>
 9   0   1.7843582E-07   6.2499019E+01   7.8125000E-03   1.3828975E-01
       21   -1    0    0  501  502  0.00000000000E+00  0.00000000000E+00  1.75175552863E+03  1.75175552863E+03  0.00000000000E+00  0.00000000000E+00  1.
       21   -1    0    0  502  501  0.00000000000E+00  0.00000000000E+00 -2.22983590030E+00  2.22983590030E+00  0.00000000000E+00  0.00000000000E+00  1.
       25    2    1    2    0    0  3.55271367880E-15  3.55271367880E-15  1.74952569273E+03  1.75398536453E+03  1.24998037845E+02  0.00000000000E+00  1.
       23    2    3    3    0    0 -7.32843930248E+00  2.10699845589E+01  9.05302683706E+02  9.06841209038E+02  4.78579043842E+01  0.00000000000E+00  1.
       23    2    3    3    0    0  7.32843930248E+00 -2.10699845589E+01  8.44223009025E+02  8.47144155494E+02  6.66564396594E+01  0.00000000000E+00  1.
        5    1    4    4  803    0 -1.31691547629E+00 -1.50344600509E+01  2.93752937020E+02  2.94178720786E+02  4.75000000000E+00  0.00000000000E+00  1.
       -5    1    4    4    0  803 -6.01152382619E+00  3.61044446098E+01  6.11549746687E+02  6.12662488253E+02  4.75000000000E+00  0.00000000000E+00  1.
        2    1    5    5  804    0  2.04213273040E+01  1.04412578226E+00  8.27981846058E+01  8.52857561295E+01  9.39260273151E-06  0.00000000000E+00  1.
       -2    1    5    5    0  804 -1.30928880016E+01 -2.21141103411E+01  7.61424824420E+02  7.61858399465E+02  0.00000000000E+00  0.00000000000E+00  1.
</event>
<event>
 9   0   1.7975427E-05   6.2499012E+01   7.8125000E-03   1.3828975E-01
       21   -1    0    0  501  502  0.00000000000E+00  0.00000000000E+00  1.08543001864E+03  1.08543001864E+03  0.00000000000E+00  0.00000000000E+00  1.
       21   -1    0    0  502  501  0.00000000000E+00  0.00000000000E+00 -3.59869037026E+00  3.59869037026E+00  0.00000000000E+00  0.00000000000E+00  1.
       25    2    1    2    0    0  0.00000000000E+00 -3.55271367880E-15  1.08183132827E+03  1.08902870901E+03  1.24998024875E+02  0.00000000000E+00  1.
       23    2    3    3    0    0 -6.47351810160E+00 -2.85326825800E+01  4.02885597091E+02  4.07200527175E+02  5.13755250763E+01  0.00000000000E+00  1.
       23    2    3    3    0    0  6.47351810160E+00  2.85326825800E+01  6.78945731179E+02  6.81828181835E+02  5.53745722000E+01  0.00000000000E+00  1.
        5    1    4    4  804    0 -9.03363835580E+00 -3.79765606303E+01  3.78023176184E+02  3.80063034261E+02  4.75000000000E+00  0.00000000000E+00  1.
       -5    1    4    4    0  804  2.56012025420E+00  9.44387805022E+00  2.48624209065E+01  2.71374929144E+01  4.75000000000E+00  0.00000000000E+00  1.
        2    1    5    5  803    0  1.64686645497E+01  4.60291444770E+00  6.13583370526E+01  6.36965405031E+01  9.84180805233E-06  0.00000000000E+00  1.
       -2    1    5    5    0  803 -9.99514644811E+00  2.39297681323E+01  6.17587394127E+02  6.18131641532E+02  1.32144989591E-05  0.00000000000E+00  1.
</event>
<event>
 9   0   2.7640305E-08   6.2499954E+01   7.8125000E-03   1.3828940E-01
       21   -1    0    0  501  502  0.00000000000E+00  0.00000000000E+00  1.93928104682E+03  1.93928104682E+03  0.00000000000E+00  0.00000000000E+00  1.
       21   -1    0    0  502  501  0.00000000000E+00  0.00000000000E+00 -2.01427446681E+00  2.01427446681E+00  0.00000000000E+00  0.00000000000E+00  1.
       25    2    1    2    0    0 -3.55271367880E-15 -3.55271367880E-15  1.93726677235E+03  1.94129532128E+03  1.24999908745E+02  0.00000000000E+00  1.
       23    2    3    3    0    0 -6.69924068921E+00 -2.84808398151E+01  7.22705294880E+02  7.25120442362E+02  5.13874948044E+01  0.00000000000E+00  1.
       23    2    3    3    0    0  6.69924068921E+00  2.84808398151E+01  1.21456147747E+03  1.21617487892E+03  5.53689037447E+01  0.00000000000E+00  1.
       14    1    4    4    0    0 -6.93920681270E-01 -4.31451536013E+01  5.49616809167E+02  5.51308101550E+02  7.62939453125E-06  0.00000000000E+00  1.
      -14    1    4    4    0    0 -6.00532000794E+00  1.46643137862E+01  1.73088485713E+02  1.73812340913E+02  6.03156597170E-06  0.00000000000E+00  1.
        1    1    5    5  804    0  2.10440294027E+01  2.76250090212E+01  4.05080815117E+02  4.06566672459E+02  9.34406182397E-06  0.00000000000E+00  1.
       -1    1    5    5    0  804 -1.43447887135E+01  8.55830793864E-01  8.09480662354E+02  8.09608206564E+02  0.00000000000E+00  0.00000000000E+00  1.
</event>
<event>
 9   0   3.3030345E-08   6.2497112E+01   7.8125000E-03   1.3829046E-01
       21   -1    0    0  501  502  0.00000000000E+00  0.00000000000E+00  1.93937807361E+03  1.93937807361E+03  0.00000000000E+00  0.00000000000E+00  1.
       21   -1    0    0  502  501  0.00000000000E+00  0.00000000000E+00 -2.01399048659E+00  2.01399048659E+00  0.00000000000E+00  0.00000000000E+00  1.
       25    2    1    2    0    0  8.88178419700E-16  0.00000000000E+00  1.93736408312E+03  1.94139206409E+03  1.24994223709E+02  0.00000000000E+00  1.
       23    2    3    3    0    0  5.25445242939E+00  2.09217046919E+01  6.10882132754E+02  6.13739046593E+02  5.50754954360E+01  0.00000000000E+00  1.
       23    2    3    3    0    0 -5.25445242939E+00 -2.09217046919E+01  1.32648195036E+03  1.32765301750E+03  5.14085910371E+01  0.00000000000E+00  1.
       12    1    4    4    0    0  3.86950811432E+00 -1.88505560287E+01  1.82019769174E+02  1.83034185129E+02  0.00000000000E+00  0.00000000000E+00  1.
      -12    1    4    4    0    0  1.38494431507E+00  3.97722607206E+01  4.28862363579E+02  4.30704861464E+02  0.00000000000E+00  0.00000000000E+00  1.
       13    1    5    5    0    0  1.26807191297E+01 -8.20216183384E+00  1.16936451105E+02  1.17907679382E+02  1.05659998205E-01  0.00000000000E+00  1.
      -13    1    5    5    0    0 -1.79351715591E+01 -1.27195428580E+01  1.20954549926E+03  1.20974533812E+03  1.05660000228E-01  0.00000000000E+00  1.
</event>
<event>
 9   0   8.9522583E-13   6.2495509E+01   7.8125000E-03   1.3829106E-01
       21   -1    0    0  501  502  0.00000000000E+00  0.00000000000E+00  1.74882281930E+03  1.74882281930E+03  0.00000000000E+00  0.00000000000E+00  1.
       21   -1    0    0  502  501  0.00000000000E+00  0.00000000000E+00 -2.23332437343E+00  2.23332437343E+00  0.00000000000E+00  0.00000000000E+00  1.
       25    2    1    2    0    0 -3.55271367880E-15  0.00000000000E+00  1.74658949493E+03  1.75105614367E+03  1.24991017712E+02  0.00000000000E+00  1.
       23    2    3    3    0    0  6.55921636277E+00  2.87670592162E+01  1.09411698420E+03  1.09589723289E+03  5.50291097880E+01  0.00000000000E+00  1.
       23    2    3    3    0    0 -6.55921636277E+00 -2.87670592162E+01  6.52472510724E+02  6.55158910782E+02  5.14028609213E+01  0.00000000000E+00  1.
        4    1    4    4  804    0  4.11137618816E+00 -1.64529122217E+01  3.31069618494E+02  3.31506138178E+02  1.27500000004E+00  0.00000000000E+00  1.
       -4    1    4    4    0  804  2.44784017461E+00  4.52199714379E+01  7.63047365708E+02  7.64391094714E+02  1.27500000009E+00  0.00000000000E+00  1.
        2    1    5    5  803    0  8.57134120862E+00 -5.80135614126E+00  2.46553639515E+01  2.67396820246E+01  6.98367048067E-06  0.00000000000E+00  1.
       -2    1    5    5    0  803 -1.51305575714E+01 -2.29657030749E+01  6.27817146773E+02  6.28419228757E+02  7.62939453125E-06  0.00000000000E+00  1.
</event>
<event>
 9   0   1.4214319E-04   6.2497605E+01   7.8125000E-03   1.3829028E-01
       21   -1    0    0  501  502  0.00000000000E+00  0.00000000000E+00  1.75537765302E+02  1.75537765302E+02  0.00000000000E+00  0.00000000000E+00  1.
       21   -1    0    0  502  501  0.00000000000E+00  0.00000000000E+00 -2.22513404752E+01  2.22513404752E+01  0.00000000000E+00  0.00000000000E+00  1.
       25    2    1    2    0    0  2.66453525910E-15  1.06581410364E-14  1.53286424827E+02  1.97789105777E+02  1.24995209220E+02  0.00000000000E+00  1.
       23    2    3    3    0    0 -6.90500567696E+00 -2.85039302992E+01  5.22201223809E+01  7.89250963977E+01  5.14011333922E+01  0.00000000000E+00  1.
       23    2    3    3    0    0  6.90500567696E+00  2.85039302992E+01  1.01066302446E+02  1.18864009379E+02  5.52639311829E+01  0.00000000000E+00  1.
        1    1    4    4  804    0 -1.19886031845E+00 -3.81231478704E+01  5.54336994791E+01  6.72882361264E+01  0.00000000000E+00  0.00000000000E+00  1.
       -1    1    4    4    0  804 -5.70614535852E+00  9.61921757122E+00 -3.21357709813E+00  1.16368604713E+01  1.02547708357E-06  0.00000000000E+00  1.
        3    1    5    5  803    0 -7.47027624638E+00  2.51958762069E+01  1.25424778576E+01  2.91195974532E+01  0.00000000000E+00  0.00000000000E+00  1.
       -3    1    5    5    0  803  1.43752819233E+01  3.30805409227E+00  8.85238245881E+01  8.97444119261E+01  1.90734863281E-06  0.00000000000E+00  1.
</event>
<event>
 9   0   3.5478392E-09   6.2499019E+01   7.8125000E-03   1.3828975E-01
       21   -1    0    0  501  502  0.00000000000E+00  0.00000000000E+00  1.93943873183E+03  1.93943873183E+03  0.00000000000E+00  0.00000000000E+00  1.
       21   -1    0    0  502  501  0.00000000000E+00  0.00000000000E+00 -2.01405039227E+00  2.01405039227E+00  0.00000000000E+00  0.00000000000E+00  1.
       25    2    1    2    0    0 -1.77635683940E-15 -7.10542735760E-15  1.93742468144E+03  1.94145278223E+03  1.24998037403E+02  0.00000000000E+00  1.
       23    2    3    3    0    0  1.18813170639E+01 -2.70005125126E+01  7.24119053913E+02  7.26541215087E+02  5.14153635513E+01  0.00000000000E+00  1.
       23    2    3    3    0    0 -1.18813170639E+01  2.70005125126E+01  1.21330562753E+03  1.21491156714E+03  5.50397747528E+01  0.00000000000E+00  1.
       15    1    4    4    0    0  8.96428069167E+00 -4.23975418194E+01  5.51874515076E+02  5.53576144075E+02  1.77679999999E+00  0.00000000000E+00  1.
      -15    1    4    4    0    0  2.91703637219E+00  1.53970293069E+01  1.72244538837E+02  1.72965071012E+02  1.77680000000E+00  0.00000000000E+00  1.
        4    1    5    5  803    0 -8.18332605102E+00  2.96935774910E+01  2.97359621003E+02  2.98953249183E+02  1.27500000005E+00  0.00000000000E+00  1.
       -4    1    5    5    0  803 -3.69799101284E+00 -2.69306497841E+00  9.15946006526E+02  9.15958317956E+02  1.27499999999E+00  0.00000000000E+00  1.
</event>
<event>
 9   0   1.5159723E-01   6.2499888E+01   7.8125000E-03   1.3828943E-01
       21   -1    0    0  501  502  0.00000000000E+00  0.00000000000E+00  1.82911178689E+03  1.82911178689E+03  0.00000000000E+00  0.00000000000E+00  1.
       21   -1    0    0  502  501  0.00000000000E+00  0.00000000000E+00 -2.13559170928E+00  2.13559170928E+00  0.00000000000E+00  0.00000000000E+00  1.
       25    2    1    2    0    0 -3.55271367880E-15  0.00000000000E+00  1.82697619518E+03  1.83124737860E+03  1.24999775479E+02  0.00000000000E+00  1.
       23    2    3    3    0    0  6.47888728319E+00 -2.68783935844E+01  6.79190333587E+02  6.81693630494E+02  5.14030407273E+01  0.00000000000E+00  1.
       23    2    3    3    0    0 -6.47888728319E+00  2.68783935844E+01  1.14778586160E+03  1.14955374811E+03  5.74196106422E+01  0.00000000000E+00  1.
        3    1    4    4  803    0  2.89131576068E+01 -1.88447023520E+01  4.11602588646E+02  4.13046951895E+02  5.39479660939E-06  0.00000000000E+00  1.
       -3    1    4    4    0  803 -2.24342703236E+01 -8.03369123233E+00  2.67587744941E+02  2.68646678699E+02  7.62939453125E-06  0.00000000000E+00  1.
        1    1    5    5  804    0  1.33442966602E+01  1.31040028470E+01  1.17008071524E+02  1.18493349795E+02  2.69739830470E-06  0.00000000000E+00  1.
       -1    1    5    5    0  804 -1.98231839434E+01  1.37743907374E+01  1.03077779007E+03  1.03106039841E+03  2.15791864376E-05  0.00000000000E+00  1.
</event>
<event>
 9   0   2.7962722E-03   6.2493331E+01   7.8125000E-03   1.3829188E-01
       21   -1    0    0  501  502  0.00000000000E+00  0.00000000000E+00  1.93958062964E+03  1.93958062964E+03  0.00000000000E+00  0.00000000000E+00  1.
       21   -1    0    0  502  501  0.00000000000E+00  0.00000000000E+00 -2.01353652261E+00  2.01353652261E+00  0.00000000000E+00  0.00000000000E+00  1.
       25    2    1    2    0    0  0.00000000000E+00 -5.32907051820E-15  1.93756709311E+03  1.94159416616E+03  1.24986662270E+02  0.00000000000E+00  1.
       23    2    3    3    0    0 -1.66180945759E+01 -2.69706101135E+00  7.89669940603E+02  7.90137502100E+02  2.13359304292E+01  0.00000000000E+00  1.
       23    2    3    3    0    0  1.66180945759E+01  2.69706101135E+00  1.14789715251E+03  1.15145666406E+03  8.88883640210E+01  0.00000000000E+00  1.
        1    1    4    4  803    0 -1.30164145750E+01 -1.05510651107E+01  6.39284706041E+02  6.39504251277E+02  1.07895932188E-05  0.00000000000E+00  1.
       -1    1    4    4    0  803 -3.60168000087E+00  7.85400409933E+00  1.50385234562E+02  1.50633250923E+02  6.32595975944E-06  0.00000000000E+00  1.
        3    1    5    5  804    0  2.67279404741E+00  2.58295369477E+01  1.03417112881E+02  1.06627426320E+02  1.90734863281E-06  0.00000000000E+00  1.
       -3    1    5    5    0  804  1.39453005285E+01 -2.31324759363E+01  1.04448003963E+03  1.04482923784E+03  2.15791864376E-05  0.00000000000E+00  1.
</event>
<event>
 9   0   6.0703886E-07   6.2497829E+01   7.8125000E-03   1.3829020E-01
       21   -1    0    0  501  502  0.00000000000E+00  0.00000000000E+00  1.61848971839E+02  1.61848971839E+02  0.00000000000E+00  0.00000000000E+00  1.
       21   -1    0    0  502  501  0.00000000000E+00  0.00000000000E+00 -2.41334778927E+01  2.41334778927E+01  0.00000000000E+00  0.00000000000E+00  1.
       25    2    1    2    0    0 -2.66453525910E-15  0.00000000000E+00  1.37715493946E+02  1.85982449732E+02  1.24995657266E+02  0.00000000000E+00  1.
       23    2    3    3    0    0 -5.41688823227E+00 -2.33711531919E+01  4.65333495891E+01  7.33646403869E+01  5.13951783291E+01  0.00000000000E+00  1.
       23    2    3    3    0    0  5.41688823227E+00  2.33711531919E+01  9.11821443572E+01  1.12617809345E+02  6.15876128163E+01  0.00000000000E+00  1.
        3    1    4    4  803    0 -5.68943898999E-02 -3.96091942998E+01  3.18755444261E+01  5.08423234390E+01  0.00000000000E+00  0.00000000000E+00  1.
       -3    1    4    4    0  803 -5.35999384237E+00  1.62380411078E+01  1.46578051630E+01  2.25223171479E+01  0.00000000000E+00  0.00000000000E+00  1.
        2    1    5    5  804    0  1.68909645500E+01  2.19406773277E+01  8.26243435590E+00  2.88957753364E+01  1.39530896076E-06  0.00000000000E+00  1.
       -2    1    5    5    0  804 -1.14740763178E+01  1.43047586424E+00  8.29197100013E+01  8.37220342084E+01  1.34869915235E-06  0.00000000000E+00  1.
</event>
<event>
 9   0   3.5523071E-09   6.2497627E+01   7.8125000E-03   1.3829027E-01
       21   -1    0    0  501  502  0.00000000000E+00  0.00000000000E+00  9.34426897253E+02  9.34426897253E+02  0.00000000000E+00  0.00000000000E+00  1.
       21   -1    0    0  502  501  0.00000000000E+00  0.00000000000E+00 -4.18005244406E+00  4.18005244406E+00  0.00000000000E+00  0.00000000000E+00  1.
       25    2    1    2    0    0  8.88178419700E-16  0.00000000000E+00  9.30246844809E+02  9.38606949697E+02  1.24995254881E+02  0.00000000000E+00  1.
       23    2    3    3    0    0 -7.26159356426E+00 -2.85769802416E+01  3.46649185781E+02  3.51676142785E+02  5.13914084359E+01  0.00000000000E+00  1.
       23    2    3    3    0    0  7.26159356426E+00  2.85769802416E+01  5.83597659029E+02  5.86930806912E+02  5.50651426781E+01  0.00000000000E+00  1.
        1    1    4    4  804    0 -7.65077813024E-01 -3.80240958801E+01  3.24635707713E+02  3.26855870376E+02  5.39479660939E-06  0.00000000000E+00  1.
       -1    1    4    4    0  804 -6.49651575123E+00  9.44711563843E+00  2.20134780673E+01  2.48202726088E+01  1.75201159199E-06  0.00000000000E+00  1.
       16    1    5    5    0    0  1.89565073429E+01  1.54355919579E+01  9.76025176028E+01  1.00617384741E+02  7.00804636798E-06  0.00000000000E+00  1.
      -16    1    5    5    0    0 -1.16949137787E+01  1.31413882838E+01  4.85995141426E+02  4.86313422171E+02  9.34406182397E-06  0.00000000000E+00  1.
</event>
<event>
 9   0   1.8040787E-04   6.2499996E+01   7.8125000E-03   1.3828939E-01
       21   -1    0    0  501  502  0.00000000000E+00  0.00000000000E+00  1.86087560189E+03  1.86087560189E+03  0.00000000000E+00  0.00000000000E+00  1.
       21   -1    0    0  502  501  0.00000000000E+00  0.00000000000E+00 -2.09914595763E+00  2.09914595763E+00  0.00000000000E+00  0.00000000000E+00  1.
       25    2    1    2    0    0  3.55271367880E-15  7.10542735760E-15  1.85877645593E+03  1.86297474785E+03  1.24999991958E+02  0.00000000000E+00  1.
       23    2    3    3    0    0  7.31877040860E+00  2.91392544037E+01  1.14595254226E+03  1.14767036798E+03  5.51124658316E+01  0.00000000000E+00  1.
       23    2    3    3    0    0 -7.31877040860E+00 -2.91392544037E+01  7.12823913675E+02  7.15304379865E+02  5.13786278592E+01  0.00000000000E+00  1.
       14    1    4    4    0    0 -4.27553930040E+00 -1.57951669025E+01  2.98292084235E+02  2.98740581527E+02  0.00000000000E+00  0.00000000000E+00  1.
      -14    1    4    4    0    0  1.15943097090E+01  4.49344213062E+01  8.47660458025E+02  8.48929786457E+02  0.00000000000E+00  0.00000000000E+00  1.
        2    1    5    5  804    0  8.41489390943E+00 -5.64982541534E+00  2.61029917047E+01  2.80017347368E+01  2.52318507296E-06  0.00000000000E+00  1.
       -2    1    5    5    0  804 -1.57336643180E+01 -2.34894289884E+01  6.86720921970E+02  6.87302645229E+02  0.00000000000E+00  0.00000000000E+00  1.
</event>
<event>
 9   0   6.7748772E-11   6.2480313E+01   7.8125000E-03   1.3829674E-01
       21   -1    0    0  501  502  0.00000000000E+00  0.00000000000E+00  9.34592548130E+02  9.34592548130E+02  0.00000000000E+00  0.00000000000E+00  1.
       21   -1    0    0  502  501  0.00000000000E+00  0.00000000000E+00 -4.17699617638E+00  4.17699617638E+00  0.00000000000E+00  0.00000000000E+00  1.
       25    2    1    2    0    0  1.77635683940E-15  3.55271367880E-15  9.30415551954E+02  9.38769544306E+02  1.24960625799E+02  0.00000000000E+00  1.
       23    2    3    3    0    0 -6.77524073923E+00 -2.84391717247E+01  3.46429143993E+02  3.51441265228E+02  5.14112898300E+01  0.00000000000E+00  1.
       23    2    3    3    0    0  6.77524073923E+00  2.84391717247E+01  5.83986407961E+02  5.87328279079E+02  5.53144858675E+01  0.00000000000E+00  1.
        2    1    4    4  804    0 -3.32990495345E+00 -4.34591560502E+01  2.66371271890E+02  2.69913765858E+02  0.00000000000E+00  0.00000000000E+00  1.
       -2    1    4    4    0  804 -3.44533578578E+00  1.50199843255E+01  8.00578721031E+01  8.15274993698E+01  3.30362473978E-06  0.00000000000E+00  1.
        1    1    5    5  803    0  1.87457892292E+01  1.56212859279E+01  9.68642895882E+01  9.98905390179E+01  5.72204589844E-06  0.00000000000E+00  1.
       -1    1    5    5    0  803 -1.19705484900E+01  1.28178857968E+01  4.87122118373E+02  4.87437740061E+02  5.39479660939E-06  0.00000000000E+00  1.
</event>
<event>
 9   0   1.3622838E-01   6.2497687E+01   7.8125000E-03   1.3829025E-01
       21   -1    0    0  501  502  0.00000000000E+00  0.00000000000E+00  9.35899874924E+02  9.35899874924E+02  0.00000000000E+00  0.00000000000E+00  1.
       21   -1    0    0  502  501  0.00000000000E+00  0.00000000000E+00 -4.17348158089E+00  4.17348158089E+00  0.00000000000E+00  0.00000000000E+00  1.
       25    2    1    2    0    0  7.10542735760E-15  3.55271367880E-15  9.31726393343E+02  9.40073356505E+02  1.24995374147E+02  0.00000000000E+00  1.
       23    2    3    3    0    0 -2.73117076174E+01  2.18053313615E+01  3.53133847910E+02  3.58564054143E+02  5.14126884607E+01  0.00000000000E+00  1.
       23    2    3    3    0    0  2.73117076174E+01 -2.18053313615E+01  5.78592545433E+02  5.81509302362E+02  4.65008951985E+01  0.00000000000E+00  1.
        3    1    4    4  804    0 -1.17395764056E+01 -9.44987901870E+00  3.02371612968E+01  3.37846679862E+01  5.28837991066E-06  0.00000000000E+00  1.
       -3    1    4    4    0  804 -1.55721312118E+01  3.12552103802E+01  3.22896686614E+02  3.24779386157E+02  6.60724947956E-06  0.00000000000E+00  1.
        4    1    5    5  803    0  2.69015551255E+01 -9.29749498256E+00  1.47121574533E+02  1.49854997912E+02  1.27499999999E+00  0.00000000000E+00  1.
       -4    1    5    5    0  803  4.10152491807E-01 -1.25078363789E+01  4.31470970900E+02  4.31654304450E+02  1.27499999999E+00  0.00000000000E+00  1.
</event>
<event>
 9   0   5.6908758E-03   6.2497195E+01   7.8125000E-03   1.3829043E-01
       21   -1    0    0  501  502  0.00000000000E+00  0.00000000000E+00  9.07433677220E+02  9.07433677220E+02  0.00000000000E+00  0.00000000000E+00  1.
       21   -1    0    0  502  501  0.00000000000E+00  0.00000000000E+00 -4.30433592046E+00  4.30433592046E+00  0.00000000000E+00  0.00000000000E+00  1.
       25    2    1    2    0    0 -8.88178419700E-16  7.10542735760E-15  9.03129341299E+02  9.11738013140E+02  1.24994389831E+02  0.00000000000E+00  1.
       23    2    3    3    0    0  5.00633695455E+00  2.13425458865E+01  6.40215053055E+02  6.42950961538E+02  5.50459545215E+01  0.00000000000E+00  1.
       23    2    3    3    0    0 -5.00633695455E+00 -2.13425458865E+01  2.62914288244E+02  2.68787051603E+02  5.14002769607E+01  0.00000000000E+00  1.
        1    1    4    4  804    0  5.02218303413E+00 -1.85431737003E+01  2.30377412164E+02  2.31177039723E+02  3.81469726562E-06  0.00000000000E+00  1.
       -1    1    4    4    0  804 -1.58460795764E-02  3.98857195868E+01  4.09837640891E+02  4.11773922015E+02  5.39479660939E-06  0.00000000000E+00  1.
        2    1    5    5  803    0 -2.38741405447E+01 -5.24229887965E+00  1.94219257522E+02  1.95751312424E+02  3.81469726562E-06  0.00000000000E+00  1.
       -2    1    5    5    0  803  1.88678035902E+01 -1.61002470069E+01  6.86950307222E+01  7.30357393782E+01  0.00000000000E+00  0.00000000000E+00  1.
</event>
<event>
 9   0   2.9082041E-13   6.2501265E+01   7.8125000E-03   1.3828891E-01
       21   -1    0    0  501  502  0.00000000000E+00  0.00000000000E+00  1.63274532218E+02  1.63274532218E+02  0.00000000000E+00  0.00000000000E+00  1.
       21   -1    0    0  502  501  0.00000000000E+00  0.00000000000E+00 -2.39253976950E+01  2.39253976950E+01  0.00000000000E+00  0.00000000000E+00  1.
       25    2    1    2    0    0 -8.88178419700E-16  3.55271367880E-15  1.39349134523E+02  1.87199929913E+02  1.25002529843E+02  0.00000000000E+00  1.
       23    2    3    3    0    0 -7.08651560302E+00 -2.95037480190E+01  5.05055481224E+01  7.81886022575E+01  5.13999735533E+01  0.00000000000E+00  1.
       23    2    3    3    0    0  7.08651560302E+00  2.95037480190E+01  8.88435864010E+01  1.09011327656E+02  5.54039426589E+01  0.00000000000E+00  1.
       12    1    4    4    0    0 -1.38306728817E+00 -4.39931480994E+01  3.92698512830E+01  5.89867033713E+01  0.00000000000E+00  0.00000000000E+00  1.
      -12    1    4    4    0    0 -5.70344831485E+00  1.44894000804E+01  1.12356968393E+01  1.92018988862E+01  1.34869915235E-06  0.00000000000E+00  1.
        5    1    5    5  803    0  1.62343695322E+01  2.41395994327E+01  1.28852434305E+01  3.21693489698E+01  4.75000000000E+00  0.00000000000E+00  1.
       -5    1    5    5    0  803 -9.14785392919E+00  5.36414858631E+00  7.59583429705E+01  7.68419786861E+01  4.75000000000E+00  0.00000000000E+00  1.
</event>
<event>
 9   0   5.9413113E-11   6.2495454E+01   7.8125000E-03   1.3829108E-01
       21   -1    0    0  501  502  0.00000000000E+00  0.00000000000E+00  9.30608772536E+02  9.30608772536E+02  0.00000000000E+00  0.00000000000E+00  1.
       21   -1    0    0  502  501  0.00000000000E+00  0.00000000000E+00 -4.19691060376E+00  4.19691060376E+00  0.00000000000E+00  0.00000000000E+00  1.
       25    2    1    2    0    0  5.32907051820E-15  0.00000000000E+00  9.26411861932E+02  9.34805683139E+02  1.24990908876E+02  0.00000000000E+00  1.
       23    2    3    3    0    0 -4.79195534932E+00 -2.00427616612E+01  3.42428624558E+02  3.46877856131E+02  5.14024223760E+01  0.00000000000E+00  1.
       23    2    3    3    0    0  4.79195534932E+00  2.00427616612E+01  5.83983237374E+02  5.87927827009E+02  6.47922302929E+01  0.00000000000E+00  1.
        1    1    4    4  803    0  1.44169591942E+01 -2.43888415289E+01  2.79675964264E+02  2.81107291422E+02  0.00000000000E+00  0.00000000000E+00  1.
       -1    1    4    4    0  803 -1.92089145435E+01  4.34607986777E+00  6.27526602942E+01  6.57705648091E+01  3.09025797768E-06  0.00000000000E+00  1.
        1    1    5    5  804    0  2.53403152517E+01  2.75901381460E+01  4.89955878953E+02  4.91385908040E+02  0.00000000000E+00  0.00000000000E+00  1.
       -1    1    5    5    0  804 -2.05483599024E+01 -7.54737648482E+00  9.40273584211E+01  9.65419190686E+01  4.47312904341E-06  0.00000000000E+00  1.
</event>
<event>
 9   0   2.7232191E-08   6.2499018E+01   7.8125000E-03   1.3828975E-01
       21   -1    0    0  501  502  0.00000000000E+00  0.00000000000E+00  9.34499612629E+02  9.34499612629E+02  0.00000000000E+00  0.00000000000E+00  1.
       21   -1    0    0  502  501  0.00000000000E+00  0.00000000000E+00 -4.17991322765E+00  4.17991322765E+00  0.00000000000E+00  0.00000000000E+00  1.
       25    2    1    2    0    0  2.66453525910E-15  7.10542735760E-15  9.30319699401E+02  9.38679525856E+02  1.24998036658E+02  0.00000000000E+00  1.
       23    2    3    3    0    0  7.37254997031E+00 -2.85470293981E+01  3.46817924150E+02  3.51843674213E+02  5.14004979703E+01  0.00000000000E+00  1.
       23    2    3    3    0    0 -7.37254997031E+00  2.85470293981E+01  5.83501775251E+02  5.86835851643E+02  5.50700251689E+01  0.00000000000E+00  1.
        5    1    4    4  804    0  7.33871038326E+00 -3.76989132258E+01  3.28914119481E+02  3.31182918072E+02  4.75000000000E+00  0.00000000000E+00  1.
       -5    1    4    4    0  804  3.38395870504E-02  9.15188382769E+00  1.79038046688E+01  2.06607561414E+01  4.75000000000E+00  0.00000000000E+00  1.
        3    1    5    5  803    0  8.75970883257E+00  2.23800603093E+01  9.38109221261E+01  9.68405324634E+01  6.03156597170E-06  0.00000000000E+00  1.
       -3    1    5    5    0  803 -1.61322588029E+01  6.16696908886E+00  4.89690853125E+02  4.89995319280E+02  0.00000000000E+00  0.00000000000E+00  1.
</event>
<event>
 9   0   2.2866411E-11   6.2496512E+01   7.8125000E-03   1.3829069E-01
       21   -1    0    0  501  502  0.00000000000E+00  0.00000000000E+00  1.93949895374E+03  1.93949895374E+03  0.00000000000E+00  0.00000000000E+00  1.
       21   -1    0    0  502  501  0.00000000000E+00  0.00000000000E+00 -2.01382633343E+00  2.01382633343E+00  0.00000000000E+00  0.00000000000E+00  1.
       25    2    1    2    0    0  1.77635683940E-15  1.06581410364E-14  1.93748512741E+03  1.94151278008E+03  1.24993024873E+02  0.00000000000E+00  1.
       23    2    3    3    0    0 -4.81153538088E+00 -2.01356342308E+01  7.17837109153E+02  7.19972553796E+02  5.13981352161E+01  0.00000000000E+00  1.
       23    2    3    3    0    0  4.81153538088E+00  2.01356342308E+01  1.21964801826E+03  1.22154022628E+03  6.47351631316E+01  0.00000000000E+00  1.
        4    1    4    4  804    0  6.06087348473E-01 -3.50277654717E+01  6.05754153150E+02  6.06767691443E+02  1.27500000004E+00  0.00000000000E+00  1.
       -4    1    4    4    0  804 -5.41762272935E+00  1.48921312409E+01  1.12082956003E+02  1.13204862353E+02  1.27500000002E+00  0.00000000000E+00  1.
       15    1    5    5    0    0  1.73020472865E+01  2.08143266268E+01  2.01915788025E+02  2.03729574449E+02  1.77680000005E+00  0.00000000000E+00  1.
      -15    1    5    5    0    0 -1.24905119056E+01 -6.78692395983E-01  1.01773223023E+03  1.01781065183E+03  1.77679999999E+00  0.00000000000E+00  1.
</event>
<event>
 9   0   2.5085680E-11   6.2493054E+01   7.8125000E-03   1.3829198E-01
       21   -1    0    0  501  502  0.00000000000E+00  0.00000000000E+00  1.97364773326E+03  1.97364773326E+03  0.00000000000E+00  0.00000000000E+00  1.
       21   -1    0    0  502  501  0.00000000000E+00  0.00000000000E+00 -1.97876336598E+00  1.97876336598E+00  0.00000000000E+00  0.00000000000E+00  1.
       25    2    1    2    0    0  0.00000000000E+00 -3.55271367880E-15  1.97166896990E+03  1.97562649663E+03  1.24986108539E+02  0.00000000000E+00  1.
       23    2    3    3    0    0  6.57234103323E+00  2.87571612537E+01  1.23486248900E+03  1.23643970673E+03  5.50237372274E+01  0.00000000000E+00  1.
       23    2    3    3    0    0 -6.57234103323E+00 -2.87571612537E+01  7.36806480896E+02  7.39186789894E+02  5.14115752899E+01  0.00000000000E+00  1.
        4    1    4    4  804    0  3.75955039003E+00 -1.64848854251E+01  3.72571685845E+02  3.72957333196E+02  1.27500000007E+00  0.00000000000E+00  1.
       -4    1    4    4    0  804  2.81279064320E+00  4.52420466788E+01  8.62290803156E+02  8.63482373539E+02  1.27499999990E+00  0.00000000000E+00  1.
        2    1    5    5  803    0  8.80699539492E+00 -5.67130712539E+00  2.89474393874E+01  3.07844302471E+01  7.55452133072E-06  0.00000000000E+00  1.
       -2    1    5    5    0  803 -1.53793364281E+01 -2.30858541283E+01  7.07859041509E+02  7.08402359747E+02  7.62939453125E-06  0.00000000000E+00  1.
</event>
<event>
 9   0   1.5311864E-06   6.2496951E+01   7.8125000E-03   1.3829052E-01
       21   -1    0    0  501  502  0.00000000000E+00  0.00000000000E+00  1.93961589246E+03  1.93961589246E+03  0.00000000000E+00  0.00000000000E+00  1.
       21   -1    0    0  502  501  0.00000000000E+00  0.00000000000E+00 -2.01373315821E+00  2.01373315821E+00  0.00000000000E+00  0.00000000000E+00  1.
       25    2    1    2    0    0 -2.66453525910E-15  0.00000000000E+00  1.93760215930E+03  1.94162962561E+03  1.24993901241E+02  0.00000000000E+00  1.
       23    2    3    3    0    0  7.23392482916E+00  2.85724116714E+01  1.21365843984E+03  1.21526321258E+03  5.50377586495E+01  0.00000000000E+00  1.
       23    2    3    3    0    0 -7.23392482916E+00 -2.85724116714E+01  7.23943719453E+02  7.26366413030E+02  5.14290255137E+01  0.00000000000E+00  1.
       12    1    4    4    0    0  4.70767724552E+00 -1.65025051290E+01  3.69921243661E+02  3.70319080540E+02  0.00000000000E+00  0.00000000000E+00  1.
      -12    1    4    4    0    0  2.52624758363E+00  4.50749168004E+01  8.43737196183E+02  8.44944132043E+02  1.52587890625E-05  0.00000000000E+00  1.
        3    1    5    5  803    0 -1.15657778370E+01 -2.11084572202E+00  3.54090684052E+01  3.73098514064E+01  2.78041453116E-06  0.00000000000E+00  1.
       -3    1    5    5    0  803  4.33185300785E+00 -2.64615659493E+01  6.88534651048E+02  6.89056561624E+02  0.00000000000E+00  0.00000000000E+00  1.
</event>
<event>
 9   0   4.1612739E-05   6.2491619E+01   7.8125000E-03   1.3829252E-01
       21   -1    0    0  501  502  0.00000000000E+00  0.00000000000E+00  1.23561407614E+03  1.23561407614E+03  0.00000000000E+00  0.00000000000E+00  1.
       21   -1    0    0  502  501  0.00000000000E+00  0.00000000000E+00 -3.16053574046E+00  3.16053574046E+00  0.00000000000E+00  0.00000000000E+00  1.
       25    2    1    2    0    0 -8.88178419700E-16  0.00000000000E+00  1.23245354040E+03  1.23877461188E+03  1.24983238061E+02  0.00000000000E+00  1.
       23    2    3    3    0    0 -5.42612751650E+00 -2.15905610855E+01  3.63066089233E+02  3.67363204651E+02  5.14115142053E+01  0.00000000000E+00  1.
       23    2    3    3    0    0  5.42612751650E+00  2.15905610855E+01  8.69387451164E+02  8.71411407226E+02  5.50245873725E+01  0.00000000000E+00  1.
        1    1    4    4  803    0 -1.35497257886E-01 -3.29874090455E+01  3.34910113782E+02  3.36530788827E+02  5.39479660939E-06  0.00000000000E+00  1.
       -1    1    4    4    0  803 -5.29063025861E+00  1.13968479601E+01  2.81559754501E+01  3.08324158234E+01  5.95569419708E-06  0.00000000000E+00  1.
        1    1    5    5  804    0  1.79196994056E+01  1.02893420887E+01  1.15377613600E+02  1.17213394744E+02  3.01578298585E-06  0.00000000000E+00  1.
       -1    1    5    5    0  804 -1.24935718891E+01  1.13012189967E+01  7.54009837563E+02  7.54198012582E+02  1.52587890625E-05  0.00000000000E+00  1.
</event>
<event>
 9   0   1.8532424E-06   6.2497820E+01   7.8125000E-03   1.3829020E-01
       21   -1    0    0  501  502  0.00000000000E+00  0.00000000000E+00  1.93809624581E+03  1.93809624581E+03  0.00000000000E+00  0.00000000000E+00  1.
       21   -1    0    0  502  501  0.00000000000E+00  0.00000000000E+00 -2.01536815306E+00  2.01536815306E+00  0.00000000000E+00  0.00000000000E+00  1.
       25    2    1    2    0    0  4.44089209850E-15  3.55271367880E-15  1.93608087766E+03  1.94011161397E+03  1.24995639146E+02  0.00000000000E+00  1.
       23    2    3    3    0    0 -5.19617872415E+00 -2.14391610018E+01  5.68264745574E+02  5.71008662448E+02  5.13754185396E+01  0.00000000000E+00  1.
       23    2    3    3    0    0  5.19617872415E+00  2.14391610018E+01  1.36781613209E+03  1.36910295152E+03  5.50934003691E+01  0.00000000000E+00  1.
        4    1    4    4  804    0 -1.08814025400E+00 -3.31352033530E+01  5.23249818798E+02  5.24300604852E+02  1.27499999997E+00  0.00000000000E+00  1.
       -4    1    4    4    0  804 -4.10803847015E+00  1.16960423513E+01  4.50149267757E+01  4.67080575959E+01  1.27499999998E+00  0.00000000000E+00  1.
       15    1    5    5    0    0  2.73088382014E+01  1.73951663798E+01  5.35158310404E+02  5.36139849918E+02  1.77680000005E+00  0.00000000000E+00  1.
      -15    1    5    5    0    0 -2.21126594773E+01  4.04399462193E+00  8.32657821684E+02  8.32963101602E+02  1.77679999999E+00  0.00000000000E+00  1.
</event>
<event>
 9   0   1.5557897E-07   6.2499018E+01   7.8125000E-03   1.3828975E-01
       21   -1    0    0  501  502  0.00000000000E+00  0.00000000000E+00  1.63450152708E+02  1.63450152708E+02  0.00000000000E+00  0.00000000000E+00  1.
       21   -1    0    0  502  501  0.00000000000E+00  0.00000000000E+00 -2.38979728357E+01  2.38979728357E+01  0.00000000000E+00  0.00000000000E+00  1.
       25    2    1    2    0    0 -3.55271367880E-15  3.55271367880E-15  1.39552179873E+02  1.87348125544E+02  1.24998036935E+02  0.00000000000E+00  1.
       23    2    3    3    0    0  1.16660803497E+01 -2.70925089247E+01  4.67340962621E+01  7.54721715992E+01  5.13991387272E+01  0.00000000000E+00  1.
       23    2    3    3    0    0 -1.16660803497E+01  2.70925089247E+01  9.28180836106E+01  1.11875953945E+02  5.50538913737E+01  0.00000000000E+00  1.
        1    1    4    4  803    0  1.03535472976E+01 -4.24544092538E+01  3.68121966357E+01  5.71376464277E+01  0.00000000000E+00  0.00000000000E+00  1.
       -1    1    4    4    0  803  1.31253305215E+00  1.53619003290E+01  9.92189962647E+00  1.83345253715E+01  1.13091861969E-06  0.00000000000E+00  1.
       14    1    5    5    0    0  1.16283924460E+01  1.33609084889E+01  2.86030652910E+00  1.79419826098E+01  1.66999408318E-06  0.00000000000E+00  1.
      -14    1    5    5    0    0 -2.32944727958E+01  1.37316004358E+01  8.99577770815E+01  9.39339713352E+01  0.00000000000E+00  0.00000000000E+00  1.
</event>
<event>
 9   0   1.1228815E-11   6.2492730E+01   7.8125000E-03   1.3829210E-01
       21   -1    0    0  501  502  0.00000000000E+00  0.00000000000E+00  9.27638276246E+01  9.27638276246E+01  0.00000000000E+00  0.00000000000E+00  1.
       21   -1    0    0  502  501  0.00000000000E+00  0.00000000000E+00 -4.20998297556E+01  4.20998297556E+01  0.00000000000E+00  0.00000000000E+00  1.
       25    2    1    2    0    0 -1.77635683940E-15  3.55271367880E-15  5.06639978691E+01  1.34863657380E+02  1.24985460762E+02  0.00000000000E+00  1.
       23    2    3    3    0    0 -5.33926623918E+00  2.74491367306E+01  4.43052806437E+01  7.60044097759E+01  5.50613252768E+01  0.00000000000E+00  1.
       23    2    3    3    0    0  5.33926623918E+00 -2.74491367306E+01  6.35871722535E+00  5.88592476043E+01  5.14005337770E+01  0.00000000000E+00  1.
        2    1    4    4  803    0  5.52418613748E-01 -1.19669980911E+01  3.21941506461E+01  3.43508013347E+01  0.00000000000E+00  0.00000000000E+00  1.
       -2    1    4    4    0  803 -5.89168485293E+00  3.94161348217E+01  1.21111299976E+01  4.16536086412E+01  1.10550147241E-06  0.00000000000E+00  1.
        2    1    5    5  804    0  1.46844735736E+01 -6.17558659754E+00 -1.87803442375E+01  2.46266717938E+01  0.00000000000E+00  0.00000000000E+00  1.
       -2    1    5    5    0  804 -9.34520733446E+00 -2.12735501331E+01  2.51390614629E+01  3.42325758105E+01  0.00000000000E+00  0.00000000000E+00  1.
</event>
<event>
 9   0   8.8274562E-15   6.2497656E+01   7.8125000E-03   1.3829026E-01
       21   -1    0    0  501  502  0.00000000000E+00  0.00000000000E+00  1.76557641885E+03  1.76557641885E+03  0.00000000000E+00  0.00000000000E+00  1.
       21   -1    0    0  502  501  0.00000000000E+00  0.00000000000E+00 -2.21228431524E+00  2.21228431524E+00  0.00000000000E+00  0.00000000000E+00  1.
       25    2    1    2    0    0  0.00000000000E+00  0.00000000000E+00  1.76336413454E+03  1.76778870317E+03  1.24995312213E+02  0.00000000000E+00  1.
       23    2    3    3    0    0  6.71216113569E+00  2.86878928572E+01  1.10514544184E+03  1.10690903435E+03  5.50737179487E+01  0.00000000000E+00  1.
       23    2    3    3    0    0 -6.71216113569E+00 -2.86878928572E+01  6.58218692698E+02  6.60879668815E+02  5.14007872800E+01  0.00000000000E+00  1.
        4    1    4    4  803    0 -1.18749280795E+01 -1.24729558378E+01  2.97070642461E+02  2.97572143827E+02  1.27499999999E+00  0.00000000000E+00  1.
       -4    1    4    4    0  803  1.85870892152E+01  4.11608486950E+01  8.08074799378E+02  8.09336890525E+02  1.27500000009E+00  0.00000000000E+00  1.
       13    1    5    5    0    0  7.85281905889E+00 -6.35298435810E+00  2.32282787452E+01  2.53296520885E+01  1.05659999833E-01  0.00000000000E+00  1.
      -13    1    5    5    0    0 -1.45649801946E+01 -2.23349084991E+01  6.34990413952E+02  6.35550016727E+02  1.05659999952E-01  0.00000000000E+00  1.
</event>
<event>
 9   0   1.0542916E-12   6.2497667E+01   7.8125000E-03   1.3829026E-01
       21   -1    0    0  501  502  0.00000000000E+00  0.00000000000E+00  9.54827212351E+02  9.54827212351E+02  0.00000000000E+00  0.00000000000E+00  1.
       21   -1    0    0  502  501  0.00000000000E+00  0.00000000000E+00 -4.09074887293E+00  4.09074887293E+00  0.00000000000E+00  0.00000000000E+00  1.
       25    2    1    2    0    0  8.88178419700E-16 -3.55271367880E-15  9.50736463478E+02  9.58917961224E+02  1.24995333397E+02  0.00000000000E+00  1.
       23    2    3    3    0    0  6.37751978119E+00  2.72373348307E+01  6.17522557711E+02  6.20604371743E+02  5.50738756325E+01  0.00000000000E+00  1.
       23    2    3    3    0    0 -6.37751978119E+00 -2.72373348307E+01  3.33213905767E+02  3.38313589481E+02  5.14007068412E+01  0.00000000000E+00  1.
       12    1    4    4    0    0  5.82094140664E+00 -1.66958888522E+01  1.97600421170E+02  1.98389925425E+02  6.03156597170E-06  0.00000000000E+00  1.
      -12    1    4    4    0    0  5.56578374545E-01  4.39332236830E+01  4.19922136541E+02  4.22214446318E+02  7.62939453125E-06  0.00000000000E+00  1.
        1    1    5    5  804    0 -2.44145922388E+01 -2.67613490331E+00  9.35590907585E+01  9.67291966046E+01  0.00000000000E+00  0.00000000000E+00  1.
       -1    1    5    5    0  804  1.80370724576E+01 -2.45611999274E+01  2.39654815008E+02  2.41584392876E+02  2.69739830470E-06  0.00000000000E+00  1.
</event>
<event>
 9   0   2.1332867E-11   6.2499026E+01   7.8125000E-03   1.3828975E-01
       21   -1    0    0  501  502  0.00000000000E+00  0.00000000000E+00  1.52544154814E+02  1.52544154814E+02  0.00000000000E+00  0.00000000000E+00  1.
       21   -1    0    0  502  501  0.00000000000E+00  0.00000000000E+00 -2.56065418401E+01  2.56065418401E+01  0.00000000000E+00  0.00000000000E+00  1.
       25    2    1    2    0    0  8.88178419700E-16  3.55271367880E-15  1.26937612974E+02  1.78150696654E+02  1.24998052508E+02  0.00000000000E+00  1.
       23    2    3    3    0    0 -6.72264374254E+00 -2.86745620679E+01  4.15582504442E+01  7.23720686486E+01  5.14120967460E+01  0.00000000000E+00  1.
       23    2    3    3    0    0  6.72264374254E+00  2.86745620679E+01  8.53793625295E+01  1.05778628005E+02  5.50641275974E+01  0.00000000000E+00  1.
        2    1    4    4  803    0 -2.37824070666E+00 -4.35464470858E+01  3.28486839354E+01  5.45983986016E+01  1.26159253648E-06  0.00000000000E+00  1.
       -2    1    4    4    0  803 -4.34440303588E+00  1.48718850179E+01  8.70956650880E+00  1.77736702470E+01  1.34342046614E-06  0.00000000000E+00  1.
        5    1    5    5  804    0  1.58752890471E+01  2.33527949407E+01  1.12801747830E+01  3.07763330663E+01  4.75000000000E+00  0.00000000000E+00  1.
       -5    1    5    5    0  804 -9.15264530455E+00  5.32176712725E+00  7.40991877465E+01  7.50022949390E+01  4.75000000000E+00  0.00000000000E+00  1.
</event>
<event>
 9   0   1.8347781E-12   6.2499901E+01   7.8125000E-03   1.3828942E-01
       21   -1    0    0  501  502  0.00000000000E+00  0.00000000000E+00  1.93941977728E+03  1.93941977728E+03  0.00000000000E+00  0.00000000000E+00  1.
       21   -1    0    0  502  501  0.00000000000E+00  0.00000000000E+00 -2.01412696360E+00  2.01412696360E+00  0.00000000000E+00  0.00000000000E+00  1.
       25    2    1    2    0    0  0.00000000000E+00  0.00000000000E+00  1.93740565032E+03  1.94143390424E+03  1.24999802674E+02  0.00000000000E+00  1.
       23    2    3    3    0    0 -6.56306464204E+00 -2.75457669219E+01  6.89707463910E+02  6.92199357311E+02  5.13976788957E+01  0.00000000000E+00  1.
       23    2    3    3    0    0  6.56306464204E+00  2.75457669219E+01  1.24769818641E+03  1.24923454693E+03  5.50848962521E+01  0.00000000000E+00  1.
        4    1    4    4  803    0 -9.94915109837E-01 -4.25728017948E+01  4.98029580126E+02  4.99848498661E+02  1.27499999999E+00  0.00000000000E+00  1.
       -4    1    4    4    0  803 -5.56814953221E+00  1.50270348730E+01  1.91677883785E+02  1.92350858650E+02  1.27500000000E+00  0.00000000000E+00  1.
        1    1    5    5  804    0  1.59294545520E+01  2.26718322051E+01  2.58637620167E+02  2.60117623616E+02  1.26519195189E-05  0.00000000000E+00  1.
       -1    1    5    5    0  804 -9.36638990996E+00  4.87393471676E+00  9.89060566240E+02  9.89116923517E+02  1.07895932188E-05  0.00000000000E+00  1.
</event>
<event>
 9   0   4.3184901E-06   6.2497665E+01   7.8125000E-03   1.3829026E-01
       21   -1    0    0  501  502  0.00000000000E+00  0.00000000000E+00  9.44372784070E+02  9.44372784070E+02  0.00000000000E+00  0.00000000000E+00  1.
       21   -1    0    0  502  501  0.00000000000E+00  0.00000000000E+00 -4.13603417434E+00  4.13603417434E+00  0.00000000000E+00  0.00000000000E+00  1.
       25    2    1    2    0    0 -3.55271367880E-15  0.00000000000E+00  9.40236749896E+02  9.48508818244E+02  1.24995329644E+02  0.00000000000E+00  1.
       23    2    3    3    0    0  2.57318378435E+01  6.57255694619E-01  3.06423873053E+02  3.11769446579E+02  5.14007624406E+01  0.00000000000E+00  1.
       23    2    3    3    0    0 -2.57318378435E+01 -6.57255694619E-01  6.33812876843E+02  6.36739371666E+02  5.52784326248E+01  0.00000000000E+00  1.
        3    1    4    4  804    0  4.13614232507E+01 -2.87412544983E+00  2.21792642452E+02  2.25634669712E+02  0.00000000000E+00  0.00000000000E+00  1.
       -3    1    4    4    0  804 -1.56295854072E+01  3.53138114445E+00  8.46312306009E+01  8.61347768663E+01  1.90734863281E-06  0.00000000000E+00  1.
        2    1    5    5  803    0  2.23644161943E+00  8.36421780799E+00  1.57062960935E+01  1.79345909131E+01  4.21131175343E-06  0.00000000000E+00  1.
       -2    1    5    5    0  803 -2.79682794629E+01 -9.02147350261E+00  6.18106580749E+02  6.18804780853E+02  7.62939453125E-06  0.00000000000E+00  1.
</event>
<event>
 9   0   4.2738590E-10   6.2497670E+01   7.8125000E-03   1.3829026E-01
       21   -1    0    0  501  502  0.00000000000E+00  0.00000000000E+00  9.11785062468E+02  9.11785062468E+02  0.00000000000E+00  0.00000000000E+00  1.
       21   -1    0    0  502  501  0.00000000000E+00  0.00000000000E+00 -4.28385907642E+00  4.28385907642E+00  0.00000000000E+00  0.00000000000E+00  1.
       25    2    1    2    0    0 -8.88178419700E-15  7.10542735760E-15  9.07501203392E+02  9.16068921544E+02  1.24995339363E+02  0.00000000000E+00  1.
       23    2    3    3    0    0  5.98791922497E+00  2.55823855724E+01  6.08267485540E+02  6.11317926458E+02  5.50450689434E+01  0.00000000000E+00  1.
       23    2    3    3    0    0 -5.98791922497E+00 -2.55823855724E+01  2.99233717851E+02  3.04750995087E+02  5.14007536806E+01  0.00000000000E+00  1.
       13    1    4    4    0    0  2.43378577293E+01 -5.40409560279E+00  2.36659415430E+02  2.37968959413E+02  1.05659999711E-01  0.00000000000E+00  1.
      -13    1    4    4    0    0 -1.83499385043E+01  3.09864811752E+01  3.71608070110E+02  3.73348967045E+02  1.05659999814E-01  0.00000000000E+00  1.
       14    1    5    5    0    0  8.66593850741E+00 -4.96818792795E+00  9.08657684812E+00  1.35036017536E+01  4.91512492373E-06  0.00000000000E+00  1.
      -14    1    5    5    0    0 -1.46538577324E+01 -2.06141976445E+01  2.90147141003E+02  2.91247393333E+02  6.60724947956E-06  0.00000000000E+00  1.
</event>
<event>
 9   0   1.4167278E-18   6.2497867E+01   7.8125000E-03   1.3829018E-01
       21   -1    0    0  501  502  0.00000000000E+00  0.00000000000E+00  1.82826299164E+03  1.82826299164E+03  0.00000000000E+00  0.00000000000E+00  1.
       21   -1    0    0  502  501  0.00000000000E+00  0.00000000000E+00 -2.13644503578E+00  2.13644503578E+00  0.00000000000E+00  0.00000000000E+00  1.
       25    2    1    2    0    0 -8.88178419700E-16  3.55271367880E-15  1.82612654660E+03  1.83039943668E+03  1.24995734209E+02  0.00000000000E+00  1.
       23    2    3    3    0    0  6.78206077891E+00  2.86652451291E+01  1.14469800993E+03  1.14640197969E+03  5.51023816635E+01  0.00000000000E+00  1.
       23    2    3    3    0    0 -6.78206077891E+00 -2.86652451291E+01  6.81428536672E+02  6.83997456987E+02  5.13807157106E+01  0.00000000000E+00  1.
        3    1    4    4  803    0  5.86458739069E+00 -1.63895145525E+01  3.09647535457E+02  3.10136430925E+02  1.32144989591E-05  0.00000000000E+00  1.
       -3    1    4    4    0  803  9.17473388229E-01  4.50547596816E+01  8.35050474475E+02  8.36265548763E+02  1.86881236479E-05  0.00000000000E+00  1.
        2    1    5    5  804    0  8.46788515564E+00 -5.77363669331E+00  2.53616844955E+01  2.73542502291E+01  7.16843432349E-06  0.00000000000E+00  1.
       -2    1    5    5    0  804 -1.52499459346E+01 -2.28916084358E+01  6.56066852177E+02  6.56643206858E+02  7.62939453125E-06  0.00000000000E+00  1.
</event>
<event>
 9   0   4.1232836E-09   6.2499019E+01   7.8125000E-03   1.3828975E-01
       21   -1    0    0  501  502  0.00000000000E+00  0.00000000000E+00  1.94878346157E+03  1.94878346157E+03  0.00000000000E+00  0.00000000000E+00  1.
       21   -1    0    0  502  501  0.00000000000E+00  0.00000000000E+00 -2.00439271495E+00  2.00439271495E+00  0.00000000000E+00  0.00000000000E+00  1.
       25    2    1    2    0    0  0.00000000000E+00  0.00000000000E+00  1.94677906886E+03  1.95078785429E+03  1.24998037959E+02  0.00000000000E+00  1.
       23    2    3    3    0    0 -7.36283842949E+00 -2.91655516402E+01  7.48207784742E+02  7.50572422816E+02  5.13734557040E+01  0.00000000000E+00  1.
       23    2    3    3    0    0  7.36283842949E+00  2.91655516402E+01  1.19857128411E+03  1.20021543147E+03  5.51281964501E+01  0.00000000000E+00  1.
       14    1    4    4    0    0  1.46799713546E+01 -3.02309823884E+01  5.72275692776E+02  5.73261617861E+02  1.07895932188E-05  0.00000000000E+00  1.
      -14    1    4    4    0    0 -2.20428097840E+01  1.06543074826E+00  1.75932091966E+02  1.77310805155E+02  6.03156597170E-06  0.00000000000E+00  1.
       16    1    5    5    0    0  1.64532783014E+01  2.39482253062E+01  2.65477865722E+02  2.67063148157E+02  1.14440917969E-05  0.00000000000E+00  1.
      -16    1    5    5    0    0 -9.09043987189E+00  5.21732633399E+00  9.33093418393E+02  9.33152283413E+02  0.00000000000E+00  0.00000000000E+00  1.
</event>
<event>
 9   0   1.1938389E-11   6.2497668E+01   7.8125000E-03   1.3829026E-01
       21   -1    0    0  501  502  0.00000000000E+00  0.00000000000E+00  1.76741621794E+03  1.76741621794E+03  0.00000000000E+00  0.00000000000E+00  1.
       21   -1    0    0  502  501  0.00000000000E+00  0.00000000000E+00 -2.20998229335E+00  2.20998229335E+00  0.00000000000E+00  0.00000000000E+00  1.
       25    2    1    2    0    0 -4.44089209850E-15  3.55271367880E-15  1.76520623564E+03  1.76962620023E+03  1.24995336659E+02  0.00000000000E+00  1.
       23    2    3    3    0    0  6.20507334582E+00 -2.35652853972E+01  5.51312484953E+02  5.54239441584E+02  5.14011374444E+01  0.00000000000E+00  1.
       23    2    3    3    0    0 -6.20507334582E+00  2.35652853972E+01  1.21389375069E+03  1.21538675865E+03  5.50736735417E+01  0.00000000000E+00  1.
       14    1    4    4    0    0 -2.61289507085E+00 -3.90113020839E+01  3.77912797675E+02  3.79929982441E+02  5.39479660939E-06  0.00000000000E+00  1.
      -14    1    4    4    0    0  8.81796841668E+00  1.54460166867E+01  1.73399687278E+02  1.74309459143E+02  0.00000000000E+00  0.00000000000E+00  1.
       16    1    5    5    0    0  9.92356756407E+00  1.95471489237E+01  1.76009997516E+02  1.77369916981E+02  1.53775362936E-05  0.00000000000E+00  1.
      -16    1    5    5    0    0 -1.61286409099E+01  4.01813647356E+00  1.03788375318E+03  1.03801684177E+03  1.52587890625E-05  0.00000000000E+00  1.
</event>
<event>
 9   0   2.6757400E-08   6.2499994E+01   7.8125000E-03   1.3828939E-01
       21   -1    0    0  501  502  0.00000000000E+00  0.00000000000E+00  1.57381337054E+02  1.57381337054E+02  0.00000000000E+00  0.00000000000E+00  1.
       21   -1    0    0  502  501  0.00000000000E+00  0.00000000000E+00 -2.48202823046E+01  2.48202823046E+01  0.00000000000E+00  0.00000000000E+00  1.
       25    2    1    2    0    0 -8.88178419700E-16  7.10542735760E-15  1.32561054749E+02  1.82201619358E+02  1.24999987442E+02  0.00000000000E+00  1.
       23    2    3    3    0    0 -7.43842074258E+00 -3.17635331166E+01  6.08529340929E+01  8.60841436197E+01  5.14115556644E+01  0.00000000000E+00  1.
       23    2    3    3    0    0  7.43842074258E+00  3.17635331166E+01  7.17081206560E+01  9.61174757384E+01  5.50659825583E+01  0.00000000000E+00  1.
       11    1    4    4    0    0 -1.88541648979E+00 -4.17225413624E+01  6.18580335097E+01  7.46374005646E+01  5.11002602326E-04  0.00000000000E+00  1.
      -11    1    4    4    0    0 -5.55300425279E+00  9.95900824585E+00 -1.00509941681E+00  1.14467430552E+01  5.11001310475E-04  0.00000000000E+00  1.
        1    1    5    5  804    0  1.67658494510E+01  2.65469917194E+01  9.22242080949E+00  3.27244483949E+01  0.00000000000E+00  0.00000000000E+00  1.
       -1    1    5    5    0  804 -9.32742870839E+00  5.21654139713E+00  6.24856998465E+01  6.33930273435E+01  0.00000000000E+00  0.00000000000E+00  1.
</event>
<event>
 9   0   1.6716276E-11   6.2497666E+01   7.8125000E-03   1.3829026E-01
       21   -1    0    0  501  502  0.00000000000E+00  0.00000000000E+00  1.44091250365E+02  1.44091250365E+02  0.00000000000E+00  0.00000000000E+00  1.
       21   -1    0    0  502  501  0.00000000000E+00  0.00000000000E+00 -2.71075329388E+01  2.71075329388E+01  0.00000000000E+00  0.00000000000E+00  1.
       25    2    1    2    0    0 -5.32907051820E-15  0.00000000000E+00  1.16983717426E+02  1.71198783303E+02  1.24995332960E+02  0.00000000000E+00  1.
       23    2    3    3    0    0 -6.30865113574E+00 -2.69082945735E+01  3.30323063970E+01  6.70597565887E+01  5.14006059480E+01  0.00000000000E+00  1.
       23    2    3    3    0    0  6.30865113574E+00  2.69082945735E+01  8.39514110288E+01  1.04139026715E+02  5.50748769889E+01  0.00000000000E+00  1.
        4    1    4    4  803    0 -4.29215649649E-01 -3.67708022153E+01  3.93659505316E+01  5.38848755022E+01  1.27500000000E+00  0.00000000000E+00  1.
       -4    1    4    4    0  803 -5.87943548609E+00  9.86250764183E+00 -6.33364413459E+00  1.31748810865E+01  1.27500000000E+00  0.00000000000E+00  1.
       13    1    5    5    0    0  1.83924260644E+01  1.10534390520E+01  4.11270813043E+00  2.18491506383E+01  1.05659999998E-01  0.00000000000E+00  1.
      -13    1    5    5    0    0 -1.20837749287E+01  1.58548555215E+01  7.98387028984E+01  8.22898760764E+01  1.05660000008E-01  0.00000000000E+00  1.
</event>
<event>
 9   0   1.8926847E-07   6.2499994E+01   7.8125000E-03   1.3828939E-01
       21   -1    0    0  501  502  0.00000000000E+00  0.00000000000E+00  1.93991365601E+03  1.93991365601E+03  0.00000000000E+00  0.00000000000E+00  1.
       21   -1    0    0  502  501  0.00000000000E+00  0.00000000000E+00 -2.01362014054E+00  2.01362014054E+00  0.00000000000E+00  0.00000000000E+00  1.
       25    2    1    2    0    0  0.00000000000E+00  1.06581410364E-14  1.93790003587E+03  1.94192727615E+03  1.24999987338E+02  0.00000000000E+00  1.
       23    2    3    3    0    0 -2.04905338806E+01  1.63767260381E+01  6.40739632689E+02  6.43333010914E+02  5.14006507606E+01  0.00000000000E+00  1.
       23    2    3    3    0    0  2.04905338806E+01 -1.63767260381E+01  1.29716040318E+03  1.29859426524E+03  5.50808042049E+01  0.00000000000E+00  1.
       11    1    4    4    0    0 -2.13111662157E+01 -1.50396623077E+01  2.64421326182E+02  2.65704713899E+02  5.11055549347E-04  0.00000000000E+00  1.
      -11    1    4    4    0    0  8.20632335101E-01  3.14163883458E+01  3.76318306507E+02  3.77628297016E+02  5.11027074320E-04  0.00000000000E+00  1.
        1    1    5    5  804    0  2.01194877681E+01  3.73796844634E+00  1.66219996256E+02  1.67474933602E+02  2.24873087359E-05  0.00000000000E+00  1.
       -1    1    5    5    0  804  3.71046112489E-01 -2.01146944845E+01  1.13094040693E+03  1.13111933184E+03  2.64289979182E-05  0.00000000000E+00  1.
</event>
<event>
 9   0   3.4728352E-15   6.2497664E+01   7.8125000E-03   1.3829026E-01
       21   -1    0    0  501  502  0.00000000000E+00  0.00000000000E+00  1.75668255602E+03  1.75668255602E+03  0.00000000000E+00  0.00000000000E+00  1.
       21   -1    0    0  502  501  0.00000000000E+00  0.00000000000E+00 -2.22348542803E+00  2.22348542803E+00  0.00000000000E+00  0.00000000000E+00  1.
       25    2    1    2    0    0  1.77635683940E-15  0.00000000000E+00  1.75445907059E+03  1.75890604145E+03  1.24995328952E+02  0.00000000000E+00  1.
       23    2    3    3    0    0 -6.27048527240E+00 -2.67817480822E+01  6.05835350289E+02  6.08633774567E+02  5.14005726359E+01  0.00000000000E+00  1.
       23    2    3    3    0    0  6.27048527240E+00  2.67817480822E+01  1.14862372030E+03  1.15027226688E+03  5.50750042979E+01  0.00000000000E+00  1.
        3    1    4    4  804    0 -7.89971163163E-01 -4.19654652339E+01  4.58259985974E+02  4.60178160142E+02  0.00000000000E+00  0.00000000000E+00  1.
       -3    1    4    4    0  804 -5.48051410924E+00  1.51837171517E+01  1.47575364315E+02  1.48455614524E+02  6.32595975944E-06  0.00000000000E+00  1.
        5    1    5    5  803    0  1.81684618928E+01  1.38298761751E+01  1.83437019107E+02  1.84913658125E+02  4.75000000002E+00  0.00000000000E+00  1.
       -5    1    5    5    0  803 -1.18979766204E+01  1.29518719071E+01  9.65186701194E+02  9.65358608753E+02  4.75000000001E+00  0.00000000000E+00  1.
</event>
<event>
 9   0   2.8360478E-14   6.2497655E+01   7.8125000E-03   1.3829026E-01
       21   -1    0    0  501  502  0.00000000000E+00  0.00000000000E+00  1.42048528729E+02  1.42048528729E+02  0.00000000000E+00  0.00000000000E+00  1.
       21   -1    0    0  502  501  0.00000000000E+00  0.00000000000E+00 -2.74973411398E+01  2.74973411398E+01  0.00000000000E+00  0.00000000000E+00  1.
       25    2    1    2    0    0  2.66453525910E-15  7.10542735760E-15  1.14551187589E+02  1.69545869869E+02  1.24995309558E+02  0.00000000000E+00  1.
       23    2    3    3    0    0 -6.10689876415E+00 -2.43758242305E+01  1.00470262811E+02  1.15619064191E+02  5.14005766067E+01  0.00000000000E+00  1.
       23    2    3    3    0    0  6.10689876415E+00  2.43758242305E+01  1.40809247776E+01  5.39268056780E+01  4.55889559938E+01  0.00000000000E+00  1.
        3    1    4    4  803    0 -6.09739267012E-01 -4.01999184028E+01  6.57304769000E+01  7.70512870138E+01  0.00000000000E+00  0.00000000000E+00  1.
       -3    1    4    4    0  803 -5.49715949714E+00  1.58240941723E+01  3.47397859114E+01  3.85677773769E+01  1.26159253648E-06  0.00000000000E+00  1.
       11    1    5    5    0    0  1.67616554078E+01  1.67627142374E+01 -1.06152536534E+01  2.59735498344E+01  5.10999167810E-04  0.00000000000E+00  1.
      -11    1    5    5    0    0 -1.06547566436E+01  7.61310999309E+00  2.46961784309E+01  2.79532558436E+01  5.11000043823E-04  0.00000000000E+00  1.
</event>
<event>
 9   0   8.3129376E-17   6.2497672E+01   7.8125000E-03   1.3829026E-01
       21   -1    0    0  501  502  0.00000000000E+00  0.00000000000E+00  1.49160398506E+02  1.49160398506E+02  0.00000000000E+00  0.00000000000E+00  1.
       21   -1    0    0  502  501  0.00000000000E+00  0.00000000000E+00 -2.61863003745E+01  2.61863003745E+01  0.00000000000E+00  0.00000000000E+00  1.
       25    2    1    2    0    0 -8.88178419700E-16  3.55271367880E-15  1.22974098131E+02  1.75346698881E+02  1.24995343901E+02  0.00000000000E+00  1.
       23    2    3    3    0    0 -7.18755815269E+00 -2.85943445564E+01  3.99727110442E+01  7.14782527910E+01  5.14006367764E+01  0.00000000000E+00  1.
       23    2    3    3    0    0  7.18755815269E+00  2.85943445564E+01  8.30013870873E+01  1.03868446090E+02  5.50465830168E+01  0.00000000000E+00  1.
        5    1    4    4  803    0 -1.45898643306E+00 -4.28667998423E+01  2.86386327160E+01  5.17921321629E+01  4.75000000000E+00  0.00000000000E+00  1.
       -5    1    4    4    0  803 -5.72857171963E+00  1.42724552859E+01  1.13340783281E+01  1.96861206281E+01  4.75000000000E+00  0.00000000000E+00  1.
       12    1    5    5    0    0  1.63021385855E+01  2.34710867328E+01  1.02349715159E+01  3.03546747110E+01  0.00000000000E+00  0.00000000000E+00  1.
      -12    1    5    5    0    0 -9.11458043279E+00  5.12325782369E+00  7.27664155714E+01  7.35137714786E+01  1.34869915235E-06  0.00000000000E+00  1.
</event>
<event>
 9   0   1.8316570E-18   6.2499994E+01   7.8125000E-03   1.3828939E-01
       21   -1    0    0  501  502  0.00000000000E+00  0.00000000000E+00  7.03169097041E+01  7.03169097041E+01  0.00000000000E+00  0.00000000000E+00  1.
       21   -1    0    0  502  501  0.00000000000E+00  0.00000000000E+00 -5.55520609978E+01  5.55520609978E+01  0.00000000000E+00  0.00000000000E+00  1.
       25    2    1    2    0    0 -2.66453525910E-15  0.00000000000E+00  1.47648487063E+01  1.25868970702E+02  1.24999988113E+02  0.00000000000E+00  1.
       23    2    3    3    0    0 -5.69566489000E+00 -2.43076893854E+01 -1.41092142425E+01  5.88748098555E+01  5.14185661720E+01  0.00000000000E+00  1.
       23    2    3    3    0    0  5.69566489000E+00  2.43076893854E+01  2.88740629488E+01  6.69941608464E+01  5.50563503562E+01  0.00000000000E+00  1.
       13    1    4    4    0    0 -3.57425372817E-01 -4.01884070612E+01 -7.61071991158E+00  4.09044011889E+01  1.05660000005E-01  0.00000000000E+00  1.
      -13    1    4    4    0    0 -5.33823951718E+00  1.58807176758E+01 -6.49849433097E+00  1.79704086667E+01  1.05660000004E-01  0.00000000000E+00  1.
       11    1    5    5    0    0  1.53653920114E+01  2.05161712877E+01 -9.42625673176E+00  2.73104901495E+01  5.10999612769E-04  0.00000000000E+00  1.
      -11    1    5    5    0    0 -9.66972712141E+00  3.79151809770E+00  3.83003196806E+01  3.96836706970E+01  5.11000377541E-04  0.00000000000E+00  1.
</event>
<event>
 9   0   4.6024859E-07   6.2499021E+01   7.8125000E-03   1.3828975E-01
       21   -1    0    0  501  502  0.00000000000E+00  0.00000000000E+00  1.70624652698E+02  1.70624652698E+02  0.00000000000E+00  0.00000000000E+00  1.
       21   -1    0    0  502  501  0.00000000000E+00  0.00000000000E+00 -2.28931020218E+01  2.28931020218E+01  0.00000000000E+00  0.00000000000E+00  1.
       25    2    1    2    0    0  0.00000000000E+00 -1.06581410364E-14  1.47731550676E+02  1.93517754720E+02  1.24998041291E+02  0.00000000000E+00  1.
       23    2    3    3    0    0  6.32376051096E+00  2.63714687198E+01  1.04069389032E+02  1.20833138577E+02  5.50887042446E+01  0.00000000000E+00  1.
       23    2    3    3    0    0 -6.32376051096E+00 -2.63714687198E+01  4.36621616437E+01  7.26846161427E+01  5.13928473133E+01  0.00000000000E+00  1.
        1    1    4    4  804    0 -4.46604631679E+00 -1.65516215907E+01  2.90809593889E+01  3.37580205687E+01  0.00000000000E+00  0.00000000000E+00  1.
       -1    1    4    4    0  804  1.07898068277E+01  4.29230903105E+01  7.49884296433E+01  8.70751181082E+01  1.65181236989E-06  0.00000000000E+00  1.
       14    1    5    5    0    0  1.10020661476E+01 -1.25388419850E+01 -6.45180061582E+00  1.78855737685E+01  1.33280037493E-06  0.00000000000E+00  1.
      -14    1    5    5    0    0 -1.73258266585E+01 -1.38326267348E+01  5.01139622595E+01  5.47990423742E+01  0.00000000000E+00  0.00000000000E+00  1.
</event>
<event>
 9   0   5.7392104E-08   6.2497655E+01   7.8125000E-03   1.3829026E-01
       21   -1    0    0  501  502  0.00000000000E+00  0.00000000000E+00  1.82866698939E+03  1.82866698939E+03  0.00000000000E+00  0.00000000000E+00  1.
       21   -1    0    0  502  501  0.00000000000E+00  0.00000000000E+00 -2.13595854580E+00  2.13595854580E+00  0.00000000000E+00  0.00000000000E+00  1.
       25    2    1    2    0    0 -2.66453525910E-15 -3.55271367880E-15  1.82653103085E+03  1.83080294794E+03  1.24995310047E+02  0.00000000000E+00  1.
       23    2    3    3    0    0  4.09303573830E+00 -2.19487555200E+01  5.42385007408E+02  5.45272421117E+02  5.14005462930E+01  0.00000000000E+00  1.
       23    2    3    3    0    0 -4.09303573830E+00  2.19487555200E+01  1.28414602344E+03  1.28553052682E+03  5.53102618507E+01  0.00000000000E+00  1.
       15    1    4    4    0    0  5.53314068767E+00 -3.86984844461E+01  3.81229721444E+02  3.83232887256E+02  1.77680000001E+00  0.00000000000E+00  1.
      -15    1    4    4    0    0 -1.44010494937E+00  1.67497289261E+01  1.61155285964E+02  1.62039533861E+02  1.77680000000E+00  0.00000000000E+00  1.
       14    1    5    5    0    0  1.33430742010E+01  2.09039990262E+01  2.47913704027E+02  2.49150997287E+02  6.60724947956E-06  0.00000000000E+00  1.
      -14    1    5    5    0    0 -1.74361099393E+01  1.04475649374E+00  1.03623231941E+03  1.03637952953E+03  0.00000000000E+00  0.00000000000E+00  1.
</event>
<event>
 9   0   1.6036415E-06   6.2499995E+01   7.8125000E-03   1.3828939E-01
       21   -1    0    0  501  502  0.00000000000E+00  0.00000000000E+00  1.83618682360E+03  1.83618682360E+03  0.00000000000E+00  0.00000000000E+00  1.
       21   -1    0    0  502  501  0.00000000000E+00  0.00000000000E+00 -2.12737033655E+00  2.12737033655E+00  0.00000000000E+00  0.00000000000E+00  1.
       25    2    1    2    0    0  0.00000000000E+00  0.00000000000E+00  1.83405945327E+03  1.83831419394E+03  1.24999990094E+02  0.00000000000E+00  1.
       23    2    3    3    0    0  6.02705461249E+00  2.60294636349E+01  1.21785566783E+03  1.21939336312E+03  5.50807407377E+01  0.00000000000E+00  1.
       23    2    3    3    0    0 -6.02705461249E+00 -2.60294636349E+01  6.16203785438E+02  6.18920830818E+02  5.14006932548E+01  0.00000000000E+00  1.
        1    1    5    5  804    0 -7.05295886444E-01 -3.60890292562E+01  5.76206537065E+02  5.77336027658E+02  1.07895932188E-05  0.00000000000E+00  1.
       -1    1    4    4    0  803 -1.16811218129E+01  1.86458772475E+01  1.07836504892E+03  1.07858949378E+03  1.52587890625E-05  0.00000000000E+00  1.
        1    1    4    4  803    0  1.77081764254E+01  7.38358638742E+00  1.39490618903E+02  1.40803869444E+02  1.90734863281E-06  0.00000000000E+00  1.
       -1    1    5    5    0  804 -5.32175872605E+00  1.00595656213E+01  3.99972483731E+01  4.15848032599E+01  0.00000000000E+00  0.00000000000E+00  1.
</event>
<event>
 9   0   5.9443558E-10   6.2499992E+01   7.8125000E-03   1.3828939E-01
       21   -1    0    0  501  502  0.00000000000E+00  0.00000000000E+00  9.25320886311E+02  9.25320886311E+02  0.00000000000E+00  0.00000000000E+00  1.
       21   -1    0    0  502  501  0.00000000000E+00  0.00000000000E+00 -4.22150746917E+00  4.22150746917E+00  0.00000000000E+00  0.00000000000E+00  1.
       25    2    1    2    0    0 -4.44089209850E-15  7.10542735760E-15  9.21099378842E+02  9.29542393781E+02  1.24999984527E+02  0.00000000000E+00  1.
       23    2    3    3    0    0 -5.98892319958E+00 -2.56061311789E+01  3.04190295771E+02  3.09621216344E+02  5.14005876784E+01  0.00000000000E+00  1.
       23    2    3    3    0    0  5.98892319958E+00  2.56061311789E+01  6.16909083071E+02  6.19921177437E+02  5.50809250491E+01  0.00000000000E+00  1.
        3    1    4    4  804    0 -1.87796563881E+00 -4.13832050297E+01  2.16041685532E+02  2.19977513172E+02  2.69739830470E-06  0.00000000000E+00  1.
       -3    1    4    4    0  804 -4.11095756078E+00  1.57770738509E+01  8.81486102391E+01  8.96437031723E+01  0.00000000000E+00  0.00000000000E+00  1.
        2    1    5    5  803    0  2.11963753232E+01  1.42226534923E+01  1.21712356637E+02  1.24360234731E+02  7.74768677200E-06  0.00000000000E+00  1.
       -2    1    5    5    0  803 -1.52074521236E+01  1.13834776866E+01  4.95196726433E+02  4.95560942906E+02  7.62939453125E-06  0.00000000000E+00  1.
</event>
<event>
 9   0   2.4236702E-15   6.2497658E+01   7.8125000E-03   1.3829026E-01
       21   -1    0    0  501  502  0.00000000000E+00  0.00000000000E+00  2.37361924084E+01  2.37361924084E+01  0.00000000000E+00  0.00000000000E+00  1.
       21   -1    0    0  502  501  0.00000000000E+00  0.00000000000E+00 -1.64557024816E+02  1.64557024816E+02  0.00000000000E+00  0.00000000000E+00  1.
       25    2    1    2    0    0 -1.77635683940E-15  3.55271367880E-15 -1.40820832408E+02  1.88293217225E+02  1.24995315163E+02  0.00000000000E+00  1.
       23    2    3    3    0    0 -5.93080590276E+00 -2.53067482556E+01 -9.85941200049E+01  1.14185872679E+02  5.14004577210E+01  0.00000000000E+00  1.
       23    2    3    3    0    0  5.93080590276E+00  2.53067482556E+01 -4.22267124029E+01  7.41073445460E+01  5.50744705773E+01  0.00000000000E+00  1.
        1    1    4    4  804    0 -5.68882765460E-01 -4.10053977568E+01 -7.00325677860E+01  8.11561878325E+01  1.65181236989E-06  0.00000000000E+00  1.
       -1    1    4    4    0  804 -5.36192313730E+00  1.56986495012E+01 -2.85615522188E+01  3.30296848462E+01  1.30587233902E-06  0.00000000000E+00  1.
        4    1    5    5  803    0  1.55038939370E+01  2.11400305820E+01 -5.29428364286E+01  5.90918029368E+01  1.27500000000E+00  0.00000000000E+00  1.
       -4    1    5    5    0  803 -9.57308803425E+00  4.16671767356E+00  1.07161240257E+01  1.50155416091E+01  1.27500000000E+00  0.00000000000E+00  1.
</event>
<event>
 9   0   5.1362123E-16   6.2499021E+01   7.8125000E-03   1.3828975E-01
       21   -1    0    0  501  502  0.00000000000E+00  0.00000000000E+00  1.67210584134E+02  1.67210584134E+02  0.00000000000E+00  0.00000000000E+00  1.
       21   -1    0    0  502  501  0.00000000000E+00  0.00000000000E+00 -2.33605285806E+01  2.33605285806E+01  0.00000000000E+00  0.00000000000E+00  1.
       25    2    1    2    0    0 -1.77635683940E-15  3.55271367880E-15  1.43850055553E+02  1.90571112715E+02  1.24998042059E+02  0.00000000000E+00  1.
       23    2    3    3    0    0 -5.58399201297E+00 -2.46540860469E+01  3.84428187213E+01  6.89846334397E+01  5.14006265911E+01  0.00000000000E+00  1.
       23    2    3    3    0    0  5.58399201297E+00  2.46540860469E+01  1.05407236832E+02  1.21586479275E+02  5.50779578443E+01  0.00000000000E+00  1.
       11    1    4    4    0    0 -3.04340370164E-01 -4.04294417301E+01  2.98877889032E+01  5.02783482968E+01  5.11001267456E-04  0.00000000000E+00  1.
      -11    1    4    4    0    0 -5.27965164281E+00  1.57753556831E+01  8.55502981810E+00  1.87062851429E+01  5.11000182872E-04  0.00000000000E+00  1.
       12    1    5    5    0    0  1.53266004121E+01  2.07222675154E+01  1.35285694037E+01  2.91090921724E+01  1.66893005371E-06  0.00000000000E+00  1.
      -12    1    5    5    0    0 -9.74260839917E+00  3.93181853157E+00  9.18786674284E+01  9.24773873025E+01  1.90734863281E-06  0.00000000000E+00  1.
</event>
<event>
 9   0   5.1988175E-12   6.2497683E+01   7.8125000E-03   1.3829025E-01
       21   -1    0    0  501  502  0.00000000000E+00  0.00000000000E+00  1.21098360068E+02  1.21098360068E+02  0.00000000000E+00  0.00000000000E+00  1.
       21   -1    0    0  502  501  0.00000000000E+00  0.00000000000E+00 -3.22544448587E+01  3.22544448587E+01  0.00000000000E+00  0.00000000000E+00  1.
       25    2    1    2    0    0 -2.66453525910E-15  7.10542735760E-15  8.88439152093E+01  1.53352804927E+02  1.24995365951E+02  0.00000000000E+00  1.
       23    2    3    3    0    0  5.55927794680E+00  2.37773921848E+01  7.22785104107E+01  9.40847250753E+01  5.50589000518E+01  0.00000000000E+00  1.
       23    2    3    3    0    0 -5.55927794680E+00 -2.37773921848E+01  1.65654047986E+01  5.92680798514E+01  5.14006099451E+01  0.00000000000E+00  1.
       16    1    4    4    0    0  5.52328835310E+00 -1.78079290011E+01  2.21686505327E+01  2.89668451161E+01  0.00000000000E+00  0.00000000000E+00  1.
      -16    1    4    4    0    0  3.59895937011E-02  4.15853211859E+01  5.01098598780E+01  6.51178800592E+01  0.00000000000E+00  0.00000000000E+00  1.
        4    1    5    5  804    0  8.85722730685E+00 -4.24489790384E+00 -1.58861958409E+01  1.87207499069E+01  1.27500000000E+00  0.00000000000E+00  1.
       -4    1    5    5    0  804 -1.44165052537E+01 -1.95324942809E+01  3.24516006395E+01  4.05473299445E+01  1.27500000000E+00  0.00000000000E+00  1.
</event>
<event>
 9   0   5.8977184E-06   6.2499993E+01   7.8125000E-03   1.3828939E-01
       21   -1    0    0  501  502  0.00000000000E+00  0.00000000000E+00  1.02480944652E+02  1.02480944652E+02  0.00000000000E+00  0.00000000000E+00  1.
       21   -1    0    0  502  501  0.00000000000E+00  0.00000000000E+00 -3.81168343065E+01  3.81168343065E+01  0.00000000000E+00  0.00000000000E+00  1.
       25    2    1    2    0    0 -1.77635683940E-15  0.00000000000E+00  6.43641103455E+01  1.40597778958E+02  1.24999986990E+02  0.00000000000E+00  1.
       23    2    3    3    0    0 -6.71371757226E+00 -2.86708112441E+01  1.53432558584E+01  6.12047601521E+01  5.14151509178E+01  0.00000000000E+00  1.
       23    2    3    3    0    0  6.71371757226E+00  2.86708112441E+01  4.90208544871E+01  7.93930188064E+01  5.50737490962E+01  0.00000000000E+00  1.
        1    1    4    4  804    0 -2.12345805073E+00 -4.35866705314E+01  1.09230735942E+01  4.49846691535E+01  0.00000000000E+00  0.00000000000E+00  1.
       -1    1    4    4    0  804 -4.59025952153E+00  1.49158592873E+01  4.42018226416E+00  1.62200909986E+01  0.00000000000E+00  0.00000000000E+00  1.
        5    1    5    5  803    0  1.84650132189E+01  1.50159502581E+01 -2.69986456675E+00  2.44189935093E+01  4.75000000000E+00  0.00000000000E+00  1.
       -5    1    5    5    0  803 -1.17512956466E+01  1.36548609860E+01  5.17207190539E+01  5.49740252971E+01  4.75000000000E+00  0.00000000000E+00  1.
</event>
<event>
 9   0   5.1540093E-16   6.2497869E+01   7.8125000E-03   1.3829018E-01
       21   -1    0    0  501  502  0.00000000000E+00  0.00000000000E+00  1.47148847513E+02  1.47148847513E+02  0.00000000000E+00  0.00000000000E+00  1.
       21   -1    0    0  502  501  0.00000000000E+00  0.00000000000E+00 -2.65444395512E+01  2.65444395512E+01  0.00000000000E+00  0.00000000000E+00  1.
       25    2    1    2    0    0  8.88178419700E-16  1.42108547152E-14  1.20604407962E+02  1.73693287064E+02  1.24995738933E+02  0.00000000000E+00  1.
       23    2    3    3    0    0 -7.00297585141E+00  2.64989605661E+01  8.66529473419E+01  1.06269435723E+02  5.50747047567E+01  0.00000000000E+00  1.
       23    2    3    3    0    0  7.00297585141E+00 -2.64989605661E+01  3.39514606201E+01  6.74238513412E+01  5.14007535896E+01  0.00000000000E+00  1.
        3    1    4    4  803    0  4.71493722832E-01 -1.70976381463E+01  2.79332451882E+01  3.27538963065E+01  1.11828226085E-06  0.00000000000E+00  1.
       -3    1    4    4    0  803 -7.47446957424E+00  4.35965987125E+01  5.87197021537E+01  7.35155394167E+01  0.00000000000E+00  0.00000000000E+00  1.
       12    1    5    5    0    0  1.56281010840E+01 -5.88208473195E+00 -9.02699242158E+00  1.89821773373E+01  0.00000000000E+00  0.00000000000E+00  1.
      -12    1    5    5    0    0 -8.62512523258E+00 -2.06168758342E+01  4.29784530417E+01  4.84416740039E+01  0.00000000000E+00  0.00000000000E+00  1.
</event>
<event>
 9   0   3.1415135E-18   6.2497673E+01   7.8125000E-03   1.3829026E-01
       21   -1    0    0  501  502  0.00000000000E+00  0.00000000000E+00  1.94269142869E+03  1.94269142869E+03  0.00000000000E+00  0.00000000000E+00  1.
       21   -1    0    0  502  501  0.00000000000E+00  0.00000000000E+00 -2.01059161532E+00  2.01059161532E+00  0.00000000000E+00  0.00000000000E+00  1.
       25    2    1    2    0    0  0.00000000000E+00 -3.55271367880E-15  1.94068083707E+03  1.94470202030E+03  1.24995345476E+02  0.00000000000E+00  1.
       23    2    3    3    0    0  4.93635538361E+00  2.10745873005E+01  7.48889663804E+02  7.49537550318E+02  2.24121607694E+01  0.00000000000E+00  1.
       23    2    3    3    0    0 -4.93635538361E+00 -2.10745873005E+01  1.19179117327E+03  1.19516446999E+03  8.70827411090E+01  0.00000000000E+00  1.
       16    1    4    4    0    0  2.93774532383E+00 -4.34398130725E+00  1.80729795901E+02  1.80805861862E+02  3.81469726562E-06  0.00000000000E+00  1.
      -16    1    4    4    0    0  1.99861005978E+00  2.54185686078E+01  5.68159867903E+02  5.68731688556E+02  7.62939453125E-06  0.00000000000E+00  1.
        4    1    5    5  804    0  1.75476484276E+01  3.64459418853E+00  5.45713726307E+01  5.74531406273E+01  1.27499999999E+00  0.00000000000E+00  1.
       -4    1    5    5    0  804 -2.24840038112E+01 -2.47191814890E+01  1.13721980064E+03  1.13771132936E+03  1.27499999986E+00  0.00000000000E+00  1.
</event>
<event>
 9   0   1.3629085E-07   6.2497672E+01   7.8125000E-03   1.3829026E-01
       21   -1    0    0  501  502  0.00000000000E+00  0.00000000000E+00  1.42398553150E+02  1.42398553150E+02  0.00000000000E+00  0.00000000000E+00  1.
       21   -1    0    0  502  501  0.00000000000E+00  0.00000000000E+00 -2.74297664732E+01  2.74297664732E+01  0.00000000000E+00  0.00000000000E+00  1.
       25    2    1    2    0    0  0.00000000000E+00  0.00000000000E+00  1.14968786676E+02  1.69828319623E+02  1.24995344858E+02  0.00000000000E+00  1.
       23    2    3    3    0    0 -1.96854437834E+01  1.52710478938E+01  2.71981213132E+01  6.32650236189E+01  5.14004261637E+01  0.00000000000E+00  1.
       23    2    3    3    0    0  1.96854437834E+01 -1.52710478938E+01  8.77706653632E+01  1.06563296004E+02  5.50574677605E+01  0.00000000000E+00  1.
        3    1    4    4  804    0 -7.26467109745E+00 -1.89106878760E+01  5.81514627285E+00  2.10761829626E+01  1.42553576745E-06  0.00000000000E+00  1.
       -3    1    4    4    0  804 -1.24207726859E+01  3.41817357698E+01  2.13829750403E+01  4.21888406563E+01  1.03924249257E-06  0.00000000000E+00  1.
       13    1    5    5    0    0  2.40913021352E+01  3.87569149217E+00  1.00367057725E+01  2.63848147598E+01  1.05660000000E-01  0.00000000000E+00  1.
      -13    1    5    5    0    0 -4.40585835176E+00 -1.91467393860E+01  7.77339595908E+01  8.01784812442E+01  1.05660000004E-01  0.00000000000E+00  1.
</event>
<event>
 9   0   7.7113170E-12   6.2499021E+01   7.8125000E-03   1.3828975E-01
       21   -1    0    0  501  502  0.00000000000E+00  0.00000000000E+00  1.49778673402E+02  1.49778673402E+02  0.00000000000E+00  0.00000000000E+00  1.
       21   -1    0    0  502  501  0.00000000000E+00  0.00000000000E+00 -2.60793308824E+01  2.60793308824E+01  0.00000000000E+00  0.00000000000E+00  1.
       25    2    1    2    0    0 -8.88178419700E-16  0.00000000000E+00  1.23699342520E+02  1.75858004285E+02  1.24998041309E+02  0.00000000000E+00  1.
       23    2    3    3    0    0 -6.20912498822E+00 -2.45765142192E+01  3.11861817169E+01  6.52468764039E+01  5.14005706787E+01  0.00000000000E+00  1.
       23    2    3    3    0    0  6.20912498822E+00  2.45765142192E+01  9.25131608031E+01  1.10611127881E+02  5.50779302899E+01  0.00000000000E+00  1.
        3    1    4    4  803    0 -5.43520408407E+00 -4.06371864635E+01  2.49912843111E+01  4.80154835300E+01  0.00000000000E+00  0.00000000000E+00  1.
       -3    1    4    4    0  803 -7.73920904147E-01  1.60606722443E+01  6.19489740583E+00  1.72313928739E+01  0.00000000000E+00  0.00000000000E+00  1.
       14    1    5    5    0    0  1.56308345971E+01  2.07209602435E+01  1.05489799031E+01  2.80171761713E+01  0.00000000000E+00  0.00000000000E+00  1.
      -14    1    5    5    0    0 -9.42170960885E+00  3.85555397567E+00  8.19641808999E+01  8.25939518096E+01  0.00000000000E+00  0.00000000000E+00  1.
</event>
<event>
 9   0   9.1570092E-16   6.2497661E+01   7.8125000E-03   1.3829026E-01
       21   -1    0    0  501  502  0.00000000000E+00  0.00000000000E+00  1.43497678887E+02  1.43497678887E+02  0.00000000000E+00  0.00000000000E+00  1.
       21   -1    0    0  502  501  0.00000000000E+00  0.00000000000E+00 -2.72196570391E+01  2.72196570391E+01  0.00000000000E+00  0.00000000000E+00  1.
       25    2    1    2    0    0  0.00000000000E+00 -3.55271367880E-15  1.16278021848E+02  1.70717335926E+02  1.24995321596E+02  0.00000000000E+00  1.
       23    2    3    3    0    0 -6.71533353413E+00 -2.87047826443E+01  3.72842397450E+01  7.00086729309E+01  5.14007733507E+01  0.00000000000E+00  1.
       23    2    3    3    0    0  6.71533353413E+00  2.87047826443E+01  7.89937821029E+01  1.00708662995E+02  5.50741040801E+01  0.00000000000E+00  1.
        5    1    4    4  803    0 -1.16358502708E+00 -4.29548784099E+01  2.66895187986E+01  5.08071690121E+01  4.75000000000E+00  0.00000000000E+00  1.
       -5    1    4    4    0  803 -5.55174850705E+00  1.42500957655E+01  1.05947209464E+01  1.92015039188E+01  4.75000000000E+00  0.00000000000E+00  1.
       14    1    5    5    0    0  1.60504566608E+01  2.35737086411E+01  8.99496108202E+00  2.99039500562E+01  0.00000000000E+00  0.00000000000E+00  1.
      -14    1    5    5    0    0 -9.33512312668E+00  5.13107400319E+00  6.99988210209E+01  7.08047130390E+01  0.00000000000E+00  0.00000000000E+00  1.
</event>
<event>
 9   0   2.3110208E-13   6.2497670E+01   7.8125000E-03   1.3829026E-01
       21   -1    0    0  501  502  0.00000000000E+00  0.00000000000E+00  1.45850144180E+02  1.45850144180E+02  0.00000000000E+00  0.00000000000E+00  1.
       21   -1    0    0  502  501  0.00000000000E+00  0.00000000000E+00 -2.67806300706E+01  2.67806300706E+01  0.00000000000E+00  0.00000000000E+00  1.
       25    2    1    2    0    0  0.00000000000E+00 -7.10542735760E-15  1.19069514109E+02  1.72630774250E+02  1.24995340025E+02  0.00000000000E+00  1.
       23    2    3    3    0    0 -6.03390864603E+00 -2.53683296775E+01  3.07399581760E+01  6.53216272156E+01  5.14004839399E+01  0.00000000000E+00  1.
       23    2    3    3    0    0  6.03390864603E+00  2.53683296775E+01  8.83295559329E+01  1.07309147035E+02  5.50743350554E+01  0.00000000000E+00  1.
        2    1    4    4  803    0 -6.20603345424E-01 -4.10451565811E+01  2.21105571739E+01  4.66258165164E+01  1.03924249257E-06  0.00000000000E+00  1.
       -2    1    4    4    0  803 -5.41330530061E+00  1.56768269036E+01  8.62940100219E+00  1.86958106992E+01  0.00000000000E+00  0.00000000000E+00  1.
        5    1    5    5  804    0  1.78540233349E+01  2.31632464550E+01  1.56873509556E+01  3.35254771119E+01  4.75000000000E+00  0.00000000000E+00  1.
       -5    1    5    5    0  804 -1.18201146889E+01  2.20508322249E+00  7.26422049773E+01  7.37836699226E+01  4.75000000000E+00  0.00000000000E+00  1.
</event>
<event>
 9   0   1.3893667E-07   6.2497640E+01   7.8125000E-03   1.3829027E-01
       21   -1    0    0  501  502  0.00000000000E+00  0.00000000000E+00  1.52347843039E+02  1.52347843039E+02  0.00000000000E+00  0.00000000000E+00  1.
       21   -1    0    0  502  501  0.00000000000E+00  0.00000000000E+00 -2.56384003059E+01  2.56384003059E+01  0.00000000000E+00  0.00000000000E+00  1.
       25    2    1    2    0    0  1.77635683940E-15 -7.10542735760E-15  1.26709442733E+02  1.77986243344E+02  1.24995279680E+02  0.00000000000E+00  1.
       23    2    3    3    0    0  7.93887088300E+00  3.46487383461E+01  8.54763595296E+01  1.03114680038E+02  4.54188117539E+01  0.00000000000E+00  1.
       23    2    3    3    0    0 -7.93887088300E+00 -3.46487383461E+01  4.12330832032E+01  7.48715633060E+01  5.14006138248E+01  0.00000000000E+00  1.
        3    1    4    4  804    0  5.72149907540E+00 -1.06177222854E+01  2.24602525089E+01  2.54938133861E+01  1.28392334154E-06  0.00000000000E+00  1.
       -3    1    4    4    0  804  2.21737180761E+00  4.52664606315E+01  6.30161070206E+01  7.76208666524E+01  1.50789149292E-06  0.00000000000E+00  1.
        1    1    5    5  803    0  8.08179724108E+00 -8.53834653975E+00 -9.82983827571E+00  1.53246380665E+01  0.00000000000E+00  0.00000000000E+00  1.
       -1    1    5    5    0  803 -1.60206681241E+01 -2.61103918063E+01  5.10629214789E+01  5.95469254394E+01  1.50789149292E-06  0.00000000000E+00  1.
</event>
<event>
 9   0   4.5482052E-13   6.2497660E+01   7.8125000E-03   1.3829026E-01
       21   -1    0    0  501  502  0.00000000000E+00  0.00000000000E+00  1.76417145281E+03  1.76417145281E+03  0.00000000000E+00  0.00000000000E+00  1.
       21   -1    0    0  502  501  0.00000000000E+00  0.00000000000E+00 -2.21404641652E+00  2.21404641652E+00  0.00000000000E+00  0.00000000000E+00  1.
       25    2    1    2    0    0  0.00000000000E+00  7.10542735760E-15  1.76195740639E+03  1.76638549922E+03  1.24995319644E+02  0.00000000000E+00  1.
       23    2    3    3    0    0 -5.63112166881E+00 -2.40358323071E+01  5.55396473224E+02  5.58316173191E+02  5.14030739502E+01  0.00000000000E+00  1.
       23    2    3    3    0    0  5.63112166881E+00  2.40358323071E+01  1.20656093317E+03  1.20806932603E+03  5.50706844890E+01  0.00000000000E+00  1.
       13    1    4    4    0    0 -2.01561775715E+00 -4.01899415270E+01  4.15322133074E+02  4.17267036201E+02  1.05660000365E-01  0.00000000000E+00  1.
      -13    1    4    4    0    0 -3.61550391166E+00  1.61541092199E+01  1.40074340149E+02  1.41049136990E+02  1.05660000124E-01  0.00000000000E+00  1.
       11    1    5    5    0    0  1.78330553685E+01  1.49780768945E+01  1.93782190545E+02  1.95176581648E+02  5.11304638191E-04  0.00000000000E+00  1.
      -11    1    5    5    0    0 -1.22019336996E+01  9.05775541267E+00  1.01277874262E+03  1.01289274438E+03  5.11112494642E-04  0.00000000000E+00  1.
</event>
<event>
 9   0   5.1218843E+00   6.2496727E+01   7.8125000E-03   1.3829061E-01
       21   -1    0    0  501  502  0.00000000000E+00  0.00000000000E+00  6.60540691246E+01  6.60540691246E+01  0.00000000000E+00  0.00000000000E+00  1.
       21   -1    0    0  502  501  0.00000000000E+00  0.00000000000E+00 -5.91309663860E+01  5.91309663860E+01  0.00000000000E+00  0.00000000000E+00  1.
       25    2    1    2    0    0  0.00000000000E+00  0.00000000000E+00  6.92310273860E+00  1.25185035511E+02  1.24993454886E+02  0.00000000000E+00  1.
       23    2    3    3    0    0 -6.34465699184E+00 -2.53299096260E+01 -1.63659291836E+01  5.99308770493E+01  5.14004610081E+01  0.00000000000E+00  1.
       23    2    3    3    0    0  6.34465699184E+00  2.53299096260E+01  2.32890319222E+01  6.52541584613E+01  5.50805518728E+01  0.00000000000E+00  1.
        2    1    4    4  804    0 -8.36061898835E-01 -3.56059842761E+01  4.62932993056E+00  3.59153980705E+01  0.00000000000E+00  0.00000000000E+00  1.
       -2    1    4    4    0  804 -5.50859509301E+00  1.02760746501E+01 -2.09952591141E+01  2.40154791788E+01  0.00000000000E+00  0.00000000000E+00  1.
        5    1    5    5  803    0 -4.36221522545E+00  2.92107527897E+01 -8.54631820740E+00  3.11110760842E+01  4.75000000000E+00  0.00000000000E+00  1.
       -5    1    5    5    0  803  1.07068722173E+01 -3.88084316370E+00  3.18353501296E+01  3.41430823771E+01  4.75000000000E+00  0.00000000000E+00  1.
</event>
<event>
 9   0   7.0711289E-16   6.2501265E+01   7.8125000E-03   1.3828891E-01
       21   -1    0    0  501  502  0.00000000000E+00  0.00000000000E+00  3.32956270418E+01  3.32956270418E+01  0.00000000000E+00  0.00000000000E+00  1.
       21   -1    0    0  502  501  0.00000000000E+00  0.00000000000E+00 -1.17324958783E+02  1.17324958783E+02  0.00000000000E+00  0.00000000000E+00  1.
       25    2    1    2    0    0  8.88178419700E-16  7.10542735760E-15 -8.40293317411E+01  1.50620585825E+02  1.25002529100E+02  0.00000000000E+00  1.
       23    2    3    3    0    0 -5.62001029159E+00 -2.39708145712E+01 -6.68955377726E+01  8.78659560265E+01  5.13734249168E+01  0.00000000000E+00  1.
       23    2    3    3    0    0  5.62001029159E+00  2.39708145712E+01 -1.71337939685E+01  6.27546297982E+01  5.51216128072E+01  0.00000000000E+00  1.
        2    1    4    4  803    0 -2.75891554882E-01 -3.99250407989E+01 -4.34567894671E+01  5.90133675512E+01  0.00000000000E+00  0.00000000000E+00  1.
       -2    1    4    4    0  803 -5.34411873671E+00  1.59542262277E+01 -2.34387483055E+01  2.88525885753E+01  1.01152436426E-06  0.00000000000E+00  1.
        3    1    5    5  804    0  1.53347305627E+01  2.03223817586E+01 -3.42877838409E+01  4.27060333266E+01  0.00000000000E+00  0.00000000000E+00  1.
       -3    1    5    5    0  804 -9.71472027107E+00  3.64843281256E+00  1.71539898725E+01  2.00485964715E+01  0.00000000000E+00  0.00000000000E+00  1.
</event>
<event>
 9   0   2.4370062E-04   6.2499936E+01   7.8125000E-03   1.3828941E-01
       21   -1    0    0  501  502  0.00000000000E+00  0.00000000000E+00  1.93957901706E+03  1.93957901706E+03  0.00000000000E+00  0.00000000000E+00  1.
       21   -1    0    0  502  501  0.00000000000E+00  0.00000000000E+00 -2.01396380919E+00  2.01396380919E+00  0.00000000000E+00  0.00000000000E+00  1.
       25    2    1    2    0    0  0.00000000000E+00  0.00000000000E+00  1.93756505325E+03  1.94159298087E+03  1.24999871127E+02  0.00000000000E+00  1.
       23    2    3    3    0    0 -2.01877811322E+01  1.62285227104E+01  6.33979807500E+02  6.36588159508E+02  5.14118376671E+01  0.00000000000E+00  1.
       23    2    3    3    0    0  2.01877811322E+01 -1.62285227104E+01  1.30358524575E+03  1.30500482136E+03  5.50652284022E+01  0.00000000000E+00  1.
        4    1    4    4  804    0 -2.83335586971E+01 -9.97218351408E+00  3.19962718498E+02  3.21372061396E+02  1.27499999998E+00  0.00000000000E+00  1.
       -4    1    4    4    0  804  8.14577756491E+00  2.62007062245E+01  3.14017089002E+02  3.15216098112E+02  1.27500000001E+00  0.00000000000E+00  1.
       16    1    5    5    0    0  2.11926819789E+01  1.51489634650E+00  1.75758153235E+02  1.77037716628E+02  2.56607514326E-05  0.00000000000E+00  1.
      -16    1    5    5    0    0 -1.00490084673E+00 -1.77434190569E+01  1.12782709252E+03  1.12796710473E+03  3.05175781250E-05  0.00000000000E+00  1.
</event>
<event>
 9   0   5.7769899E-11   6.2497670E+01   7.8125000E-03   1.3829026E-01
       21   -1    0    0  501  502  0.00000000000E+00  0.00000000000E+00  1.44917310910E+02  1.44917310910E+02  0.00000000000E+00  0.00000000000E+00  1.
       21   -1    0    0  502  501  0.00000000000E+00  0.00000000000E+00 -2.69530173074E+01  2.69530173074E+01  0.00000000000E+00  0.00000000000E+00  1.
       25    2    1    2    0    0  0.00000000000E+00 -3.55271367880E-15  1.17964293602E+02  1.71870328217E+02  1.24995340539E+02  0.00000000000E+00  1.
       23    2    3    3    0    0 -6.39594644654E+00 -2.73513262772E+01  3.43840265619E+01  6.79210655415E+01  5.14004540993E+01  0.00000000000E+00  1.
       23    2    3    3    0    0  6.39594644654E+00  2.73513262772E+01  8.35802670404E+01  1.03949262676E+02  5.50525657186E+01  0.00000000000E+00  1.
        5    1    4    4  804    0 -2.96879612209E+00 -4.22208387664E+01  2.47236968947E+01  4.92466919163E+01  4.75000000000E+00  0.00000000000E+00  1.
       -5    1    4    4    0  804 -3.42715032445E+00  1.48695124893E+01  9.66032966713E+00  1.86743736252E+01  4.75000000000E+00  0.00000000000E+00  1.
        3    1    5    5  803    0  1.84410241307E+01  1.45955636145E+01  5.81062963616E+00  2.42253022650E+01  0.00000000000E+00  0.00000000000E+00  1.
       -3    1    5    5    0  803 -1.20450776842E+01  1.27557626626E+01  7.77696374042E+01  7.97239605107E+01  0.00000000000E+00  0.00000000000E+00  1.
</event>
<event>
 9   0   1.1881299E-19   6.2499996E+01   7.8125000E-03   1.3828939E-01
       21   -1    0    0  501  502  0.00000000000E+00  0.00000000000E+00  1.93967259629E+03  1.93967259629E+03  0.00000000000E+00  0.00000000000E+00  1.
       21   -1    0    0  502  501  0.00000000000E+00  0.00000000000E+00 -2.01387052452E+00  2.01387052452E+00  0.00000000000E+00  0.00000000000E+00  1.
       25    2    1    2    0    0  8.88178419700E-16  3.55271367880E-15  1.93765872577E+03  1.94168646681E+03  1.24999991502E+02  0.00000000000E+00  1.
       23    2    3    3    0    0 -6.27750308229E+00 -2.68123634409E+01  6.70170156220E+02  6.72702293097E+02  5.14006514758E+01  0.00000000000E+00  1.
       23    2    3    3    0    0  6.27750308229E+00  2.68123634409E+01  1.26748856955E+03  1.26898417372E+03  5.50930970103E+01  0.00000000000E+00  1.
       16    1    4    4    0    0 -8.29530547560E-01 -4.20836924889E+01  4.79259253328E+02  4.81104102343E+02  7.62939453125E-06  0.00000000000E+00  1.
      -16    1    4    4    0    0 -5.44797253473E+00  1.52713290479E+01  1.90910902892E+02  1.91598190954E+02  2.69739830470E-06  0.00000000000E+00  1.
       15    1    5    5    0    0  1.57269695201E+01  2.21330864357E+01  2.56521829398E+02  2.57960882812E+02  1.77680000003E+00  0.00000000000E+00  1.
      -15    1    5    5    0    0 -9.44946643785E+00  4.67927700521E+00  1.01096674015E+03  1.01102329091E+03  1.77680000002E+00  0.00000000000E+00  1.
</event>
<event>
 9   0   9.9280812E-03   6.2497657E+01   7.8125000E-03   1.3829026E-01
       21   -1    0    0  501  502  0.00000000000E+00  0.00000000000E+00  1.25047319363E+02  1.25047319363E+02  0.00000000000E+00  0.00000000000E+00  1.
       21   -1    0    0  502  501  0.00000000000E+00  0.00000000000E+00 -3.12358328283E+01  3.12358328283E+01  0.00000000000E+00  0.00000000000E+00  1.
       25    2    1    2    0    0  1.77635683940E-15  3.55271367880E-15  9.38114865346E+01  1.56283152191E+02  1.24995314524E+02  0.00000000000E+00  1.
       23    2    3    3    0    0  5.81334870651E+00 -2.43142090116E+01  1.97875306331E+01  6.04686605638E+01  5.13803148956E+01  0.00000000000E+00  1.
       23    2    3    3    0    0 -5.81334870651E+00  2.43142090116E+01  7.40239559015E+01  9.58144916274E+01  5.54607516670E+01  0.00000000000E+00  1.
       15    1    4    4    0    0  2.34713516705E+01 -3.03342691283E+01  1.29916339542E+01  4.05340820030E+01  1.77680000000E+00  0.00000000000E+00  1.
      -15    1    4    4    0    0 -1.76580029640E+01  6.02006011667E+00  6.79589667887E+00  1.99345785607E+01  1.77680000000E+00  0.00000000000E+00  1.
        4    1    5    5  803    0  1.01049707530E+01  2.01339192715E+01  2.83990779188E+00  2.27415003995E+01  1.27500000000E+00  0.00000000000E+00  1.
       -4    1    5    5    0  803 -1.59183194595E+01  4.18028974007E+00  7.11840481096E+01  7.30729912280E+01  1.27500000000E+00  0.00000000000E+00  1.
</event>
<event>
 9   0   2.0585664E-22   6.2497656E+01   7.8125000E-03   1.3829026E-01
       21   -1    0    0  501  502  0.00000000000E+00  0.00000000000E+00  1.63220714557E+02  1.63220714557E+02  0.00000000000E+00  0.00000000000E+00  1.
       21   -1    0    0  502  501  0.00000000000E+00  0.00000000000E+00 -2.39305224051E+01  2.39305224051E+01  0.00000000000E+00  0.00000000000E+00  1.
       25    2    1    2    0    0  0.00000000000E+00  3.55271367880E-15  1.39290192152E+02  1.87151236962E+02  1.24995311379E+02  0.00000000000E+00  1.
       23    2    3    3    0    0 -6.72591401408E+00 -2.86908878673E+01  4.65478535868E+01  7.53467950519E+01  5.14006992668E+01  0.00000000000E+00  1.
       23    2    3    3    0    0  6.72591401408E+00  2.86908878673E+01  9.27423385649E+01  1.11804441910E+02  5.50516748371E+01  0.00000000000E+00  1.
        4    1    4    4  804    0 -1.08800872516E+00 -4.33345135115E+01  3.63799483635E+01  5.66055659118E+01  1.27500000000E+00  0.00000000000E+00  1.
       -4    1    4    4    0  804 -5.63790528892E+00  1.46436256441E+01  1.01679052234E+01  1.87412291402E+01  1.27500000000E+00  0.00000000000E+00  1.
        3    1    5    5  803    0  1.60642440218E+01  2.34968264891E+01  1.28998386898E+01  3.12500660683E+01  0.00000000000E+00  0.00000000000E+00  1.
       -3    1    5    5    0  803 -9.33833000769E+00  5.19406137824E+00  7.98424998751E+01  8.05543758417E+01  0.00000000000E+00  0.00000000000E+00  1.
</event>
<event>
 9   0   4.0203675E-18   6.2499019E+01   7.8125000E-03   1.3828975E-01
       21   -1    0    0  501  502  0.00000000000E+00  0.00000000000E+00  1.50581806833E+02  1.50581806833E+02  0.00000000000E+00  0.00000000000E+00  1.
       21   -1    0    0  502  501  0.00000000000E+00  0.00000000000E+00 -2.59402340878E+01  2.59402340878E+01  0.00000000000E+00  0.00000000000E+00  1.
       25    2    1    2    0    0 -8.88178419700E-16  0.00000000000E+00  1.24641572745E+02  1.76522040920E+02  1.24998037082E+02  0.00000000000E+00  1.
       23    2    3    3    0    0  6.02602926965E+00  2.57722615136E+01  9.10368197838E+01  1.09650342193E+02  5.50905844451E+01  0.00000000000E+00  1.
       23    2    3    3    0    0 -6.02602926965E+00 -2.57722615136E+01  3.36047529611E+01  6.68716987270E+01  5.14006048289E+01  0.00000000000E+00  1.
       12    1    4    4    0    0  5.67416483628E+00 -1.72169727401E+01  2.68967549618E+01  3.24354085975E+01  1.21570098724E-06  0.00000000000E+00  1.
      -12    1    4    4    0    0  3.51864433366E-01  4.29892342537E+01  6.41400648219E+01  7.72149337959E+01  1.65181236989E-06  0.00000000000E+00  1.
       14    1    5    5    0    0  8.70192753249E+00 -4.95487842477E+00 -1.13821203400E+01  1.51600471454E+01  1.16800772800E-06  0.00000000000E+00  1.
      -14    1    5    5    0    0 -1.47279568021E+01 -2.08173830888E+01  4.49868733011E+01  5.17116517816E+01  1.06624029994E-06  0.00000000000E+00  1.
</event>
<event>
 9   0   2.2383638E-06   6.2497657E+01   7.8125000E-03   1.3829026E-01
       21   -1    0    0  501  502  0.00000000000E+00  0.00000000000E+00  3.51110092619E+03  3.51110092619E+03  0.00000000000E+00  0.00000000000E+00  1.
       21   -1    0    0  502  501  0.00000000000E+00  0.00000000000E+00 -1.11245935846E+00  1.11245935846E+00  0.00000000000E+00  0.00000000000E+00  1.
       25    2    1    2    0    0 -1.77635683940E-15 -1.77635683940E-15  3.50998846683E+03  3.51221338554E+03  1.24995313253E+02  0.00000000000E+00  1.
       23    2    3    3    0    0  2.72197994196E+00  1.16353489285E+01  1.30579223085E+03  1.30738553649E+03  6.34097812043E+01  0.00000000000E+00  1.
       23    2    3    3    0    0 -2.72197994196E+00 -1.16353489285E+01  2.20419623598E+03  2.20482784906E+03  5.14004548073E+01  0.00000000000E+00  1.
        4    1    4    4  803    0 -1.71940443873E+01 -2.01958205044E+01  4.70373990029E+02  4.71122937723E+02  1.27499999995E+00  0.00000000000E+00  1.
       -4    1    4    4    0  803  1.99160243292E+01  3.18311694329E+01  8.35418240821E+02  8.36262598766E+02  1.27499999995E+00  0.00000000000E+00  1.
        4    1    5    5  804    0  1.06850031307E+01  3.80593924679E+00  1.22458628995E+02  1.22989413795E+02  1.27500000010E+00  0.00000000000E+00  1.
       -4    1    5    5    0  804 -1.34069830727E+01 -1.54412881753E+01  2.08173760698E+03  2.08183843526E+03  1.27500000050E+00  0.00000000000E+00  1.
</event>
<event>
 9   0   2.4609856E-11   6.2499984E+01   7.8125000E-03   1.3828939E-01
       21   -1    0    0  501  502  0.00000000000E+00  0.00000000000E+00  1.74312284886E+03  1.74312284886E+03  0.00000000000E+00  0.00000000000E+00  1.
       21   -1    0    0  502  501  0.00000000000E+00  0.00000000000E+00 -2.24094822419E+00  2.24094822419E+00  0.00000000000E+00  0.00000000000E+00  1.
       25    2    1    2    0    0  0.00000000000E+00  0.00000000000E+00  1.74088190064E+03  1.74536379709E+03  1.24999968843E+02  0.00000000000E+00  1.
       23    2    3    3    0    0 -6.14925888894E+00 -2.62717943482E+01  5.89966913234E+02  5.92814055554E+02  5.13763096071E+01  0.00000000000E+00  1.
       23    2    3    3    0    0  6.14925888894E+00  2.62717943482E+01  1.15091498740E+03  1.15254974153E+03  5.51142260319E+01  0.00000000000E+00  1.
        4    1    4    4  803    0 -6.77922405067E-01 -4.15429027290E+01  4.44766531841E+02  4.46704785979E+02  1.27499999999E+00  0.00000000000E+00  1.
       -4    1    4    4    0  803 -5.47133648387E+00  1.52711083808E+01  1.45200381393E+02  1.46109269575E+02  1.27500000001E+00  0.00000000000E+00  1.
       14    1    5    5    0    0  1.56062383793E+01  2.17272932775E+01  2.26364678931E+02  2.27939899572E+02  2.69739830470E-06  0.00000000000E+00  1.
      -14    1    5    5    0    0 -9.45697949036E+00  4.54450107070E+00  9.24550308473E+02  9.24609841960E+02  0.00000000000E+00  0.00000000000E+00  1.
</event>
<event>
 9   0   3.1636592E-09   6.2497671E+01   7.8125000E-03   1.3829026E-01
       21   -1    0    0  501  502  0.00000000000E+00  0.00000000000E+00  5.22544626531E+01  5.22544626531E+01  0.00000000000E+00  0.00000000000E+00  1.
       21   -1    0    0  502  501  0.00000000000E+00  0.00000000000E+00 -7.47488095174E+01  7.47488095174E+01  0.00000000000E+00  0.00000000000E+00  1.
       25    2    1    2    0    0 -1.77635683940E-15 -3.55271367880E-15 -2.24943468642E+01  1.27003272170E+02  1.24995341918E+02  0.00000000000E+00  1.
       23    2    3    3    0    0 -6.43669560797E+00 -2.56982430789E+01 -3.05359248948E+01  6.53934200682E+01  5.14006413514E+01  0.00000000000E+00  1.
       23    2    3    3    0    0  6.43669560797E+00  2.56982430789E+01  8.04157803055E+00  6.16098521023E+01  5.50388603730E+01  0.00000000000E+00  1.
        4    1    4    4  804    0 -8.71878648122E-01 -4.12399851771E+01 -2.17504589115E+01  4.66498085489E+01  1.27500000000E+00  0.00000000000E+00  1.
       -4    1    4    4    0  804 -5.56481695985E+00  1.55417420982E+01 -8.78546598330E+00  1.87436115193E+01  1.27500000000E+00  0.00000000000E+00  1.
        1    1    5    5  803    0  1.84314903528E+01  1.32086212837E+01 -1.89429344256E+01  2.95469503925E+01  0.00000000000E+00  0.00000000000E+00  1.
       -1    1    5    5    0  803 -1.19947947449E+01  1.24896217953E+01  2.69845124562E+01  3.20629017099E+01  0.00000000000E+00  0.00000000000E+00  1.
</event>
<event>
 9   0   2.8405580E-05   6.2493415E+01   7.8125000E-03   1.3829184E-01
       21   -1    0    0  501  502  0.00000000000E+00  0.00000000000E+00  1.86232156942E+03  1.86232156942E+03  0.00000000000E+00  0.00000000000E+00  1.
       21   -1    0    0  502  501  0.00000000000E+00  0.00000000000E+00 -2.09707444632E+00  2.09707444632E+00  0.00000000000E+00  0.00000000000E+00  1.
       25    2    1    2    0    0 -1.77635683940E-15 -3.55271367880E-15  1.86022449498E+03  1.86441864387E+03  1.24986830891E+02  0.00000000000E+00  1.
       23    2    3    3    0    0 -6.31102044109E+00 -2.69546200620E+01  6.50809031951E+02  6.53423401433E+02  5.14136650017E+01  0.00000000000E+00  1.
       23    2    3    3    0    0  6.31102044109E+00  2.69546200620E+01  1.20941546302E+03  1.21099524244E+03  5.52931684506E+01  0.00000000000E+00  1.
        5    1    4    4  803    0 -8.95455630062E-01 -4.16931839003E+01  4.61008065191E+02  4.62914810841E+02  4.75000000001E+00  0.00000000000E+00  1.
       -5    1    4    4    0  803 -5.41556481103E+00  1.47385638383E+01  1.89800966760E+02  1.90508590592E+02  4.75000000000E+00  0.00000000000E+00  1.
        3    1    5    5  804    0 -1.25827968800E+01  1.48708314100E+01  1.40442803954E+02  1.41787339403E+02  3.81469726562E-06  0.00000000000E+00  1.
       -3    1    5    5    0  804  1.88938173211E+01  1.20837886520E+01  1.06897265907E+03  1.06920790323E+03  2.64289979182E-05  0.00000000000E+00  1.
</event>
<event>
 9   0   3.8729640E-09   6.2497866E+01   7.8125000E-03   1.3829018E-01
       21   -1    0    0  501  502  0.00000000000E+00  0.00000000000E+00  5.88782569531E+00  5.88782569531E+00  0.00000000000E+00  0.00000000000E+00  1.
       21   -1    0    0  502  501  0.00000000000E+00  0.00000000000E+00 -6.63399951026E+02  6.63399951026E+02  0.00000000000E+00  0.00000000000E+00  1.
       25    2    1    2    0    0 -4.44089209850E-15 -5.32907051820E-15 -6.57512125331E+02  6.69287776722E+02  1.24995732374E+02  0.00000000000E+00  1.
       23    2    3    3    0    0 -1.47397013049E+00 -6.28852334557E+00 -2.99101839492E+02  3.03554996374E+02  5.14004603350E+01  0.00000000000E+00  1.
       23    2    3    3    0    0  1.47397013049E+00  6.28852334557E+00 -3.58410285839E+02  3.65732780347E+02  7.25314794512E+01  0.00000000000E+00  1.
        2    1    4    4  803    0  1.88770673703E+00 -2.50206493281E+01 -8.54673271142E+01  8.90744652040E+01  2.33601545599E-06  0.00000000000E+00  1.
       -2    1    4    4    0  803 -3.36167686751E+00  1.87321259826E+01 -2.13634512377E+02  2.14480531370E+02  4.67203091199E-06  0.00000000000E+00  1.
       12    1    5    5    0    0  1.74626098357E+01  1.50717874395E+01 -3.36203425889E+02  3.36993835501E+02  3.81469726562E-06  0.00000000000E+00  1.
      -12    1    5    5    0    0 -1.59886397053E+01 -8.78326409389E+00 -2.22068599504E+01  2.87389450462E+01  2.67624191292E-06  0.00000000000E+00  1.
</event>
<event>
 9   0   2.5436412E-12   6.2491241E+01   7.8125000E-03   1.3829266E-01
       21   -1    0    0  501  502  0.00000000000E+00  0.00000000000E+00  9.34531286394E+02  9.34531286394E+02  0.00000000000E+00  0.00000000000E+00  1.
       21   -1    0    0  502  501  0.00000000000E+00  0.00000000000E+00 -4.17873141416E+00  4.17873141416E+00  0.00000000000E+00  0.00000000000E+00  1.
       25    2    1    2    0    0 -1.77635683940E-15 -3.55271367880E-15  9.30352554980E+02  9.38710017809E+02  1.24982482676E+02  0.00000000000E+00  1.
       23    2    3    3    0    0 -6.72598410911E+00 -2.86920080799E+01  3.46560806590E+02  3.51585135482E+02  5.13735791798E+01  0.00000000000E+00  1.
       23    2    3    3    0    0  6.72598410911E+00  2.86920080799E+01  5.83791748390E+02  5.87124882327E+02  5.50849504717E+01  0.00000000000E+00  1.
       16    1    4    4    0    0 -2.98654392062E+00 -3.89906352364E+01  3.25540106690E+02  3.27880389997E+02  0.00000000000E+00  0.00000000000E+00  1.
      -16    1    4    4    0    0 -3.73944018849E+00  1.02986271565E+01  2.10206998994E+01  2.37047454846E+01  4.89194024293E-06  0.00000000000E+00  1.
        2    1    5    5  803    0  2.33105494190E+01  3.13051458718E+01  5.07935335708E+02  5.09432722873E+02  5.39479660939E-06  0.00000000000E+00  1.
       -2    1    5    5    0  803 -1.65845653099E+01 -2.61313779189E+00  7.58564126820E+01  7.76921595540E+01  3.69356474515E-06  0.00000000000E+00  1.
</event>
<event>
 9   0   1.0373897E-07   6.2498994E+01   7.8125000E-03   1.3828976E-01
       21   -1    0    0  501  502  0.00000000000E+00  0.00000000000E+00  1.17627098861E+02  1.17627098861E+02  0.00000000000E+00  0.00000000000E+00  1.
       21   -1    0    0  502  501  0.00000000000E+00  0.00000000000E+00 -3.32076898742E+01  3.32076898742E+01  0.00000000000E+00  0.00000000000E+00  1.
       25    2    1    2    0    0  0.00000000000E+00  3.55271367880E-15  8.44194089870E+01  1.50834788735E+02  1.24997987500E+02  0.00000000000E+00  1.
       23    2    3    3    0    0 -6.07360124818E+00 -2.54546748003E+01  2.22423907913E+01  7.11783230834E+01  6.23442108582E+01  0.00000000000E+00  1.
       23    2    3    3    0    0  6.07360124818E+00  2.54546748003E+01  6.21770181957E+01  7.96564656521E+01  4.23596721796E+01  0.00000000000E+00  1.
        3    1    4    4  804    0  9.51373858162E-02 -4.60795348832E+01  1.46965279042E+01  4.83665228054E+01  0.00000000000E+00  0.00000000000E+00  1.
       -3    1    4    4    0  804 -6.16873863400E+00  2.06248600829E+01  7.54586288715E+00  2.28118004780E+01  0.00000000000E+00  0.00000000000E+00  1.
       14    1    5    5    0    0  1.27442538819E+01  1.89998395471E+01  7.32148480528E+00  2.40211167429E+01  1.22733475458E-06  0.00000000000E+00  1.
      -14    1    5    5    0    0 -6.67065263367E+00  6.45483525321E+00  5.48555333904E+01  5.56353489092E+01  0.00000000000E+00  0.00000000000E+00  1.
</event>
<event>
 9   0   1.0855784E-15   6.2497670E+01   7.8125000E-03   1.3829026E-01
       21   -1    0    0  501  502  0.00000000000E+00  0.00000000000E+00  1.67616529380E+02  1.67616529380E+02  0.00000000000E+00  0.00000000000E+00  1.
       21   -1    0    0  502  501  0.00000000000E+00  0.00000000000E+00 -2.33029448494E+01  2.33029448494E+01  0.00000000000E+00  0.00000000000E+00  1.
       25    2    1    2    0    0 -3.55271367880E-15  0.00000000000E+00  1.44313584531E+02  1.90919474230E+02  1.24995339753E+02  0.00000000000E+00  1.
       23    2    3    3    0    0 -5.03026721497E+00 -2.14871391679E+01  4.94587449497E+01  7.46554302379E+01  5.13835097491E+01  0.00000000000E+00  1.
       23    2    3    3    0    0  5.03026721497E+00  2.14871391679E+01  9.48548395813E+01  1.16264043992E+02  6.35050123652E+01  0.00000000000E+00  1.
        1    1    4    4  804    0  6.76003168481E-02 -3.82958614579E+01  3.55092048377E+01  5.22252927499E+01  1.34869915235E-06  0.00000000000E+00  1.
       -1    1    4    4    0  804 -5.09786753182E+00  1.68087222900E+01  1.39495401120E+01  2.24301374880E+01  1.18011175831E-06  0.00000000000E+00  1.
        2    1    5    5  803    0  1.71648334961E+01  2.12502903868E+01  7.85780511625E+00  2.84244868330E+01  0.00000000000E+00  0.00000000000E+00  1.
       -2    1    5    5    0  803 -1.21345662811E+01  2.36848781094E-01  8.69970344651E+01  8.78395572591E+01  0.00000000000E+00  0.00000000000E+00  1.
</event>
<event>
 9   0   4.2311660E-08   6.2497661E+01   7.8125000E-03   1.3829026E-01
       21   -1    0    0  501  502  0.00000000000E+00  0.00000000000E+00  9.67451264634E+02  9.67451264634E+02  0.00000000000E+00  0.00000000000E+00  1.
       21   -1    0    0  502  501  0.00000000000E+00  0.00000000000E+00 -4.03736894262E+00  4.03736894262E+00  0.00000000000E+00  0.00000000000E+00  1.
       25    2    1    2    0    0  1.33226762955E-15  0.00000000000E+00  9.63413895691E+02  9.71488633576E+02  1.24995322942E+02  0.00000000000E+00  1.
       23    2    3    3    0    0 -3.86852490927E+00 -1.65199192619E+01  7.84531784332E+02  7.87366995067E+02  6.45661759452E+01  0.00000000000E+00  1.
       23    2    3    3    0    0  3.86852490927E+00  1.65199192619E+01  1.78882111359E+02  1.84121638509E+02  4.01757985074E+01  0.00000000000E+00  1.
       12    1    4    4    0    0 -7.72523513354E-01 -4.12376004810E+01  4.36204472531E+02  4.38150063824E+02  7.62939453125E-06  0.00000000000E+00  1.
      -12    1    4    4    0    0 -3.09600139591E+00  2.47176812192E+01  3.48327311801E+02  3.49216931442E+02  7.62939453125E-06  0.00000000000E+00  1.
        2    1    5    5  803    0  1.18360061514E+01  1.76382579916E+01  4.25985400773E+01  4.76007858426E+01  1.65181236989E-06  0.00000000000E+00  1.
       -2    1    5    5    0  803 -7.96748124212E+00 -1.11833872974E+00  1.36283571282E+02  1.36520852867E+02  1.90734863281E-06  0.00000000000E+00  1.
</event>
<event>
 9   0   1.8364742E-17   6.2499683E+01   7.8125000E-03   1.3828950E-01
       21   -1    0    0  501  502  0.00000000000E+00  0.00000000000E+00  9.34550510311E+02  9.34550510311E+02  0.00000000000E+00  0.00000000000E+00  1.
       21   -1    0    0  502  501  0.00000000000E+00  0.00000000000E+00 -4.17977443532E+00  4.17977443532E+00  0.00000000000E+00  0.00000000000E+00  1.
       25    2    1    2    0    0  1.77635683940E-15  0.00000000000E+00  9.30370735875E+02  9.38730284746E+02  1.24999365303E+02  0.00000000000E+00  1.
       23    2    3    3    0    0 -5.55993561051E+00 -2.37208992515E+01  2.89477946932E+02  2.95013862711E+02  5.14013957638E+01  0.00000000000E+00  1.
       23    2    3    3    0    0  5.55993561051E+00  2.37208992515E+01  6.40892788943E+02  6.43716422035E+02  5.50787720680E+01  0.00000000000E+00  1.
        2    1    4    4  803    0 -2.54963055943E-01 -3.97651083288E+01  2.14535132701E+02  2.18189486578E+02  4.67203091199E-06  0.00000000000E+00  1.
       -2    1    4    4    0  803 -5.30497255457E+00  1.60442090773E+01  7.49428142312E+01  7.68243763331E+01  3.30362473978E-06  0.00000000000E+00  1.
        4    1    5    5  804    0  1.52746402650E+01  2.01525856203E+01  1.16484492976E+02  1.19204463302E+02  1.27500000002E+00  0.00000000000E+00  1.
       -4    1    5    5    0  804 -9.71470465446E+00  3.56831363125E+00  5.24408295968E+02  5.24511958733E+02  1.27500000006E+00  0.00000000000E+00  1.
</event>
<event>
 9   0   6.4958358E-10   6.2497662E+01   7.8125000E-03   1.3829026E-01
       21   -1    0    0  501  502  0.00000000000E+00  0.00000000000E+00  1.82930133410E+03  1.82930133410E+03  0.00000000000E+00  0.00000000000E+00  1.
       21   -1    0    0  502  501  0.00000000000E+00  0.00000000000E+00 -2.13521836519E+00  2.13521836519E+00  0.00000000000E+00  0.00000000000E+00  1.
       25    2    1    2    0    0 -1.77635683940E-15  7.10542735760E-15  1.82716611573E+03  1.83143655246E+03  1.24995324777E+02  0.00000000000E+00  1.
       23    2    3    3    0    0 -7.50529597508E+00 -2.96428364166E+01  7.19995562821E+02  7.22476243860E+02  5.14128898466E+01  0.00000000000E+00  1.
       23    2    3    3    0    0  7.50529597508E+00  2.96428364166E+01  1.10717055291E+03  1.10896030860E+03  5.50572938183E+01  0.00000000000E+00  1.
        2    1    4    4  803    0  1.33608887826E+01 -2.90600041969E+01  5.85254507156E+02  5.86127831910E+02  1.52587890625E-05  0.00000000000E+00  1.
       -2    1    4    4    0  803 -2.08661847576E+01 -5.82832219671E-01  1.34741055665E+02  1.36348411950E+02  8.52992239952E-06  0.00000000000E+00  1.
        3    1    5    5  804    0  1.90131440397E+01  1.73669429602E+01  2.02174959644E+02  2.03808303710E+02  7.13664510112E-06  0.00000000000E+00  1.
       -3    1    5    5    0  804 -1.15078480646E+01  1.22758934564E+01  9.04995593267E+02  9.05152004992E+02  1.07895932188E-05  0.00000000000E+00  1.
</event>
<event>
 9   0   7.5696472E-17   6.2492821E+01   7.8125000E-03   1.3829207E-01
       21   -1    0    0  501  502  0.00000000000E+00  0.00000000000E+00  8.50290322472E+01  8.50290322472E+01  0.00000000000E+00  0.00000000000E+00  1.
       21   -1    0    0  502  501  0.00000000000E+00  0.00000000000E+00 -4.59296377652E+01  4.59296377652E+01  0.00000000000E+00  0.00000000000E+00  1.
       25    2    1    2    0    0 -1.77635683940E-15 -3.55271367880E-15  3.90993944820E+01  1.30958670012E+02  1.24985641586E+02  0.00000000000E+00  1.
       23    2    3    3    0    0  6.71633669284E+00  2.86885055581E+01  3.49577416973E+01  7.15673896320E+01  5.50609482704E+01  0.00000000000E+00  1.
       23    2    3    3    0    0 -6.71633669284E+00 -2.86885055581E+01  4.14165278470E+00  5.93912803804E+01  5.14006942337E+01  0.00000000000E+00  1.
        2    1    4    4  803    0  5.86216476748E+00 -1.63041268603E+01  1.17525610575E+01  2.09359075283E+01  0.00000000000E+00  0.00000000000E+00  1.
       -2    1    4    4    0  803  8.54171925355E-01  4.49926324184E+01  2.32051806398E+01  5.06314823037E+01  1.11828226085E-06  0.00000000000E+00  1.
       13    1    5    5    0    0 -1.11458309873E+01 -2.06063214570E+00 -2.01221389720E+01  2.30951811875E+01  1.05660000002E-01  0.00000000000E+00  1.
      -13    1    5    5    0    0  4.42949429446E+00 -2.66278734124E+01  2.42637917567E+01  3.62960991929E+01  1.05660000004E-01  0.00000000000E+00  1.
</event>
<event>
 9   0   2.6138375E-11   6.2497668E+01   7.8125000E-03   1.3829026E-01
       21   -1    0    0  501  502  0.00000000000E+00  0.00000000000E+00  1.87169485044E+03  1.87169485044E+03  0.00000000000E+00  0.00000000000E+00  1.
       21   -1    0    0  502  501  0.00000000000E+00  0.00000000000E+00 -2.08685647872E+00  2.08685647872E+00  0.00000000000E+00  0.00000000000E+00  1.
       25    2    1    2    0    0  1.77635683940E-15  3.55271367880E-15  1.86960799396E+03  1.87378170692E+03  1.24995336310E+02  0.00000000000E+00  1.
       23    2    3    3    0    0  6.20697639809E+00  2.64773900957E+01  1.23102668356E+03  1.23255811553E+03  5.50748017504E+01  0.00000000000E+00  1.
       23    2    3    3    0    0 -6.20697639809E+00 -2.64773900957E+01  6.38581310404E+02  6.41223591388E+02  5.14006363112E+01  0.00000000000E+00  1.
        4    1    4    4  804    0  5.74268568068E+00 -1.68832698564E+01  4.01395106901E+02  4.01793081958E+02  1.27500000007E+00  0.00000000000E+00  1.
       -4    1    4    4    0  804  4.64290717405E-01  4.33606599521E+01  8.29631576654E+02  8.30765033571E+02  1.27500000009E+00  0.00000000000E+00  1.
       14    1    5    5    0    0  9.90765550760E+00 -2.07325221920E+01  1.10432434852E+02  1.12797702909E+02  8.52992239952E-06  0.00000000000E+00  1.
      -14    1    5    5    0    0 -1.61146319057E+01 -5.74486790368E+00  5.28148875552E+02  5.28425888479E+02  7.62939453125E-06  0.00000000000E+00  1.
</event>
<event>
 9   0   1.7597857E-11   6.2497657E+01   7.8125000E-03   1.3829026E-01
       21   -1    0    0  501  502  0.00000000000E+00  0.00000000000E+00  1.54645525946E+01  1.54645525946E+01  0.00000000000E+00  0.00000000000E+00  1.
       21   -1    0    0  502  501  0.00000000000E+00  0.00000000000E+00 -2.52574852696E+02  2.52574852696E+02  0.00000000000E+00  0.00000000000E+00  1.
       25    2    1    2    0    0  3.55271367880E-15 -7.10542735760E-15 -2.37110300101E+02  2.68039405290E+02  1.24995313410E+02  0.00000000000E+00  1.
       23    2    3    3    0    0  3.26088657396E+00  3.99767220524E+01 -1.60237718293E+02  1.72024076865E+02  4.80352471649E+01  0.00000000000E+00  1.
       23    2    3    3    0    0 -3.26088657396E+00 -3.99767220524E+01 -7.68725818083E+01  9.60153284255E+01  4.12404870423E+01  0.00000000000E+00  1.
        1    1    5    5  804    0 -5.43868801305E+00 -2.35365708649E+01 -7.56195462043E+01  7.93842886181E+01  1.65181236989E-06  0.00000000000E+00  1.
       -1    1    4    4    0  803 -1.56678518971E+01  4.03232146404E+01 -1.02272309633E+02  1.11045344620E+02  2.33601545599E-06  0.00000000000E+00  1.
        1    1    4    4  803    0  1.89287384711E+01 -3.46492587921E-01 -5.79654086604E+01  6.09787323448E+01  0.00000000000E+00  0.00000000000E+00  1.
       -1    1    5    5    0  804  2.17780143909E+00 -1.64401511875E+01 -1.25303560398E+00  1.66310400074E+01  1.03098376504E-06  0.00000000000E+00  1.
</event>
<event>
 9   0   3.2269462E-07   6.2493153E+01   7.8125000E-03   1.3829194E-01
       21   -1    0    0  501  502  0.00000000000E+00  0.00000000000E+00  2.79050323668E+01  2.79050323668E+01  0.00000000000E+00  0.00000000000E+00  1.
       21   -1    0    0  502  501  0.00000000000E+00  0.00000000000E+00 -1.39953041672E+02  1.39953041672E+02  0.00000000000E+00  0.00000000000E+00  1.
       25    2    1    2    0    0 -1.77635683940E-15  0.00000000000E+00 -1.12048009305E+02  1.67858074039E+02  1.24986305773E+02  0.00000000000E+00  1.
       23    2    3    3    0    0 -5.06588930776E+00  2.71229589509E+01 -3.43284061753E+01  7.06795623991E+01  5.52796792109E+01  0.00000000000E+00  1.
       23    2    3    3    0    0  5.06588930776E+00 -2.71229589509E+01 -7.77196031298E+01  9.71785116397E+01  5.14004696197E+01  0.00000000000E+00  1.
        2    1    4    4  803    0  1.97158262484E+01 -5.77717842282E+00 -1.27615582394E+01  2.41856768333E+01  0.00000000000E+00  0.00000000000E+00  1.
       -2    1    4    4    0  803 -2.47817155562E+01  3.29001373737E+01 -2.15668479359E+01  4.64938856658E+01  0.00000000000E+00  0.00000000000E+00  1.
       16    1    5    5    0    0  1.45450053730E+01 -6.02592257490E+00 -7.15212876672E+01  7.32336228365E+01  1.34869915235E-06  0.00000000000E+00  1.
      -16    1    5    5    0    0 -9.47911606520E+00 -2.10970363760E+01 -6.19831546261E+00  2.39448888032E+01  0.00000000000E+00  0.00000000000E+00  1.
</event>
<event>
 9   0   4.4091786E-15   6.2497661E+01   7.8125000E-03   1.3829026E-01
       21   -1    0    0  501  502  0.00000000000E+00  0.00000000000E+00  1.51115974151E+02  1.51115974151E+02  0.00000000000E+00  0.00000000000E+00  1.
       21   -1    0    0  502  501  0.00000000000E+00  0.00000000000E+00 -2.58474174837E+01  2.58474174837E+01  0.00000000000E+00  0.00000000000E+00  1.
       25    2    1    2    0    0  1.77635683940E-15 -3.55271367880E-15  1.25268556668E+02  1.76963391635E+02  1.24995322670E+02  0.00000000000E+00  1.
       23    2    3    3    0    0 -6.85504784187E+00 -2.86543321319E+01  4.09073584242E+01  7.19964762012E+01  5.14005659629E+01  0.00000000000E+00  1.
       23    2    3    3    0    0  6.85504784187E+00  2.86543321319E+01  8.43611982434E+01  1.04966915434E+02  5.50743055858E+01  0.00000000000E+00  1.
        1    1    4    4  803    0 -1.20472021331E+00 -4.34183344462E+01  2.96925710761E+01  5.26141795905E+01  0.00000000000E+00  0.00000000000E+00  1.
       -1    1    4    4    0  803 -5.65032762856E+00  1.47640023142E+01  1.12147873481E+01  1.93822966107E+01  0.00000000000E+00  0.00000000000E+00  1.
       14    1    5    5    0    0  1.61405264570E+01  2.34947915990E+01  1.05488067243E+01  3.03940643860E+01  0.00000000000E+00  0.00000000000E+00  1.
      -14    1    5    5    0    0 -9.28547861512E+00  5.15954053293E+00  7.38123915191E+01  7.45728510477E+01  0.00000000000E+00  0.00000000000E+00  1.
</event>
<event>
 9   0   4.8462919E-13   6.2497658E+01   7.8125000E-03   1.3829026E-01
       21   -1    0    0  501  502  0.00000000000E+00  0.00000000000E+00  9.60674079059E+01  9.60674079059E+01  0.00000000000E+00  0.00000000000E+00  1.
       21   -1    0    0  502  501  0.00000000000E+00  0.00000000000E+00 -4.06585050962E+01  4.06585050962E+01  0.00000000000E+00  0.00000000000E+00  1.
       25    2    1    2    0    0  0.00000000000E+00 -3.55271367880E-15  5.54089028097E+01  1.36725913002E+02  1.24995315015E+02  0.00000000000E+00  1.
       23    2    3    3    0    0  6.74743203726E+00  2.86886293583E+01  4.39524819049E+01  7.63781923517E+01  5.50748790989E+01  0.00000000000E+00  1.
       23    2    3    3    0    0 -6.74743203726E+00 -2.86886293583E+01  1.14564209048E+01  6.03477206504E+01  5.14007053862E+01  0.00000000000E+00  1.
        2    1    4    4  803    0  5.87962393794E+00 -1.63249688423E+01  1.41026921294E+01  2.23597967489E+01  0.00000000000E+00  0.00000000000E+00  1.
       -2    1    4    4    0  803  8.67808099329E-01  4.50135982006E+01  2.98497897755E+01  5.40183956028E+01  0.00000000000E+00  0.00000000000E+00  1.
        4    1    5    5  804    0 -1.25757105087E+01 -3.25403122679E+00 -1.71859132866E+01  2.15805109883E+01  1.27500000000E+00  0.00000000000E+00  1.
       -4    1    5    5    0  804  5.82827847144E+00 -2.54345981315E+01  2.86423341914E+01  3.87672096620E+01  1.27500000000E+00  0.00000000000E+00  1.
</event>
<event>
 9   0   4.2636687E-19   6.2497660E+01   7.8125000E-03   1.3829026E-01
       21   -1    0    0  501  502  0.00000000000E+00  0.00000000000E+00  1.50953517388E+02  1.50953517388E+02  0.00000000000E+00  0.00000000000E+00  1.
       21   -1    0    0  502  501  0.00000000000E+00  0.00000000000E+00 -2.58752332205E+01  2.58752332205E+01  0.00000000000E+00  0.00000000000E+00  1.
       25    2    1    2    0    0 -2.66453525910E-15  0.00000000000E+00  1.25078284167E+02  1.76828750608E+02  1.24995319398E+02  0.00000000000E+00  1.
       23    2    3    3    0    0 -6.70966458886E+00 -2.86749416251E+01  4.07913403442E+01  7.19251980432E+01  5.14006691627E+01  0.00000000000E+00  1.
       23    2    3    3    0    0  6.70966458886E+00  2.86749416251E+01  8.42869438231E+01  1.04903552565E+02  5.50744456682E+01  0.00000000000E+00  1.
        4    1    4    4  803    0 -1.16140569255E+00 -4.34005066608E+01  2.91519052870E+01  5.23107259408E+01  1.27500000000E+00  0.00000000000E+00  1.
       -4    1    4    4    0  803 -5.54825889631E+00  1.47255650357E+01  1.16394350573E+01  1.96144721023E+01  1.27500000000E+00  0.00000000000E+00  1.
        3    1    5    5  804    0  1.60618812522E+01  2.34909262814E+01  1.04791897610E+01  3.03252546738E+01  0.00000000000E+00  0.00000000000E+00  1.
       -3    1    5    5    0  804 -9.35221666331E+00  5.18401534365E+00  7.38077540621E+01  7.45782979914E+01  0.00000000000E+00  0.00000000000E+00  1.
</event>
<event>
 9   0   3.9288961E-14   6.2497864E+01   7.8125000E-03   1.3829018E-01
       21   -1    0    0  501  502  0.00000000000E+00  0.00000000000E+00  1.47788606875E+02  1.47788606875E+02  0.00000000000E+00  0.00000000000E+00  1.
       21   -1    0    0  502  501  0.00000000000E+00  0.00000000000E+00 -2.64295268933E+01  2.64295268933E+01  0.00000000000E+00  0.00000000000E+00  1.
       25    2    1    2    0    0  2.66453525910E-15 -3.55271367880E-15  1.21359079981E+02  1.74218133768E+02  1.24995727286E+02  0.00000000000E+00  1.
       23    2    3    3    0    0 -5.91213018042E+00 -2.52689743775E+01  3.13780812720E+01  6.55748742095E+01  5.14004454642E+01  0.00000000000E+00  1.
       23    2    3    3    0    0  5.91213018042E+00  2.52689743775E+01  8.99809987093E+01  1.08643259558E+02  5.50754334470E+01  0.00000000000E+00  1.
        4    1    4    4  804    0  4.81338688282E+00 -3.94406981513E+01  2.11630095165E+01  4.50359407667E+01  1.27500000000E+00  0.00000000000E+00  1.
       -4    1    4    4    0  804 -1.07255170632E+01  1.41717237739E+01  1.02150717555E+01  2.05389334428E+01  1.27500000000E+00  0.00000000000E+00  1.
       11    1    5    5    0    0  1.55174134743E+01  2.11322862911E+01  1.01241075198E+01  2.81044693627E+01  5.11001072787E-04  0.00000000000E+00  1.
      -11    1    5    5    0    0 -9.60528329389E+00  4.13668808636E+00  7.98568911894E+01  8.05387901957E+01  5.11001267456E-04  0.00000000000E+00  1.
</event>
<event>
 9   0   4.1304619E-19   6.2497662E+01   7.8125000E-03   1.3829026E-01
       21   -1    0    0  501  502  0.00000000000E+00  0.00000000000E+00  1.93938779786E+03  1.93938779786E+03  0.00000000000E+00  0.00000000000E+00  1.
       21   -1    0    0  502  501  0.00000000000E+00  0.00000000000E+00 -2.01401586920E+00  2.01401586920E+00  0.00000000000E+00  0.00000000000E+00  1.
       25    2    1    2    0    0 -1.77635683940E-15  3.55271367880E-15  1.93737378199E+03  1.94140181373E+03  1.24995324735E+02  0.00000000000E+00  1.
       23    2    3    3    0    0 -6.99683010542E+00 -2.97561713699E+01  7.63036429246E+02  7.65376383733E+02  5.14006911810E+01  0.00000000000E+00  1.
       23    2    3    3    0    0  6.99683010542E+00  2.97561713699E+01  1.17433735275E+03  1.17602543000E+03  5.50745728947E+01  0.00000000000E+00  1.
        4    1    4    4  803    0 -1.36320264946E+00 -4.41888388483E+01  5.53897949705E+02  5.55660936284E+02  1.27500000006E+00  0.00000000000E+00  1.
       -4    1    4    4    0  803 -5.63362745595E+00  1.44326674785E+01  2.09138479542E+02  2.09715447449E+02  1.27500000003E+00  0.00000000000E+00  1.
        1    1    5    5  804    0  1.62824555578E+01  2.43629760622E+01  2.63429506113E+02  2.65054291996E+02  5.39479660939E-06  0.00000000000E+00  1.
       -1    1    5    5    0  804 -9.28562545242E+00  5.39319530762E+00  9.10907846634E+02  9.10971138202E+02  1.07895932188E-05  0.00000000000E+00  1.
</event>
<event>
 9   0   1.1626555E-04   6.2497662E+01   7.8125000E-03   1.3829026E-01
       21   -1    0    0  501  502  0.00000000000E+00  0.00000000000E+00  1.82937552133E+03  1.82937552133E+03  0.00000000000E+00  0.00000000000E+00  1.
       21   -1    0    0  502  501  0.00000000000E+00  0.00000000000E+00 -2.13513174581E+00  2.13513174581E+00  0.00000000000E+00  0.00000000000E+00  1.
       25    2    1    2    0    0  1.77635683940E-15 -3.55271367880E-15  1.82724038958E+03  1.83151065307E+03  1.24995323922E+02  0.00000000000E+00  1.
       23    2    3    3    0    0  5.08146904449E+00  2.17036080537E+01  1.02518110014E+03  1.02640944754E+03  4.49799731680E+01  0.00000000000E+00  1.
       23    2    3    3    0    0 -5.08146904449E+00 -2.17036080537E+01  8.02059289438E+02  8.05101205529E+02  6.62720109870E+01  0.00000000000E+00  1.
        3    1    4    4  803    0 -3.85629908373E+00 -1.34168339840E+01  2.83393543696E+02  2.83737172548E+02  6.60724947956E-06  0.00000000000E+00  1.
       -3    1    4    4    0  803  8.93776812822E+00  3.51204420376E+01  7.41787556446E+02  7.42672274995E+02  1.07895932188E-05  0.00000000000E+00  1.
        3    1    5    5  804    0 -1.94326951083E+01 -3.15312178890E+00  7.13658664801E+01  7.40314712095E+01  3.01578298585E-06  0.00000000000E+00  1.
       -3    1    5    5    0  804  1.43512260638E+01 -1.85504862648E+01  7.30693422958E+02  7.31069734419E+02  1.07895932188E-05  0.00000000000E+00  1.
</event>
<event>
 9   0   5.0127645E-05   6.2499018E+01   7.8125000E-03   1.3828975E-01
       21   -1    0    0  501  502  0.00000000000E+00  0.00000000000E+00  7.09052320765E+01  7.09052320765E+01  0.00000000000E+00  0.00000000000E+00  1.
       21   -1    0    0  502  501  0.00000000000E+00  0.00000000000E+00 -5.50894077587E+01  5.50894077587E+01  0.00000000000E+00  0.00000000000E+00  1.
       25    2    1    2    0    0  0.00000000000E+00 -7.10542735760E-15  1.58158243178E+01  1.25994639835E+02  1.24998035858E+02  0.00000000000E+00  1.
       23    2    3    3    0    0  6.89370221989E+00  2.81213832973E+01  2.31915594783E+01  6.65408213313E+01  5.52403579238E+01  0.00000000000E+00  1.
       23    2    3    3    0    0 -6.89370221989E+00 -2.81213832973E+01 -7.37573516054E+00  5.94538185038E+01  5.14005810928E+01  0.00000000000E+00  1.
        3    1    4    4  803    0  2.48054536734E+01 -4.39783637316E+00  8.06683093571E+00  2.64523205664E+01  0.00000000000E+00  0.00000000000E+00  1.
       -3    1    4    4    0  803 -1.79117514535E+01  3.25192196705E+01  1.51247285426E+01  4.00885008649E+01  0.00000000000E+00  0.00000000000E+00  1.
        3    1    5    5  804    0  8.41334534673E+00 -5.57393375682E+00 -2.50264498862E+01  2.69847421955E+01  0.00000000000E+00  0.00000000000E+00  1.
       -3    1    5    5    0  804 -1.53070475666E+01 -2.25474495405E+01  1.76507147257E+01  3.24690763083E+01  0.00000000000E+00  0.00000000000E+00  1.
</event>
<event>
 9   0   1.8992505E-12   6.2499017E+01   7.8125000E-03   1.3828975E-01
       21   -1    0    0  501  502  0.00000000000E+00  0.00000000000E+00  1.88805564655E+03  1.88805564655E+03  0.00000000000E+00  0.00000000000E+00  1.
       21   -1    0    0  502  501  0.00000000000E+00  0.00000000000E+00 -2.06886230433E+00  2.06886230433E+00  0.00000000000E+00  0.00000000000E+00  1.
       25    2    1    2    0    0  1.77635683940E-15  3.55271367880E-15  1.88598678425E+03  1.89012450886E+03  1.24998034475E+02  0.00000000000E+00  1.
       23    2    3    3    0    0 -6.36229579399E+00 -2.71455959171E+01  6.60343063696E+02  6.62926974077E+02  5.13989202410E+01  0.00000000000E+00  1.
       23    2    3    3    0    0  6.36229579399E+00  2.71455959171E+01  1.22564372055E+03  1.22719753478E+03  5.50808265675E+01  0.00000000000E+00  1.
        1    1    4    4  803    0 -8.74247700760E-01 -4.23244633130E+01  4.78112438275E+02  4.79982945673E+02  0.00000000000E+00  0.00000000000E+00  1.
       -1    1    4    4    0  803 -5.48804809323E+00  1.51788673959E+01  1.82230625421E+02  1.82944028504E+02  5.39479660939E-06  0.00000000000E+00  1.
        4    1    5    5  804    0  1.57816934411E+01  2.23886994444E+01  2.50589281634E+02  2.52085163002E+02  1.27499999997E+00  0.00000000000E+00  1.
       -4    1    5    5    0  804 -9.41939764716E+00  4.75689647274E+00  9.75054438920E+02  9.75112371780E+02  1.27499999986E+00  0.00000000000E+00  1.
</event>
<event>
 9   0   3.6447014E-10   6.2497663E+01   7.8125000E-03   1.3829026E-01
       21   -1    0    0  501  502  0.00000000000E+00  0.00000000000E+00  7.09184804062E+01  7.09184804062E+01  0.00000000000E+00  0.00000000000E+00  1.
       21   -1    0    0  502  501  0.00000000000E+00  0.00000000000E+00 -5.50767279227E+01  5.50767279227E+01  0.00000000000E+00  0.00000000000E+00  1.
       25    2    1    2    0    0 -5.32907051820E-15 -3.55271367880E-15  1.58417524835E+01  1.25995208329E+02  1.24995325513E+02  0.00000000000E+00  1.
       23    2    3    3    0    0  7.24121210983E+00  2.85388685697E+01  2.24955945922E+01  6.64102843476E+01  5.51123572260E+01  0.00000000000E+00  1.
       23    2    3    3    0    0 -7.24121210983E+00 -2.85388685697E+01 -6.65384210875E+00  5.95849239813E+01  5.13730218986E+01  0.00000000000E+00  1.
       12    1    4    4    0    0  6.10526543907E+00 -1.63541321995E+01  8.16558163188E+00  1.92719648575E+01  0.00000000000E+00  0.00000000000E+00  1.
      -12    1    4    4    0    0  1.13594667075E+00  4.48930007692E+01  1.43300129603E+01  4.71383194901E+01  0.00000000000E+00  0.00000000000E+00  1.
        4    1    5    5  803    0 -1.69677681777E+01 -9.01689133689E+00 -2.46493861911E+01  3.12798233837E+01  1.27500000000E+00  0.00000000000E+00  1.
       -4    1    5    5    0  803  9.72655606791E+00 -1.95219772328E+01  1.79955440824E+01  2.83051005976E+01  1.27500000000E+00  0.00000000000E+00  1.
</event>
<event>
 9   0   2.8977768E-10   6.2497668E+01   7.8125000E-03   1.3829026E-01
       21   -1    0    0  501  502  0.00000000000E+00  0.00000000000E+00  3.03711312826E+01  3.03711312826E+01  0.00000000000E+00  0.00000000000E+00  1.
       21   -1    0    0  502  501  0.00000000000E+00  0.00000000000E+00 -1.28607607745E+02  1.28607607745E+02  0.00000000000E+00  0.00000000000E+00  1.
       25    2    1    2    0    0  8.88178419700E-16 -3.55271367880E-15 -9.82364764629E+01  1.58978739028E+02  1.24995336533E+02  0.00000000000E+00  1.
       23    2    3    3    0    0 -4.51254826199E+00  2.43805900905E+01 -2.32360185469E+01  6.47485941656E+01  5.51152576292E+01  0.00000000000E+00  1.
       23    2    3    3    0    0  4.51254826199E+00 -2.43805900905E+01 -7.50004579160E+01  9.42301448625E+01  5.13758235770E+01  0.00000000000E+00  1.
        4    1    4    4  804    0  1.51885966143E+00 -1.77470171381E+01 -7.10127262551E+00  1.92176286225E+01  1.27500000000E+00  0.00000000000E+00  1.
       -4    1    4    4    0  804 -6.03140792343E+00  4.21276072285E+01 -1.61347459214E+01  4.55309655431E+01  1.27500000000E+00  0.00000000000E+00  1.
       11    1    5    5    0    0  1.44847466075E+01 -4.85984285757E+00 -7.01303013471E+01  7.17752403283E+01  5.10999487625E-04  0.00000000000E+00  1.
      -11    1    5    5    0    0 -9.97219834546E+00 -1.95207472329E+01 -4.87015656882E+00  2.24549045342E+01  5.11001107550E-04  0.00000000000E+00  1.
</event>
<event>
 9   0   6.2099078E-09   6.2497853E+01   7.8125000E-03   1.3829019E-01
       21   -1    0    0  501  502  0.00000000000E+00  0.00000000000E+00  9.27246239661E+02  9.27246239661E+02  0.00000000000E+00  0.00000000000E+00  1.
       21   -1    0    0  502  501  0.00000000000E+00  0.00000000000E+00 -4.21245352256E+00  4.21245352256E+00  0.00000000000E+00  0.00000000000E+00  1.
       25    2    1    2    0    0  2.66453525910E-15  3.55271367880E-15  9.23033786139E+02  9.31458693184E+02  1.24995706943E+02  0.00000000000E+00  1.
       23    2    3    3    0    0  5.06455874115E+00  2.15990953689E+01  6.52261210802E+02  6.54959171589E+02  5.50877359772E+01  0.00000000000E+00  1.
       23    2    3    3    0    0 -5.06455874115E+00 -2.15990953689E+01  2.70772575336E+02  2.76499521595E+02  5.14006538084E+01  0.00000000000E+00  1.
        2    1    4    4  804    0  5.32781603642E+00 -1.85179766470E+01  2.11525166981E+02  2.12401029538E+02  4.67203091199E-06  0.00000000000E+00  1.
       -2    1    4    4    0  804 -2.63257295269E-01  4.01170720158E+01  4.40736043822E+02  4.42558142151E+02  5.39479660939E-06  0.00000000000E+00  1.
       12    1    5    5    0    0 -1.29383526293E+01 -1.55858156605E+00  1.52008919561E+01  2.00224190727E+01  2.41380414144E-06  0.00000000000E+00  1.
      -12    1    5    5    0    0  7.87379388810E+00 -2.00405138028E+01  2.55571683380E+02  2.56477102622E+02  2.69739830470E-06  0.00000000000E+00  1.
</event>
<event>
 9   0   5.2215188E-16   6.2497672E+01   7.8125000E-03   1.3829026E-01
       21   -1    0    0  501  502  0.00000000000E+00  0.00000000000E+00  1.83634183758E+03  1.83634183758E+03  0.00000000000E+00  0.00000000000E+00  1.
       21   -1    0    0  502  501  0.00000000000E+00  0.00000000000E+00 -2.12703265844E+00  2.12703265844E+00  0.00000000000E+00  0.00000000000E+00  1.
       25    2    1    2    0    0  0.00000000000E+00 -7.10542735760E-15  1.83421480493E+03  1.83846887024E+03  1.24995344883E+02  0.00000000000E+00  1.
       23    2    3    3    0    0 -6.71405425862E+00 -2.86895971315E+01  6.84772233236E+02  6.87330495680E+02  5.14006553737E+01  0.00000000000E+00  1.
       23    2    3    3    0    0  6.71405425862E+00  2.86895971315E+01  1.14944257169E+03  1.15113837456E+03  5.50741343034E+01  0.00000000000E+00  1.
        3    1    4    4  804    0 -3.85834953366E+00 -4.37352099516E+01  4.98342667317E+02  5.00272994993E+02  9.34406182397E-06  0.00000000000E+00  1.
       -3    1    4    4    0  804 -2.85570472496E+00  1.50456128201E+01  1.86429565919E+02  1.87057500688E+02  7.13664510112E-06  0.00000000000E+00  1.
        5    1    5    5  803    0  1.60244231735E+01  2.34942901126E+01  2.55839374803E+02  2.57458952078E+02  4.74999999999E+00  0.00000000000E+00  1.
       -5    1    5    5    0  803 -9.31036891487E+00  5.19530701892E+00  8.93603196887E+02  8.93679422483E+02  4.74999999999E+00  0.00000000000E+00  1.
</event>
<event>
 9   0   1.3190768E-07   6.2497666E+01   7.8125000E-03   1.3829026E-01
       21   -1    0    0  501  502  0.00000000000E+00  0.00000000000E+00  1.45892769848E+02  1.45892769848E+02  0.00000000000E+00  0.00000000000E+00  1.
       21   -1    0    0  502  501  0.00000000000E+00  0.00000000000E+00 -2.67728021065E+01  2.67728021065E+01  0.00000000000E+00  0.00000000000E+00  1.
       25    2    1    2    0    0 -8.88178419700E-16  7.10542735760E-15  1.19119967741E+02  1.72665571954E+02  1.24995332007E+02  0.00000000000E+00  1.
       23    2    3    3    0    0  5.82271890657E+00  2.48745926609E+01  8.93002169494E+01  1.07989607470E+02  5.50869962775E+01  0.00000000000E+00  1.
       23    2    3    3    0    0 -5.82271890657E+00 -2.48745926609E+01  2.98197507917E+01  6.46759644837E+01  5.13917642147E+01  0.00000000000E+00  1.
       16    1    4    4    0    0  5.49048965484E+00 -1.19495709513E+01  5.85644823134E+01  6.00227982621E+01  0.00000000000E+00  0.00000000000E+00  1.
      -16    1    4    4    0    0  3.32229251734E-01  3.68241636122E+01  3.07357346360E+01  4.79668093083E+01  0.00000000000E+00  0.00000000000E+00  1.
        3    1    5    5  803    0  1.11214273366E+01 -1.11231815195E+01 -1.04425726287E+01  1.88801121878E+01  0.00000000000E+00  0.00000000000E+00  1.
       -3    1    5    5    0  803 -1.69441462432E+01 -1.37514111414E+01  4.02623234205E+01  4.57958523958E+01  0.00000000000E+00  0.00000000000E+00  1.
</event>
<event>
 9   0   3.1245554E-11   6.2499991E+01   7.8125000E-03   1.3828939E-01
       21   -1    0    0  501  502  0.00000000000E+00  0.00000000000E+00  9.53908434297E+02  9.53908434297E+02  0.00000000000E+00  0.00000000000E+00  1.
       21   -1    0    0  502  501  0.00000000000E+00  0.00000000000E+00 -4.09499357856E+00  4.09499357856E+00  0.00000000000E+00  0.00000000000E+00  1.
       25    2    1    2    0    0 -8.88178419700E-16  7.10542735760E-15  9.49813440718E+02  9.58003427875E+02  1.24999982608E+02  0.00000000000E+00  1.
       23    2    3    3    0    0 -5.75676731655E+00 -2.46200637145E+01  3.03845868927E+02  3.09198359859E+02  5.14006397627E+01  0.00000000000E+00  1.
       23    2    3    3    0    0  5.75676731655E+00  2.46200637145E+01  6.45967571791E+02  6.48805068016E+02  5.50874266152E+01  0.00000000000E+00  1.
        4    1    4    4  803    0 -4.15718254537E-01 -4.03689485427E+01  2.26698155434E+02  2.30268330715E+02  1.27500000000E+00  0.00000000000E+00  1.
       -4    1    4    4    0  803 -5.34104906201E+00  1.57488848281E+01  7.71477134932E+01  7.89300291438E+01  1.27500000000E+00  0.00000000000E+00  1.
        5    1    5    5  804    0  1.51130930660E+01  2.04972016916E+01  1.22179940630E+02  1.24896121843E+02  4.75000000000E+00  0.00000000000E+00  1.
       -5    1    5    5    0  804 -9.35632574944E+00  4.12286202290E+00  5.23787631161E+02  5.23908946173E+02  4.74999999999E+00  0.00000000000E+00  1.
</event>
<event>
 9   0   2.3954032E-10   6.2493177E+01   7.8125000E-03   1.3829193E-01
       21   -1    0    0  501  502  0.00000000000E+00  0.00000000000E+00  1.83872958805E+03  1.83872958805E+03  0.00000000000E+00  0.00000000000E+00  1.
       21   -1    0    0  502  501  0.00000000000E+00  0.00000000000E+00 -2.12396494454E+00  2.12396494454E+00  0.00000000000E+00  0.00000000000E+00  1.
       25    2    1    2    0    0  0.00000000000E+00 -3.55271367880E-15  1.83660562310E+03  1.84085355299E+03  1.24986354255E+02  0.00000000000E+00  1.
       23    2    3    3    0    0 -7.30527319497E+00 -3.12023446547E+01  6.25044077870E+02  6.27972192890E+02  5.14006073319E+01  0.00000000000E+00  1.
       23    2    3    3    0    0  7.30527319497E+00  3.12023446547E+01  1.21156154523E+03  1.21288136010E+03  4.66139728804E+01  0.00000000000E+00  1.
        5    1    4    4  804    0 -4.33591649420E+00 -4.51115546040E+01  4.75042999249E+02  4.77223497081E+02  4.75000000000E+00  0.00000000000E+00  1.
       -5    1    4    4    0  804 -2.96935670077E+00  1.39092099493E+01  1.50001078621E+02  1.50748695809E+02  4.75000000000E+00  0.00000000000E+00  1.
       15    1    5    5    0    0  1.42103570779E+01  2.26216780301E+01  2.85507624793E+02  2.86760240268E+02  1.77680000002E+00  0.00000000000E+00  1.
      -15    1    5    5    0    0 -6.90508388296E+00  8.58066662457E+00  9.26053920439E+02  9.26121119834E+02  1.77680000009E+00  0.00000000000E+00  1.
</event>
<event>
 9   0   4.8539565E-06   6.2497656E+01   7.8125000E-03   1.3829026E-01
       21   -1    0    0  501  502  0.00000000000E+00  0.00000000000E+00  9.37134847329E+02  9.37134847329E+02  0.00000000000E+00  0.00000000000E+00  1.
       21   -1    0    0  502  501  0.00000000000E+00  0.00000000000E+00 -4.16797752800E+00  4.16797752800E+00  0.00000000000E+00  0.00000000000E+00  1.
       25    2    1    2    0    0 -8.88178419700E-16  1.06581410364E-14  9.32966869801E+02  9.41302824857E+02  1.24995311662E+02  0.00000000000E+00  1.
       23    2    3    3    0    0  4.40000017202E+00  1.79163930292E+01  6.23111759056E+02  6.26674053096E+02  6.41229086235E+01  0.00000000000E+00  1.
       23    2    3    3    0    0 -4.40000017202E+00 -1.79163930292E+01  3.09855110745E+02  3.14628771760E+02  5.13879093153E+01  0.00000000000E+00  1.
        4    1    4    4  803    0  5.76736263603E+00 -2.39988526658E+01  2.43074657184E+02  2.44327898511E+02  1.27500000001E+00  0.00000000000E+00  1.
       -4    1    4    4    0  803 -1.36736246400E+00  4.19152456950E+01  3.80037101872E+02  3.82346154585E+02  1.27500000003E+00  0.00000000000E+00  1.
        4    1    5    5  804    0  1.19202698764E+01  1.02411344234E+00  1.76954541445E+01  2.13985131411E+01  1.27499999999E+00  0.00000000000E+00  1.
       -4    1    5    5    0  804 -1.63202700484E+01 -1.89405064715E+01  2.92159656601E+02  2.93230258619E+02  1.27499999999E+00  0.00000000000E+00  1.
</event>
<event>
 9   0   6.7984938E-08   6.2497672E+01   7.8125000E-03   1.3829026E-01
       21   -1    0    0  501  502  0.00000000000E+00  0.00000000000E+00  1.71768407339E+02  1.71768407339E+02  0.00000000000E+00  0.00000000000E+00  1.
       21   -1    0    0  502  501  0.00000000000E+00  0.00000000000E+00 -2.27396820111E+01  2.27396820111E+01  0.00000000000E+00  0.00000000000E+00  1.
       25    2    1    2    0    0  8.88178419700E-16 -7.10542735760E-15  1.49028725328E+02  1.94508089351E+02  1.24995343312E+02  0.00000000000E+00  1.
       23    2    3    3    0    0  6.21394046257E+00  2.65292785822E+01  1.03258584807E+02  1.20485396287E+02  5.57851208125E+01  0.00000000000E+00  1.
       23    2    3    3    0    0 -6.21394046257E+00 -2.65292785822E+01  4.57701405219E+01  7.40226930634E+01  5.14007553135E+01  0.00000000000E+00  1.
        1    1    4    4  804    0  5.77259986998E+00 -1.72330814871E+01  3.41466749882E+01  3.86820039202E+01  0.00000000000E+00  0.00000000000E+00  1.
       -1    1    4    4    0  804  4.41340592592E-01  4.37623600693E+01  6.91119098184E+01  8.18033925669E+01  1.90734863281E-06  0.00000000000E+00  1.
        3    1    5    5  803    0 -1.34043986329E+01 -3.50706613666E+00 -7.34927892228E+00  1.56840466529E+01  1.10550147241E-06  0.00000000000E+00  1.
       -3    1    5    5    0  803  7.19045817035E+00 -2.30222124455E+01  5.31194194442E+01  5.83386465105E+01  0.00000000000E+00  0.00000000000E+00  1.
</event>
<event>
 9   0   6.7292177E-13   6.2499973E+01   7.8125000E-03   1.3828940E-01
       21   -1    0    0  501  502  0.00000000000E+00  0.00000000000E+00  1.93543497201E+03  1.93543497201E+03  0.00000000000E+00  0.00000000000E+00  1.
       21   -1    0    0  502  501  0.00000000000E+00  0.00000000000E+00 -2.01827844552E+00  2.01827844552E+00  0.00000000000E+00  0.00000000000E+00  1.
       25    2    1    2    0    0 -8.88178419700E-16  7.10542735760E-15  1.93341669356E+03  1.93745325045E+03  1.24999946987E+02  0.00000000000E+00  1.
       23    2    3    3    0    0 -6.72047537734E+00 -2.86739983809E+01  7.21311453843E+02  7.23738150857E+02  5.13744546282E+01  0.00000000000E+00  1.
       23    2    3    3    0    0  6.72047537734E+00  2.86739983809E+01  1.21210523972E+03  1.21371509959E+03  5.51168564123E+01  0.00000000000E+00  1.
        5    1    4    4  803    0 -1.22890978012E+00 -3.83417993462E+01  6.65992129481E+02  6.67112946080E+02  4.74999999999E+00  0.00000000000E+00  1.
       -5    1    4    4    0  803 -5.49156559723E+00  9.66780096531E+00  5.53193243618E+01  5.66252047772E+01  4.75000000000E+00  0.00000000000E+00  1.
        3    1    5    5  804    0  1.60849442406E+01  2.34885347035E+01  2.60716541556E+02  2.62266184886E+02  0.00000000000E+00  0.00000000000E+00  1.
       -3    1    5    5    0  804 -9.36446886324E+00  5.18546367731E+00  9.51388698162E+02  9.51448914809E+02  1.07895932188E-05  0.00000000000E+00  1.
</event>
<event>
 9   0   2.7061747E-07   6.2499996E+01   7.8125000E-03   1.3828939E-01
       21   -1    0    0  501  502  0.00000000000E+00  0.00000000000E+00  1.04969373872E+02  1.04969373872E+02  0.00000000000E+00  0.00000000000E+00  1.
       21   -1    0    0  502  501  0.00000000000E+00  0.00000000000E+00 -3.72132298744E+01  3.72132298744E+01  0.00000000000E+00  0.00000000000E+00  1.
       25    2    1    2    0    0 -2.66453525910E-15  1.06581410364E-14  6.77561439980E+01  1.42182603747E+02  1.24999991035E+02  0.00000000000E+00  1.
       23    2    3    3    0    0 -5.66116917115E+00 -2.41370945184E+01  8.73670092944E+00  5.77343026508E+01  5.14030309541E+01  0.00000000000E+00  1.
       23    2    3    3    0    0  5.66116917115E+00  2.41370945184E+01  5.90194430686E+01  8.44483010961E+01  5.50778787692E+01  0.00000000000E+00  1.
        5    1    4    4  803    0 -4.29479178958E-01 -3.96946097889E+01  5.88786625612E+00  4.04113346440E+01  4.75000000000E+00  0.00000000000E+00  1.
       -5    1    4    4    0  803 -5.23168999219E+00  1.55575152705E+01  2.84883467332E+00  1.73229680068E+01  4.75000000000E+00  0.00000000000E+00  1.
        4    1    5    5  804    0  2.83285446351E+01  1.40602312333E+01  1.77731242595E+01  3.63002219611E+01  1.27500000000E+00  0.00000000000E+00  1.
       -4    1    5    5    0  804 -2.26673754640E+01  1.00768632851E+01  4.12463188091E+01  4.81480791350E+01  1.27500000000E+00  0.00000000000E+00  1.
</event>
<event>
 9   0   1.8526398E-09   6.2497655E+01   7.8125000E-03   1.3829026E-01
       21   -1    0    0  501  502  0.00000000000E+00  0.00000000000E+00  1.58546370750E+02  1.58546370750E+02  0.00000000000E+00  0.00000000000E+00  1.
       21   -1    0    0  502  501  0.00000000000E+00  0.00000000000E+00 -2.46360532617E+01  2.46360532617E+01  0.00000000000E+00  0.00000000000E+00  1.
       25    2    1    2    0    0 -7.10542735760E-15  0.00000000000E+00  1.33910317488E+02  1.83182424012E+02  1.24995309260E+02  0.00000000000E+00  1.
       23    2    3    3    0    0  4.97651591246E+00 -2.67792988160E+01  3.86936266627E+01  6.98462981810E+01  5.13752087059E+01  0.00000000000E+00  1.
       23    2    3    3    0    0 -4.97651591246E+00  2.67792988160E+01  9.52166908257E+01  1.13336125831E+02  5.51086440662E+01  0.00000000000E+00  1.
       16    1    4    4    0    0  2.79834601970E+01 -1.87754001166E+01  2.05206619516E+01  3.94548762647E+01  0.00000000000E+00  0.00000000000E+00  1.
      -16    1    4    4    0    0 -2.30069442845E+01 -8.00389869942E+00  1.81729647111E+01  3.03914220163E+01  0.00000000000E+00  0.00000000000E+00  1.
       12    1    5    5    0    0  1.03803054663E+01  2.15112077834E+01  8.87352567777E+00  2.54798402630E+01  0.00000000000E+00  0.00000000000E+00  1.
      -12    1    5    5    0    0 -1.53568213787E+01  5.26809103258E+00  8.63431651479E+01  8.78562856677E+01  0.00000000000E+00  0.00000000000E+00  1.
</event>
<event>
 9   0   5.7451416E-10   6.2497658E+01   7.8125000E-03   1.3829026E-01
       21   -1    0    0  501  502  0.00000000000E+00  0.00000000000E+00  1.47586884386E+02  1.47586884386E+02  0.00000000000E+00  0.00000000000E+00  1.
       21   -1    0    0  502  501  0.00000000000E+00  0.00000000000E+00 -2.64654771397E+01  2.64654771397E+01  0.00000000000E+00  0.00000000000E+00  1.
       25    2    1    2    0    0 -1.77635683940E-15 -3.55271367880E-15  1.21121407246E+02  1.74052361525E+02  1.24995316950E+02  0.00000000000E+00  1.
       23    2    3    3    0    0  5.31134843940E+00  2.26927035658E+01  8.45143185030E+01  1.06773590713E+02  6.09488344788E+01  0.00000000000E+00  1.
       23    2    3    3    0    0 -5.31134843940E+00 -2.26927035658E+01  3.66070887431E+01  6.72787708126E+01  5.14119133902E+01  0.00000000000E+00  1.
        1    1    4    4  804    0  5.79603096364E+00 -2.08432661586E+01  2.55997421843E+01  3.35168990062E+01  0.00000000000E+00  0.00000000000E+00  1.
       -1    1    4    4    0  804 -4.84682524242E-01  4.35359697244E+01  5.89145763186E+01  7.32566918066E+01  0.00000000000E+00  0.00000000000E+00  1.
        5    1    5    5  803    0  8.93062383864E+00 -3.20381780004E+00 -9.99820516870E+00  1.45789950696E+01  4.75000000000E+00  0.00000000000E+00  1.
       -5    1    5    5    0  803 -1.42419722780E+01 -1.94888857658E+01  4.66052939118E+01  5.26997757430E+01  4.75000000000E+00  0.00000000000E+00  1.
</event>
<event>
 9   0   1.2185679E-08   6.2500532E+01   7.8125000E-03   1.3828919E-01
       21   -1    0    0  501  502  0.00000000000E+00  0.00000000000E+00  1.45345162654E+02  1.45345162654E+02  0.00000000000E+00  0.00000000000E+00  1.
       21   -1    0    0  502  501  0.00000000000E+00  0.00000000000E+00 -2.68761371571E+01  2.68761371571E+01  0.00000000000E+00  0.00000000000E+00  1.
       25    2    1    2    0    0  0.00000000000E+00  3.55271367880E-15  1.18469025497E+02  1.72221299811E+02  1.25001064421E+02  0.00000000000E+00  1.
       23    2    3    3    0    0  7.27338226049E+00 -2.85563660718E+01  3.81489962445E+01  7.04678841924E+01  5.14004732989E+01  0.00000000000E+00  1.
       23    2    3    3    0    0 -7.27338226049E+00  2.85563660718E+01  8.03200292525E+01  1.01753415619E+02  5.50825050107E+01  0.00000000000E+00  1.
       11    1    4    4    0    0 -1.11073409074E+01 -3.72375583897E+01  2.65639939172E+01  4.70707398492E+01  5.10999821343E-04  0.00000000000E+00  1.
      -11    1    4    4    0    0  1.83807231678E+01  8.68119231783E+00  1.15850023273E+01  2.33971443432E+01  5.10999849153E-04  0.00000000000E+00  1.
       15    1    5    5    0    0  1.21474257026E+01  1.50494053001E+01  1.54397755394E+00  1.94829524460E+01  1.77680000000E+00  0.00000000000E+00  1.
      -15    1    5    5    0    0 -1.94208079631E+01  1.35069607717E+01  7.87760516986E+01  8.22704631729E+01  1.77680000000E+00  0.00000000000E+00  1.
</event>
<event>
 9   0   2.0231282E-04   6.2500090E+01   7.8125000E-03   1.3828935E-01
       21   -1    0    0  501  502  0.00000000000E+00  0.00000000000E+00  1.83093362858E+03  1.83093362858E+03  0.00000000000E+00  0.00000000000E+00  1.
       21   -1    0    0  502  501  0.00000000000E+00  0.00000000000E+00 -2.13348051104E+00  2.13348051104E+00  0.00000000000E+00  0.00000000000E+00  1.
       25    2    1    2    0    0 -1.77635683940E-15 -3.55271367880E-15  1.82880014807E+03  1.83306710909E+03  1.25000179417E+02  0.00000000000E+00  1.
       23    2    3    3    0    0 -4.80888536916E+00 -1.91546479328E+01  1.44939938329E+03  1.45044536524E+03  5.14116653855E+01  0.00000000000E+00  1.
       23    2    3    3    0    0  4.80888536916E+00  1.91546479328E+01  3.79400764772E+02  3.82621743847E+02  4.54360279923E+01  0.00000000000E+00  1.
        5    1    4    4  803    0  2.96433744138E-01 -3.58858596969E+01  8.46768539299E+02  8.47541977985E+02  4.75000000002E+00  0.00000000000E+00  1.
       -5    1    4    4    0  803 -5.10531911330E+00  1.67312117641E+01  6.02630843995E+02  6.02903387256E+02  4.74999999999E+00  0.00000000000E+00  1.
        4    1    5    5  804    0  1.37006894290E+01  2.03670664859E+01  9.66753299301E+01  9.97510467623E+01  1.27499999999E+00  0.00000000000E+00  1.
       -4    1    5    5    0  804 -8.89180405984E+00 -1.21241855317E+00  2.82725434841E+02  2.82870697085E+02  1.27500000000E+00  0.00000000000E+00  1.
</event>
<event>
 9   0   7.3315219E-11   6.2495420E+01   7.8125000E-03   1.3829110E-01
       21   -1    0    0  501  502  0.00000000000E+00  0.00000000000E+00  1.19982954819E+02  1.19982954819E+02  0.00000000000E+00  0.00000000000E+00  1.
       21   -1    0    0  502  501  0.00000000000E+00  0.00000000000E+00 -3.25519363025E+01  3.25519363025E+01  0.00000000000E+00  0.00000000000E+00  1.
       25    2    1    2    0    0  0.00000000000E+00 -3.55271367880E-15  8.74310185169E+01  1.52534891122E+02  1.24990839707E+02  0.00000000000E+00  1.
       23    2    3    3    0    0 -7.21160065282E+00 -2.85717682550E+01  2.52565709593E+01  6.44069880873E+01  5.14005117939E+01  0.00000000000E+00  1.
       23    2    3    3    0    0  7.21160065282E+00  2.85717682550E+01  6.21744475576E+01  8.81279030345E+01  5.50682507346E+01  0.00000000000E+00  1.
        4    1    4    4  804    0 -2.70291764942E+00 -4.34269372713E+01  2.05373801464E+01  4.81312191084E+01  1.27500000000E+00  0.00000000000E+00  1.
       -4    1    4    4    0  804 -4.50868300340E+00  1.48551690163E+01  4.71919081292E+00  1.62757689790E+01  1.27500000000E+00  0.00000000000E+00  1.
       12    1    5    5    0    0  1.63175319416E+01  2.34851312717E+01  3.82331123157E+00  2.88518794585E+01  1.27420177021E-06  0.00000000000E+00  1.
      -12    1    5    5    0    0 -9.10593128880E+00  5.08663698322E+00  5.83511363260E+01  5.92760235759E+01  1.34869915235E-06  0.00000000000E+00  1.
</event>
<event>
 9   0   1.0271363E-14   6.2497659E+01   7.8125000E-03   1.3829026E-01
       21   -1    0    0  501  502  0.00000000000E+00  0.00000000000E+00  9.85991685510E+01  9.85991685510E+01  0.00000000000E+00  0.00000000000E+00  1.
       21   -1    0    0  502  501  0.00000000000E+00  0.00000000000E+00 -3.96145063034E+01  3.96145063034E+01  0.00000000000E+00  0.00000000000E+00  1.
       25    2    1    2    0    0  8.88178419700E-16  0.00000000000E+00  5.89846622476E+01  1.38213674854E+02  1.24995318057E+02  0.00000000000E+00  1.
       23    2    3    3    0    0 -6.08266051572E+00 -2.59723472566E+01  7.79565732505E+00  5.84324449062E+01  5.14005521724E+01  0.00000000000E+00  1.
       23    2    3    3    0    0  6.08266051572E+00  2.59723472566E+01  5.11890049226E+01  7.97812299482E+01  5.50742121697E+01  0.00000000000E+00  1.
        3    1    4    4  804    0 -2.70431122589E+00 -4.17181551805E+01  5.70022744868E+00  4.21925392963E+01  0.00000000000E+00  0.00000000000E+00  1.
       -3    1    4    4    0  804 -3.37834928983E+00  1.57458079239E+01  2.09542987637E+00  1.62399058099E+01  1.10228312069E-06  0.00000000000E+00  1.
        2    1    5    5  803    0 -5.44666672337E+00  2.55931795728E+01 -1.14459298357E+00  2.61913557759E+01  0.00000000000E+00  0.00000000000E+00  1.
       -2    1    5    5    0  803  1.15293272391E+01  3.79167683772E-01  5.23335979061E+01  5.35898743723E+01  0.00000000000E+00  0.00000000000E+00  1.
</event>
<event>
 9   0   2.9644390E-07   6.2497671E+01   7.8125000E-03   1.3829026E-01
       21   -1    0    0  501  502  0.00000000000E+00  0.00000000000E+00  4.26295279469E+01  4.26295279469E+01  0.00000000000E+00  0.00000000000E+00  1.
       21   -1    0    0  502  501  0.00000000000E+00  0.00000000000E+00 -9.16256649580E+01  9.16256649580E+01  0.00000000000E+00  0.00000000000E+00  1.
       25    2    1    2    0    0  0.00000000000E+00 -3.55271367880E-15 -4.89961370111E+01  1.34255192905E+02  1.24995341433E+02  0.00000000000E+00  1.
       23    2    3    3    0    0 -6.97806906043E+00 -2.88196519857E+01 -3.87152181473E+01  7.08323519279E+01  5.13720563640E+01  0.00000000000E+00  1.
       23    2    3    3    0    0  6.97806906043E+00  2.88196519857E+01 -1.02809188638E+01  6.34228409770E+01  5.51134618448E+01  0.00000000000E+00  1.
        1    1    4    4  804    0 -1.30947716683E+00 -4.35286920324E+01 -2.87788954760E+01  5.21985304900E+01  0.00000000000E+00  0.00000000000E+00  1.
       -1    1    4    4    0  804 -5.66859189360E+00  1.47090400467E+01 -9.93632267129E+00  1.86338214379E+01  0.00000000000E+00  0.00000000000E+00  1.
        5    1    5    5  803    0 -1.23025879546E+01  1.30251013733E+01 -2.72081609152E+01  3.29219297210E+01  4.75000000000E+00  0.00000000000E+00  1.
       -5    1    5    5    0  803  1.92806570151E+01  1.57945506124E+01  1.69272420514E+01  3.05009112560E+01  4.75000000000E+00  0.00000000000E+00  1.
</event>
<event>
 9   0   7.3525370E-08   6.2497872E+01   7.8125000E-03   1.3829018E-01
       21   -1    0    0  501  502  0.00000000000E+00  0.00000000000E+00  1.47485350769E+02  1.47485350769E+02  0.00000000000E+00  0.00000000000E+00  1.
       21   -1    0    0  502  501  0.00000000000E+00  0.00000000000E+00 -2.64838780222E+01  2.64838780222E+01  0.00000000000E+00  0.00000000000E+00  1.
       25    2    1    2    0    0 -2.66453525910E-15  1.06581410364E-14  1.21001472747E+02  1.73969228792E+02  1.24995744565E+02  0.00000000000E+00  1.
       23    2    3    3    0    0  7.65996487156E+00 -2.84480355664E+01  3.91684226899E+01  7.10173527649E+01  5.13939030265E+01  0.00000000000E+00  1.
       23    2    3    3    0    0 -7.65996487156E+00  2.84480355664E+01  8.18330500572E+01  1.02951876027E+02  5.50860681691E+01  0.00000000000E+00  1.
        4    1    4    4  804    0 -1.67266512990E+00 -4.23097112962E+01  3.00534099327E+01  5.19397973830E+01  1.27500000000E+00  0.00000000000E+00  1.
       -4    1    4    4    0  804  9.33263000146E+00  1.38616757299E+01  9.11501275721E+00  1.90775553819E+01  1.27500000000E+00  0.00000000000E+00  1.
        1    1    5    5  803    0  9.05961170688E+00  2.25946331292E+01  5.99255585143E+00  2.50699968323E+01  1.13091861969E-06  0.00000000000E+00  1.
       -1    1    5    5    0  803 -1.67195765784E+01  5.85340243718E+00  7.58404942058E+01  7.78818793944E+01  1.34869915235E-06  0.00000000000E+00  1.
</event>
<event>
 9   0   2.8798697E-09   6.2497240E+01   7.8125000E-03   1.3829042E-01
       21   -1    0    0  501  502  0.00000000000E+00  0.00000000000E+00  1.63251156212E+02  1.63251156212E+02  0.00000000000E+00  0.00000000000E+00  1.
       21   -1    0    0  502  501  0.00000000000E+00  0.00000000000E+00 -2.39257419931E+01  2.39257419931E+01  0.00000000000E+00  0.00000000000E+00  1.
       25    2    1    2    0    0 -1.77635683940E-15 -3.55271367880E-15  1.39325414219E+02  1.87176898206E+02  1.24994480576E+02  0.00000000000E+00  1.
       23    2    3    3    0    0 -5.53334658227E+00 -2.36138304962E+01  3.50410811893E+01  6.67691368252E+01  5.14004800207E+01  0.00000000000E+00  1.
       23    2    3    3    0    0  5.53334658227E+00  2.36138304962E+01  1.04284333030E+02  1.20407761380E+02  5.50869854867E+01  0.00000000000E+00  1.
       12    1    4    4    0    0 -1.99903664008E+00 -4.00095452005E+01  2.43644384869E+01  4.68869461303E+01  0.00000000000E+00  0.00000000000E+00  1.
      -12    1    4    4    0    0 -3.53430994220E+00  1.63957147043E+01  1.06766427024E+01  1.98821906949E+01  0.00000000000E+00  0.00000000000E+00  1.
       15    1    5    5    0    0  1.52619670061E+01  2.00948426827E+01  1.28497013059E+01  2.83725603573E+01  1.77680000000E+00  0.00000000000E+00  1.
      -15    1    5    5    0    0 -9.72862042383E+00  3.51898781346E+00  9.14346317242E+01  9.20352010231E+01  1.77680000000E+00  0.00000000000E+00  1.
</event>
<event>
 9   0   1.1742288E-13   6.2497763E+01   7.8125000E-03   1.3829022E-01
       21   -1    0    0  501  502  0.00000000000E+00  0.00000000000E+00  1.49973930124E+02  1.49973930124E+02  0.00000000000E+00  0.00000000000E+00  1.
       21   -1    0    0  502  501  0.00000000000E+00  0.00000000000E+00 -2.60443290902E+01  2.60443290902E+01  0.00000000000E+00  0.00000000000E+00  1.
       25    2    1    2    0    0 -1.77635683940E-15  7.10542735760E-15  1.23929601034E+02  1.76018259215E+02  1.24995526178E+02  0.00000000000E+00  1.
       23    2    3    3    0    0 -5.11316824672E+00 -2.18098545272E+01  7.62822348563E+01  1.19251073401E+02  8.88820842949E+01  0.00000000000E+00  1.
       23    2    3    3    0    0  5.11316824672E+00  2.18098545272E+01  4.76473661778E+01  5.67671858136E+01  2.12232805545E+01  0.00000000000E+00  1.
       11    1    4    4    0    0  2.46558636065E+00 -5.62862344663E+01  4.81594192640E+01  7.41184792788E+01  5.11000377541E-04  0.00000000000E+00  1.
      -11    1    4    4    0    0 -7.57875460736E+00  3.44763799391E+01  2.81228155923E+01  4.51325941222E+01  5.10997485306E-04  0.00000000000E+00  1.
        5    1    5    5  804    0  7.69646458069E+00  1.07205008974E+01  1.02077255851E+01  1.73471861740E+01  4.75000000000E+00  0.00000000000E+00  1.
       -5    1    5    5    0  804 -2.58329633398E+00  1.10893536298E+01  3.74396405927E+01  3.94199996396E+01  4.75000000000E+00  0.00000000000E+00  1.
</event>
<event>
 9   0   7.1784911E-14   6.2497786E+01   7.8125000E-03   1.3829021E-01
       21   -1    0    0  501  502  0.00000000000E+00  0.00000000000E+00  2.64119982755E+01  2.64119982755E+01  0.00000000000E+00  0.00000000000E+00  1.
       21   -1    0    0  502  501  0.00000000000E+00  0.00000000000E+00 -1.47886322853E+02  1.47886322853E+02  0.00000000000E+00  0.00000000000E+00  1.
       25    2    1    2    0    0  3.55271367880E-15  0.00000000000E+00 -1.21474324577E+02  1.74298321128E+02  1.24995572788E+02  0.00000000000E+00  1.
       23    2    3    3    0    0  6.51839423587E+00  2.87233595050E+01 -4.23852888968E+01  7.54822086109E+01  5.50774932005E+01  0.00000000000E+00  1.
       23    2    3    3    0    0 -6.51839423587E+00 -2.87233595050E+01 -7.90890356804E+01  9.88161125172E+01  5.14006583954E+01  0.00000000000E+00  1.
        2    1    5    5  804    0 -9.91929097718E-01 -4.34759388993E+01 -5.82264233622E+01  7.26736373389E+01  2.13248059988E-06  0.00000000000E+00  1.
       -2    1    4    4    0  803 -9.44545823960E+00  5.21432008345E+00  1.07468074454E+01  1.52282528728E+01  2.06132131407E-06  0.00000000000E+00  1.
        2    1    4    4  803    0  1.59638524755E+01  2.35090394215E+01 -5.31320963422E+01  6.02539557381E+01  0.00000000000E+00  0.00000000000E+00  1.
       -2    1    5    5    0  804 -5.52646513815E+00  1.47525793943E+01 -2.08626123182E+01  2.61424752783E+01  0.00000000000E+00  0.00000000000E+00  1.
</event>
<event>
 9   0   4.8088530E-11   6.2497665E+01   7.8125000E-03   1.3829026E-01
       21   -1    0    0  501  502  0.00000000000E+00  0.00000000000E+00  1.88575597742E+03  1.88575597742E+03  0.00000000000E+00  0.00000000000E+00  1.
       21   -1    0    0  502  501  0.00000000000E+00  0.00000000000E+00 -2.07129562499E+00  2.07129562499E+00  0.00000000000E+00  0.00000000000E+00  1.
       25    2    1    2    0    0 -3.55271367880E-15  0.00000000000E+00  1.88368468179E+03  1.88782727304E+03  1.24995329606E+02  0.00000000000E+00  1.
       23    2    3    3    0    0  6.43511140469E+00 -2.50629393488E+01  6.15886098168E+02  6.18568718293E+02  5.14005033764E+01  0.00000000000E+00  1.
       23    2    3    3    0    0 -6.43511140469E+00  2.50629393488E+01  1.26779858363E+03  1.26925855475E+03  5.50860107016E+01  0.00000000000E+00  1.
        5    1    4    4  804    0 -1.10604970608E+01 -3.48365776623E+01  4.11679274812E+02  4.13325912021E+02  4.75000000000E+00  0.00000000000E+00  1.
       -5    1    4    4    0  804  1.74956084655E+01  9.77363831350E+00  2.04206823356E+02  2.05242806272E+02  4.75000000000E+00  0.00000000000E+00  1.
       15    1    5    5    0    0  9.90866889268E+00  2.05376628984E+01  1.96861539469E+02  1.98185771580E+02  1.77680000013E+00  0.00000000000E+00  1.
      -15    1    5    5    0    0 -1.63437802974E+01  4.52527645040E+00  1.07093704416E+03  1.07107278317E+03  1.77680000015E+00  0.00000000000E+00  1.
</event>
<event>
 9   0   1.4760463E-19   6.2497662E+01   7.8125000E-03   1.3829026E-01
       21   -1    0    0  501  502  0.00000000000E+00  0.00000000000E+00  1.93925926760E+03  1.93925926760E+03  0.00000000000E+00  0.00000000000E+00  1.
       21   -1    0    0  502  501  0.00000000000E+00  0.00000000000E+00 -2.01414935269E+00  2.01414935269E+00  0.00000000000E+00  0.00000000000E+00  1.
       25    2    1    2    0    0  0.00000000000E+00  7.10542735760E-15  1.93724511825E+03  1.94127341696E+03  1.24995324689E+02  0.00000000000E+00  1.
       23    2    3    3    0    0 -6.54005146588E+00 -2.79442729091E+01  7.00223584420E+02  7.02693915227E+02  5.14005414202E+01  0.00000000000E+00  1.
       23    2    3    3    0    0  6.54005146588E+00  2.79442729091E+01  1.23702153383E+03  1.23857950173E+03  5.50749696284E+01  0.00000000000E+00  1.
        3    1    4    4  804    0 -1.03117822901E+00 -4.29093035784E+01  5.08325665358E+02  5.10134544727E+02  9.34406182397E-06  0.00000000000E+00  1.
       -3    1    4    4    0  804 -5.50887323687E+00  1.49650306693E+01  1.91897919062E+02  1.92559370500E+02  3.81469726562E-06  0.00000000000E+00  1.
        5    1    5    5  803    0  1.83002823731E+01  1.51294389055E+01  2.08728848439E+02  2.10128757973E+02  4.75000000003E+00  0.00000000000E+00  1.
       -5    1    5    5    0  803 -1.17602309072E+01  1.28148340036E+01  1.02829268539E+03  1.02845074376E+03  4.74999999998E+00  0.00000000000E+00  1.
</event>
<event>
 9   0   1.7152593E-15   6.2497641E+01   7.8125000E-03   1.3829027E-01
       21   -1    0    0  501  502  0.00000000000E+00  0.00000000000E+00  5.33277271712E+01  5.33277271712E+01  0.00000000000E+00  0.00000000000E+00  1.
       21   -1    0    0  502  501  0.00000000000E+00  0.00000000000E+00 -7.32443582501E+01  7.32443582501E+01  0.00000000000E+00  0.00000000000E+00  1.
       25    2    1    2    0    0 -1.77635683940E-15  0.00000000000E+00 -1.99166310789E+01  1.26572085421E+02  1.24995282368E+02  0.00000000000E+00  1.
       23    2    3    3    0    0  6.01879846625E+00  2.57383154674E+01  9.32664700520E+00  6.17964193607E+01  5.50738075982E+01  0.00000000000E+00  1.
       23    2    3    3    0    0 -6.01879846625E+00 -2.57383154674E+01 -2.92432780841E+01  6.47756660606E+01  5.14006885402E+01  0.00000000000E+00  1.
        3    1    4    4  803    0  5.65438998863E+00 -1.72184644009E+01  2.33727376656E+00  1.82732179646E+01  0.00000000000E+00  0.00000000000E+00  1.
       -3    1    4    4    0  803  3.64408477615E-01  4.29567798683E+01  6.98937323864E+00  4.35232014960E+01  0.00000000000E+00  0.00000000000E+00  1.
        1    1    5    5  804    0  8.70472084630E+00 -4.94648994233E+00 -3.68510788835E+01  3.81869342875E+01  0.00000000000E+00  0.00000000000E+00  1.
       -1    1    5    5    0  804 -1.47235193125E+01 -2.07918255251E+01  7.60780079942E+00  2.65887318730E+01  0.00000000000E+00  0.00000000000E+00  1.
</event>
<event>
 9   0   4.8202412E-07   6.2499992E+01   7.8125000E-03   1.3828939E-01
       21   -1    0    0  501  502  0.00000000000E+00  0.00000000000E+00  1.48994383440E+02  1.48994383440E+02  0.00000000000E+00  0.00000000000E+00  1.
       21   -1    0    0  502  501  0.00000000000E+00  0.00000000000E+00 -2.62174248511E+01  2.62174248511E+01  0.00000000000E+00  0.00000000000E+00  1.
       25    2    1    2    0    0  8.88178419700E-16 -7.10542735760E-15  1.22776958589E+02  1.75211808291E+02  1.24999984817E+02  0.00000000000E+00  1.
       23    2    3    3    0    0 -6.72589105050E+00 -2.86841706960E+01  3.98904796693E+01  7.14232932977E+01  5.14005564007E+01  0.00000000000E+00  1.
       23    2    3    3    0    0  6.72589105050E+00  2.86841706960E+01  8.28864789198E+01  1.03788514993E+02  5.50805609801E+01  0.00000000000E+00  1.
       16    1    4    4    0    0 -3.89403240529E+00 -4.37410639904E+01  2.89772347060E+01  5.26129670195E+01  0.00000000000E+00  0.00000000000E+00  1.
      -16    1    4    4    0    0 -2.83185864521E+00  1.50568932944E+01  1.09132449632E+01  1.88103262782E+01  1.01852461640E-06  0.00000000000E+00  1.
       16    1    5    5    0    0  6.64081155359E+00  1.30280595252E+01 -4.27265221719E+00  1.52343780017E+01  1.85637611179E-06  0.00000000000E+00  1.
      -16    1    5    5    0    0  8.50794969147E-02  1.56561111708E+01  8.71591311370E+01  8.85541370917E+01  0.00000000000E+00  0.00000000000E+00  1.
</event>
<event>
 9   0   1.3453756E-05   6.2497659E+01   7.8125000E-03   1.3829026E-01
       21   -1    0    0  501  502  0.00000000000E+00  0.00000000000E+00  1.75136737254E+03  1.75136737254E+03  0.00000000000E+00  0.00000000000E+00  1.
       21   -1    0    0  502  501  0.00000000000E+00  0.00000000000E+00 -2.23023306565E+00  2.23023306565E+00  0.00000000000E+00  0.00000000000E+00  1.
       25    2    1    2    0    0  1.77635683940E-15 -3.55271367880E-15  1.74913713948E+03  1.75359760561E+03  1.24995318702E+02  0.00000000000E+00  1.
       23    2    3    3    0    0 -4.62710697050E+00 -1.97770648604E+01  1.36772899217E+03  1.36931735564E+03  6.27286378767E+01  0.00000000000E+00  1.
       23    2    3    3    0    0  4.62710697050E+00  1.97770648604E+01  3.81408147304E+02  3.84280249969E+02  4.22681117781E+01  0.00000000000E+00  1.
        1    1    4    4  804    0  6.64556634117E-01 -3.85704627092E+01  1.16787857333E+03  1.16851550450E+03  1.52587890625E-05  0.00000000000E+00  1.
       -1    1    4    4    0  804 -5.29166360461E+00  1.87933978488E+01  1.99850418844E+02  2.00801851133E+02  0.00000000000E+00  0.00000000000E+00  1.
       11    1    5    5    0    0  1.27659140545E+01  2.00232107130E+01  1.01004535917E+02  1.03758439681E+02  5.11002157370E-04  0.00000000000E+00  1.
      -11    1    5    5    0    0 -8.13880708402E+00 -2.46145852610E-01  2.80403611387E+02  2.80521810288E+02  5.10998597706E-04  0.00000000000E+00  1.
</event>
<event>
 9   0   1.3457228E-09   6.2495496E+01   7.8125000E-03   1.3829107E-01
       21   -1    0    0  501  502  0.00000000000E+00  0.00000000000E+00  1.18691345605E+03  1.18691345605E+03  0.00000000000E+00  0.00000000000E+00  1.
       21   -1    0    0  502  501  0.00000000000E+00  0.00000000000E+00 -3.29062489868E+00  3.29062489868E+00  0.00000000000E+00  0.00000000000E+00  1.
       25    2    1    2    0    0 -8.88178419700E-16 -3.55271367880E-15  1.18362283115E+03  1.19020408095E+03  1.24990991212E+02  0.00000000000E+00  1.
       23    2    3    3    0    0  5.53450920515E+00  2.37657754806E+01  7.45661517046E+02  7.48562193482E+02  6.11458635664E+01  0.00000000000E+00  1.
       23    2    3    3    0    0 -5.53450920515E+00 -2.37657754806E+01  4.37961314105E+02  4.41641887466E+02  5.14004011241E+01  0.00000000000E+00  1.
        5    1    4    4  803    0  3.88141697619E+00 -1.52019226350E+01  4.50359669773E+02  4.50657917392E+02  4.75000000000E+00  0.00000000000E+00  1.
       -5    1    4    4    0  803  1.65309222896E+00  3.89676981155E+01  2.95301847273E+02  2.97904276091E+02  4.74999999999E+00  0.00000000000E+00  1.
        5    1    5    5  804    0  8.90115654093E+00 -3.48860626631E+00  1.80785030815E+01  2.09951359871E+01  4.75000000001E+00  0.00000000000E+00  1.
       -5    1    5    5    0  804 -1.44356657461E+01 -2.02771692143E+01  4.19882811024E+02  4.20646751479E+02  4.75000000001E+00  0.00000000000E+00  1.
</event>
<event>
 9   0   1.0138641E-12   6.2497671E+01   7.8125000E-03   1.3829026E-01
       21   -1    0    0  501  502  0.00000000000E+00  0.00000000000E+00  1.49665785995E+02  1.49665785995E+02  0.00000000000E+00  0.00000000000E+00  1.
       21   -1    0    0  502  501  0.00000000000E+00  0.00000000000E+00 -2.60978739792E+01  2.60978739792E+01  0.00000000000E+00  0.00000000000E+00  1.
       25    2    1    2    0    0  0.00000000000E+00  0.00000000000E+00  1.23567912016E+02  1.75763659974E+02  1.24995341064E+02  0.00000000000E+00  1.
       23    2    3    3    0    0 -6.36495779449E+00 -2.71545712829E+01  3.61679910320E+01  6.87435413609E+01  5.13776943260E+01  0.00000000000E+00  1.
       23    2    3    3    0    0  6.36495779449E+00  2.71545712829E+01  8.73999209838E+01  1.07020118613E+02  5.51060447751E+01  0.00000000000E+00  1.
        4    1    4    4  804    0 -2.95444214349E+00 -4.25332024940E+01  2.61870080685E+01  5.00518437159E+01  1.27500000000E+00  0.00000000000E+00  1.
       -4    1    4    4    0  804 -3.41051565100E+00  1.53786312111E+01  9.98098296351E+00  1.86916976450E+01  1.27500000000E+00  0.00000000000E+00  1.
       15    1    5    5    0    0 -4.86565129025E+00  2.66334042660E+01  1.02011813284E+01  2.89867884390E+01  1.77680000000E+00  0.00000000000E+00  1.
      -15    1    5    5    0    0  1.12306090847E+01  5.21167016913E-01  7.71987396554E+01  7.80333301744E+01  1.77680000000E+00  0.00000000000E+00  1.
</event>
<event>
 9   0   3.3286544E-15   6.2497668E+01   7.8125000E-03   1.3829026E-01
       21   -1    0    0  501  502  0.00000000000E+00  0.00000000000E+00  3.43488660874E+02  3.43488660874E+02  0.00000000000E+00  0.00000000000E+00  1.
       21   -1    0    0  502  501  0.00000000000E+00  0.00000000000E+00 -1.13714336551E+01  1.13714336551E+01  0.00000000000E+00  0.00000000000E+00  1.
       25    2    1    2    0    0  4.44089209850E-15  3.55271367880E-15  3.32117227219E+02  3.54860094529E+02  1.24995336207E+02  0.00000000000E+00  1.
       23    2    3    3    0    0 -6.71499001106E+00 -2.87014026877E+01  1.21535381238E+02  1.35214150000E+02  5.14116315681E+01  0.00000000000E+00  1.
       23    2    3    3    0    0  6.71499001106E+00  2.87014026877E+01  2.10581845981E+02  2.19645944529E+02  5.50523885420E+01  0.00000000000E+00  1.
        2    1    4    4  804    0 -1.09533161350E+00 -4.33861927052E+01  9.31717067562E+01  1.02783891876E+02  1.34869915235E-06  0.00000000000E+00  1.
       -2    1    4    4    0  804 -5.61965839756E+00  1.46847900174E+01  2.83636744816E+01  3.24302583238E+01  0.00000000000E+00  0.00000000000E+00  1.
        4    1    5    5  803    0  1.60471608193E+01  2.34953972562E+01  4.21483422623E+01  5.08689831139E+01  1.27500000000E+00  0.00000000000E+00  1.
       -4    1    5    5    0  803 -9.33217080822E+00  5.20600543159E+00  1.68433503718E+02  1.68776961415E+02  1.27500000000E+00  0.00000000000E+00  1.
</event>
<event>
 9   0   1.1605524E-08   6.2497656E+01   7.8125000E-03   1.3829026E-01
       21   -1    0    0  501  502  0.00000000000E+00  0.00000000000E+00  1.85386779464E+03  1.85386779464E+03  0.00000000000E+00  0.00000000000E+00  1.
       21   -1    0    0  502  501  0.00000000000E+00  0.00000000000E+00 -2.10692315617E+00  2.10692315617E+00  0.00000000000E+00  0.00000000000E+00  1.
       25    2    1    2    0    0 -7.10542735760E-15  0.00000000000E+00  1.85176087149E+03  1.85597471780E+03  1.24995311672E+02  0.00000000000E+00  1.
       23    2    3    3    0    0  2.71196706012E+01  3.40566447692E+00  6.35743875616E+02  6.38403783215E+02  5.14007777769E+01  0.00000000000E+00  1.
       23    2    3    3    0    0 -2.71196706012E+01 -3.40566447692E+00  1.21601699587E+03  1.21757093458E+03  5.50869441260E+01  0.00000000000E+00  1.
        3    1    4    4  803    0  1.50576602364E+01 -2.02753720976E+01  4.56755236665E+02  4.57452915783E+02  5.39479660939E-06  0.00000000000E+00  1.
       -3    1    4    4    0  803  1.20620103648E+01  2.36810365745E+01  1.78988638950E+02  1.80950867632E+02  7.38712949029E-06  0.00000000000E+00  1.
       15    1    5    5    0    0  1.65692990108E+00  7.29016203975E+00  2.49388760228E+01  2.60959083916E+01  1.77679999997E+00  0.00000000000E+00  1.
      -15    1    5    5    0    0 -2.87766005023E+01 -1.06958265167E+01  1.19107811985E+03  1.19147502619E+03  1.77679999996E+00  0.00000000000E+00  1.
</event>
<event>
 9   0   1.9615832E-03   6.2497683E+01   7.8125000E-03   1.3829025E-01
       21   -1    0    0  501  502  0.00000000000E+00  0.00000000000E+00  1.50078375502E+02  1.50078375502E+02  0.00000000000E+00  0.00000000000E+00  1.
       21   -1    0    0  502  501  0.00000000000E+00  0.00000000000E+00 -2.60261368977E+01  2.60261368977E+01  0.00000000000E+00  0.00000000000E+00  1.
       25    2    1    2    0    0  8.88178419700E-16  3.55271367880E-15  1.24052238604E+02  1.76104512400E+02  1.24995365453E+02  0.00000000000E+00  1.
       23    2    3    3    0    0 -4.66450533700E+00 -1.99306338371E+01  7.12182487050E+01  1.15555740498E+02  8.86684974394E+01  0.00000000000E+00  1.
       23    2    3    3    0    0  4.66450533700E+00  1.99306338371E+01  5.28339898993E+01  6.05487719021E+01  2.13479627832E+01  0.00000000000E+00  1.
       16    1    4    4    0    0  2.68852217773E+00 -5.49612128442E+01  3.95740754188E+01  6.77795729852E+01  1.78416127528E-06  0.00000000000E+00  1.
      -16    1    4    4    0    0 -7.35302751473E+00  3.50305790071E+01  3.16441732863E+01  4.77761675125E+01  1.58148993986E-06  0.00000000000E+00  1.
       12    1    5    5    0    0  8.21391701756E+00  1.40442497068E+01  1.51113930626E+01  2.22050350797E+01  0.00000000000E+00  0.00000000000E+00  1.
      -12    1    5    5    0    0 -3.54941168055E+00  5.88638413028E+00  3.77225968366E+01  3.83437368224E+01  0.00000000000E+00  0.00000000000E+00  1.
</event>
<event>
 9   0   7.9944681E-09   6.2497657E+01   7.8125000E-03   1.3829026E-01
       21   -1    0    0  501  502  0.00000000000E+00  0.00000000000E+00  1.42683986182E+02  1.42683986182E+02  0.00000000000E+00  0.00000000000E+00  1.
       21   -1    0    0  502  501  0.00000000000E+00  0.00000000000E+00 -2.73748807371E+01  2.73748807371E+01  0.00000000000E+00  0.00000000000E+00  1.
       25    2    1    2    0    0 -8.88178419700E-16  3.55271367880E-15  1.15309105445E+02  1.70058866919E+02  1.24995313589E+02  0.00000000000E+00  1.
       23    2    3    3    0    0 -5.94442031415E+00 -2.54215697542E+01  2.93725873185E+01  6.47118312299E+01  5.14128376352E+01  0.00000000000E+00  1.
       23    2    3    3    0    0  5.94442031415E+00  2.54215697542E+01  8.59365181264E+01  1.05347035689E+02  5.50574285557E+01  0.00000000000E+00  1.
        3    1    4    4  804    0 -6.12768686077E-01 -3.57836087929E+01  3.64459658859E+01  5.10798450767E+01  0.00000000000E+00  0.00000000000E+00  1.
       -3    1    4    4    0  804 -5.33165162807E+00  1.03620390387E+01 -7.07337856733E+00  1.36319862532E+01  0.00000000000E+00  0.00000000000E+00  1.
       14    1    5    5    0    0 -5.37985035849E+00  2.52383722233E+01  8.62244084861E+00  2.72078060224E+01  0.00000000000E+00  0.00000000000E+00  1.
      -14    1    5    5    0    0  1.13242706726E+01  1.83197530878E-01  7.73140772778E+01  7.81392297668E+01  1.65181236989E-06  0.00000000000E+00  1.
</event>
<event>
 9   0   4.0961819E-05   6.2499020E+01   7.8125000E-03   1.3828975E-01
       21   -1    0    0  501  502  0.00000000000E+00  0.00000000000E+00  5.01945914224E+01  5.01945914224E+01  0.00000000000E+00  0.00000000000E+00  1.
       21   -1    0    0  502  501  0.00000000000E+00  0.00000000000E+00 -7.78196895763E+01  7.78196895763E+01  0.00000000000E+00  0.00000000000E+00  1.
       25    2    1    2    0    0  1.77635683940E-15 -3.55271367880E-15 -2.76250981539E+01  1.28014280999E+02  1.24998040351E+02  0.00000000000E+00  1.
       23    2    3    3    0    0 -3.97624323674E+00 -1.70022403559E+01 -2.76803348816E+01  6.09334625063E+01  5.13984360312E+01  0.00000000000E+00  1.
       23    2    3    3    0    0  3.97624323674E+00  1.70022403559E+01  5.52367276313E-02  6.70808184923E+01  6.47684064271E+01  0.00000000000E+00  1.
        4    1    4    4  803    0  7.56280323818E-01 -3.52888516833E+01 -1.90031725329E+01  4.01076202781E+01  1.27500000000E+00  0.00000000000E+00  1.
       -4    1    4    4    0  803 -4.73252356056E+00  1.82866113274E+01 -8.67716234862E+00  2.08258422282E+01  1.27500000000E+00  0.00000000000E+00  1.
       15    1    5    5    0    0  2.00962475617E+01  9.39502599984E+00 -2.67774043088E+01  3.48182722052E+01  1.77680000000E+00  0.00000000000E+00  1.
      -15    1    5    5    0    0 -1.61200043250E+01  7.60721435602E+00  2.68326410365E+01  3.22625462871E+01  1.77680000000E+00  0.00000000000E+00  1.
</event>
<event>
 9   0   2.7245206E-04   6.2499957E+01   7.8125000E-03   1.3828940E-01
       21   -1    0    0  501  502  0.00000000000E+00  0.00000000000E+00  5.00836856308E+01  5.00836856308E+01  0.00000000000E+00  0.00000000000E+00  1.
       21   -1    0    0  502  501  0.00000000000E+00  0.00000000000E+00 -7.79943518512E+01  7.79943518512E+01  0.00000000000E+00  0.00000000000E+00  1.
       25    2    1    2    0    0  8.88178419700E-16 -7.10542735760E-15 -2.79106662204E+01  1.28078037482E+02  1.24999913586E+02  0.00000000000E+00  1.
       23    2    3    3    0    0 -5.99694784741E+00 -2.56329905456E+01 -3.35048748630E+01  6.67622084680E+01  5.13965198447E+01  0.00000000000E+00  1.
       23    2    3    3    0    0  5.99694784741E+00  2.56329905456E+01  5.59420864261E+00  6.13158290140E+01  5.50937576277E+01  0.00000000000E+00  1.
        5    1    4    4  803    0  7.58636368167E-01 -4.04705376906E+01 -2.42078713506E+01  4.74027793008E+01  4.75000000000E+00  0.00000000000E+00  1.
       -5    1    4    4    0  803 -6.75558421557E+00  1.48375471450E+01 -9.29700351236E+00  1.93594291673E+01  4.75000000000E+00  0.00000000000E+00  1.
        4    1    5    5  804    0  1.55613031461E+01  2.13542928700E+01 -2.03053431847E+01  3.33480519136E+01  1.27500000000E+00  0.00000000000E+00  1.
       -4    1    5    5    0  804 -9.56435529874E+00  4.27869767554E+00  2.58995518273E+01  2.79677771004E+01  1.27500000000E+00  0.00000000000E+00  1.
</event>
</LesHouchesEvents>
