<LesHouchesEvents version="1.0">
<!--
Output from the JHUGenerator v7.4.1 described in arXiv:1001.3396 [hep-ph], arXiv:1208.4018 [hep-ph], arXiv:1309.4819 [hep-ph], arXiv:1606.03107 [hep-ph]
   
   Command line: ./JHUGen Seed=765543533 PDFSet=3 Process=0 VegasNc0=100000 VegasNc2=100 DataFile=compare_to_reference/ggH_gammagamma DecayMode1=7 DecayMode2=7 ghg2=0.383432074687728,0.918260989345657 ghg3=6294.49296087723,2253.12941717723 ghg4=0.335495485382528,0.17285803562226 ghz1=0.154934976270359,0.453918144016304 ghz2=0.469297059144414,0.745302300947002 ghz3=3947.40921062637,3597.4885961919 ghz4=0.177791270766536,0.920170534486048 ghzgs2=0.0240331049939919,0.232175381101053 ghzgs3=0.331962910170583,0.0450183240308457 ghzgs4=0.808286540247172,0.133184346613754 ghgsgs2=0.530394804029869,0.211218112389125 ghgsgs3=0.914978695198138,0.055650585081425 ghgsgs4=0.694524307167701,0.511424456076726 ghz1_prime=0.143354267833606,0.0910761280837012 ghz1_prime2=7416.7007267243,4861.35525489789 ghz1_prime3=4431.44656075298,4436.48625894176 ghz1_prime4=2441.69123517064,6946.16318931911 ghz1_prime5=78314042.889773,69465359.939181 ghz1_prime6=51233058.8130761,29537873.5850789 ghz1_prime7=47832192.9001564,59559649.
   
   Input Parameter:
    Collider: P-P, sqrt(s)=13000.00
    Resonance: spin=0, mass= 125.00 width=   0.00407
    DecayMode1: 7  DecayMode2: 7
    Random seed:   765543533
    To reproduce results using this seed, JHUGen should be compiled with the same compiler:
      GNU Fortran (GCC) 6.3.0
    
    OffXVV: TFF
    WidthScheme:   2
    PChannel: 0
    PDFSet:   3
    Unweighted: T
    Interference: F
    
    Spin-0-VV couplings: 
      generate_as=F
      kappa_top=  0.10000000E+01  0.00000000E+00i
      kappa_bot=  0.10000000E+01  0.00000000E+00i
      ghg2=  0.38343207E+00  0.91826099E+00i
      ghg3=  0.62944930E+04  0.22531294E+04i
      ghg4=  0.33549549E+00  0.17285804E+00i
      ghz1=  0.15493498E+00  0.45391814E+00i
      ghz2=  0.46929706E+00  0.74530230E+00i
      ghz3=  0.39474092E+04  0.35974886E+04i
      ghz4=  0.17779127E+00  0.92017053E+00i
      ghz1_prime=   0.14335427E+00  0.91076128E-01i,    Lambda_z1=  1.0000E+04
      ghz1_prime2=  0.74167007E+04  0.48613553E+04i,    Lambda_z1=  1.0000E+04
      ghz1_prime3=  0.44314466E+04  0.44364863E+04i,    Lambda_z1=  1.0000E+04
      ghz1_prime4=  0.24416912E+04  0.69461632E+04i,    Lambda_z1=  1.0000E+04
      ghz1_prime5=  0.78314043E+08  0.69465360E+08i,    Lambda_z1=  1.0000E+04
      ghz1_prime6=  0.51233059E+08  0.29537874E+08i,    Lambda_z1=  1.0000E+04
      ghz1_prime7=  0.47832193E+08  0.59559650E+08i,    Lambda_z1=  1.0000E+04
      ghz2_prime=   0.57465793E+00  0.41992191E+00i,    Lambda_z2=  1.0000E+04
      ghz2_prime2=  0.43854587E+04  0.61761246E+04i,    Lambda_z2=  1.0000E+04
      ghz2_prime3=  0.45921696E+04  0.75499391E+04i,    Lambda_z2=  1.0000E+04
      ghz2_prime4=  0.84715906E+04  0.71997238E+04i,    Lambda_z2=  1.0000E+04
      ghz2_prime5=  0.19558280E+08  0.94843889E+08i,    Lambda_z2=  1.0000E+04
      ghz2_prime6=  0.23209661E+08  0.67617823E+08i,    Lambda_z2=  1.0000E+04
      ghz2_prime7=  0.70059904E+07  0.53660191E+08i,    Lambda_z2=  1.0000E+04
      ghz3_prime=   0.40457065E+04  0.19693161E+04i,    Lambda_z3=  1.0000E+04
      ghz3_prime2=  0.33402456E+08  0.37615919E+07i,    Lambda_z3=  1.0000E+04
      ghz3_prime3=  0.44855080E+08  0.12184926E+08i,    Lambda_z3=  1.0000E+04
      ghz3_prime4=  0.27878602E+08  0.78237524E+08i,    Lambda_z3=  1.0000E+04
      ghz3_prime5=  0.93246434E+12  0.63158085E+12i,    Lambda_z3=  1.0000E+04
      ghz3_prime6=  0.35811562E+12  0.41077746E+12i,    Lambda_z3=  1.0000E+04
      ghz3_prime7=  0.62298148E+12  0.61827857E+12i,    Lambda_z3=  1.0000E+04
      ghz4_prime=   0.41653395E+00  0.33115593E+00i,    Lambda_z4=  1.0000E+04
      ghz4_prime2=  0.75883756E+04  0.39234327E+04i,    Lambda_z4=  1.0000E+04
      ghz4_prime3=  0.89560755E+04  0.93020315E+04i,    Lambda_z4=  1.0000E+04
      ghz4_prime4=  0.32034411E+04  0.28637675E+04i,    Lambda_z4=  1.0000E+04
      ghz4_prime5=  0.49012574E+08  0.74595801E+08i,    Lambda_z4=  1.0000E+04
      ghz4_prime6=  0.73323810E+08  0.53968832E+08i,    Lambda_z4=  1.0000E+04
      ghz4_prime7=  0.68563876E+08  0.43025214E+08i,    Lambda_z4=  1.0000E+04
      ghzgs2=  0.24033105E-01  0.23217538E+00i
      ghzgs3=  0.33196291E+00  0.45018324E-01i
      ghzgs4=  0.80828654E+00  0.13318435E+00i
      ghzgs1_prime2=  0.56689643E+04  0.70176759E+04i,  Lambda_zgs1=  1.0000E+04
      ghgsgs2=  0.53039480E+00  0.21121811E+00i
      ghgsgs3=  0.91497870E+00  0.55650585E-01i
      ghgsgs4=  0.69452431E+00  0.51142446E+00i
      Lambda=  1000.0
      Lambda_Q=  10000.0
      Lambda_z11=   1.3888E+02
      Lambda_z21=   1.5452E+02
      Lambda_z31=   1.1998E+02
      Lambda_z41=   1.8136E+02
      Lambda_z12=   1.3667E+02
      Lambda_z22=   1.6659E+02
      Lambda_z32=   1.3884E+02
      Lambda_z42=   4.9064E+01
      Lambda_z10=   9.6973E+00
      Lambda_z20=   1.9326E+02
      Lambda_z30=   8.9204E+01
      Lambda_z40=   1.6167E+02
    
    LHE output: compare_to_reference/ggH_gammagamma.lhe
    Histogram output: compare_to_reference/ggH_gammagamma.dat
    Log file: compare_to_reference/ggH_gammagamma.log
    
-->
<init>
2212 2212   6500.0000000000000000    6500.0000000000000000 0 0  263000  263000  3  1
 6.0412961E+11  3.4144580E+08  1.0000000E+00   0
</init>
<event>
 5   0   1.0000000E+00   6.2500458E+01   7.8125000E-03   1.3828921E-01
       21   -1    0    0  501  502  0.00000000000E+00  0.00000000000E+00  7.45787097835E+00  7.45787097835E+00  0.00000000000E+00  0.00000000000E+00  1.
       21   -1    0    0  502  501  0.00000000000E+00  0.00000000000E+00 -5.23783167848E+02  5.23783167848E+02  0.00000000000E+00  0.00000000000E+00  1.
       25    2    1    2    0    0  0.00000000000E+00  0.00000000000E+00 -5.16325296869E+02  5.31241038826E+02  1.25000916580E+02  0.00000000000E+00  1.
       22    1    3    3    0    0 -7.31309434924E+00  1.44144978281E+00  5.56215544936E+00  9.30036019088E+00  0.00000000000E+00  0.00000000000E+00  1.
       22    1    3    3    0    0  7.31309434924E+00 -1.44144978281E+00 -5.21887452319E+02  5.21940678635E+02  0.00000000000E+00  0.00000000000E+00  1.
</event>
<event>
 5   0   1.0000000E+00   6.2503057E+01   7.8125000E-03   1.3828824E-01
       21   -1    0    0  501  502  0.00000000000E+00  0.00000000000E+00  6.03123746541E+01  6.03123746541E+01  0.00000000000E+00  0.00000000000E+00  1.
       21   -1    0    0  502  501  0.00000000000E+00  0.00000000000E+00 -6.47733103867E+01  6.47733103867E+01  0.00000000000E+00  0.00000000000E+00  1.
       25    2    1    2    0    0  0.00000000000E+00  0.00000000000E+00 -4.46093573254E+00  1.25085685041E+02  1.25006114469E+02  0.00000000000E+00  1.
       22    1    3    3    0    0 -3.47231009920E+01  2.15667038204E+01  4.50840431878E+01  6.08554632415E+01  0.00000000000E+00  0.00000000000E+00  1.
       22    1    3    3    0    0  3.47231009920E+01 -2.15667038204E+01 -4.95449789203E+01  6.42302217993E+01  0.00000000000E+00  0.00000000000E+00  1.
</event>
<event>
 5   0   1.0000000E+00   6.2506720E+01   7.8125000E-03   1.3828688E-01
       21   -1    0    0  501  502  0.00000000000E+00  0.00000000000E+00  3.84655605968E+01  3.84655605968E+01  0.00000000000E+00  0.00000000000E+00  1.
       21   -1    0    0  502  501  0.00000000000E+00  0.00000000000E+00 -1.01573717524E+02  1.01573717524E+02  0.00000000000E+00  0.00000000000E+00  1.
       25    2    1    2    0    0  0.00000000000E+00  0.00000000000E+00 -6.31081569269E+01  1.40039278121E+02  1.25013439061E+02  0.00000000000E+00  1.
       22    1    3    3    0    0  1.83570492980E+01 -5.97350413441E+01 -3.00372338410E+01  6.93360789209E+01  0.00000000000E+00  0.00000000000E+00  1.
       22    1    3    3    0    0 -1.83570492980E+01  5.97350413441E+01 -3.30709230859E+01  7.07031991996E+01  0.00000000000E+00  0.00000000000E+00  1.
</event>
<event>
 5   0   1.0000000E+00   6.2497050E+01   7.8125000E-03   1.3829049E-01
       21   -1    0    0  501  502  0.00000000000E+00  0.00000000000E+00  6.20392036974E+00  6.20392036974E+00  0.00000000000E+00  0.00000000000E+00  1.
       21   -1    0    0  502  501  0.00000000000E+00  0.00000000000E+00 -6.29582747750E+02  6.29582747750E+02  0.00000000000E+00  0.00000000000E+00  1.
       25    2    1    2    0    0  0.00000000000E+00  0.00000000000E+00 -6.23378827380E+02  6.35786668120E+02  1.24994099592E+02  0.00000000000E+00  1.
       22    1    3    3    0    0  4.54900120577E+01 -2.52641009922E+01 -4.87764692441E+02  4.90532375270E+02  0.00000000000E+00  0.00000000000E+00  1.
       22    1    3    3    0    0 -4.54900120577E+01  2.52641009922E+01 -1.35614134939E+02  1.45254292849E+02  0.00000000000E+00  0.00000000000E+00  1.
</event>
<event>
 5   0   1.0000000E+00   6.2503887E+01   7.8125000E-03   1.3828793E-01
       21   -1    0    0  501  502  0.00000000000E+00  0.00000000000E+00  1.84365590562E+00  1.84365590562E+00  0.00000000000E+00  0.00000000000E+00  1.
       21   -1    0    0  502  501  0.00000000000E+00  0.00000000000E+00 -2.11901576613E+03  2.11901576613E+03  0.00000000000E+00  0.00000000000E+00  1.
       25    2    1    2    0    0  0.00000000000E+00  0.00000000000E+00 -2.11717211022E+03  2.12085942203E+03  1.25007774659E+02  0.00000000000E+00  1.
       22    1    3    3    0    0  5.32637317362E+01  2.13368548590E+01 -6.38035767490E+02  6.40610589274E+02  1.70598447990E-05  0.00000000000E+00  1.
       22    1    3    3    0    0 -5.32637317362E+01 -2.13368548590E+01 -1.47913634273E+03  1.48024883276E+03  2.15791864376E-05  0.00000000000E+00  1.
</event>
<event>
 5   0   1.0000000E+00   6.2500469E+01   7.8125000E-03   1.3828921E-01
       21   -1    0    0  501  502  0.00000000000E+00  0.00000000000E+00  3.54176522866E+01  3.54176522866E+01  0.00000000000E+00  0.00000000000E+00  1.
       21   -1    0    0  502  501  0.00000000000E+00  0.00000000000E+00 -1.10292704870E+02  1.10292704870E+02  0.00000000000E+00  0.00000000000E+00  1.
       25    2    1    2    0    0  0.00000000000E+00  0.00000000000E+00 -7.48750525833E+01  1.45710357157E+02  1.25000938730E+02  0.00000000000E+00  1.
       22    1    3    3    0    0 -1.42861615119E+01  5.12194576110E+01 -7.57238685726E+01  9.25290847264E+01  0.00000000000E+00  0.00000000000E+00  1.
       22    1    3    3    0    0  1.42861615119E+01 -5.12194576110E+01  8.48815989302E-01  5.31812724301E+01  0.00000000000E+00  0.00000000000E+00  1.
</event>
<event>
 5   0   1.0000000E+00   6.2498773E+01   7.8125000E-03   1.3828984E-01
       21   -1    0    0  501  502  0.00000000000E+00  0.00000000000E+00  4.66385209085E+02  4.66385209085E+02  0.00000000000E+00  0.00000000000E+00  1.
       21   -1    0    0  502  501  0.00000000000E+00  0.00000000000E+00 -8.37525834906E+00  8.37525834906E+00  0.00000000000E+00  0.00000000000E+00  1.
       25    2    1    2    0    0  0.00000000000E+00  0.00000000000E+00  4.58009950736E+02  4.74760467434E+02  1.24997545836E+02  0.00000000000E+00  1.
       22    1    3    3    0    0  7.69931421531E+00  6.16980365007E+01  2.04932480268E+02  2.14157065296E+02  0.00000000000E+00  0.00000000000E+00  1.
       22    1    3    3    0    0 -7.69931421531E+00 -6.16980365007E+01  2.53077470468E+02  2.60603402138E+02  0.00000000000E+00  0.00000000000E+00  1.
</event>
<event>
 5   0   1.0000000E+00   6.2501408E+01   7.8125000E-03   1.3828886E-01
       21   -1    0    0  501  502  0.00000000000E+00  0.00000000000E+00  3.68973518491E+02  3.68973518491E+02  0.00000000000E+00  0.00000000000E+00  1.
       21   -1    0    0  502  501  0.00000000000E+00  0.00000000000E+00 -1.05872801120E+01  1.05872801120E+01  0.00000000000E+00  0.00000000000E+00  1.
       25    2    1    2    0    0  0.00000000000E+00  0.00000000000E+00  3.58386238379E+02  3.79560798603E+02  1.25002815875E+02  0.00000000000E+00  1.
       22    1    3    3    0    0 -1.03895117806E+01 -2.18601989417E+01  4.22018825801E+00  2.45686841679E+01  0.00000000000E+00  0.00000000000E+00  1.
       22    1    3    3    0    0  1.03895117806E+01  2.18601989417E+01  3.54166050121E+02  3.54992114435E+02  0.00000000000E+00  0.00000000000E+00  1.
</event>
<event>
 5   0   1.0000000E+00   6.2495915E+01   7.8125000E-03   1.3829091E-01
       21   -1    0    0  501  502  0.00000000000E+00  0.00000000000E+00  3.00744902351E+02  3.00744902351E+02  0.00000000000E+00  0.00000000000E+00  1.
       21   -1    0    0  502  501  0.00000000000E+00  0.00000000000E+00 -1.29868848312E+01  1.29868848312E+01  0.00000000000E+00  0.00000000000E+00  1.
       25    2    1    2    0    0  0.00000000000E+00  0.00000000000E+00  2.87758017520E+02  3.13731787182E+02  1.24991830299E+02  0.00000000000E+00  1.
       22    1    3    3    0    0 -7.42257728795E-01 -1.74380987809E+01 -6.74512332762E+00  1.87118925909E+01  0.00000000000E+00  0.00000000000E+00  1.
       22    1    3    3    0    0  7.42257728795E-01  1.74380987809E+01  2.94503140848E+02  2.95019894591E+02  0.00000000000E+00  0.00000000000E+00  1.
</event>
<event>
 5   0   1.0000000E+00   6.2499954E+01   7.8125000E-03   1.3828940E-01
       21   -1    0    0  501  502  0.00000000000E+00  0.00000000000E+00  1.77299257298E+01  1.77299257298E+01  0.00000000000E+00  0.00000000000E+00  1.
       21   -1    0    0  502  501  0.00000000000E+00  0.00000000000E+00 -2.20319265770E+02  2.20319265770E+02  0.00000000000E+00  0.00000000000E+00  1.
       25    2    1    2    0    0  0.00000000000E+00  0.00000000000E+00 -2.02589340041E+02  2.38049191500E+02  1.24999907503E+02  0.00000000000E+00  1.
       22    1    3    3    0    0 -5.57762851236E+01  2.64095493568E+01 -1.20126617121E+02  1.35051332538E+02  0.00000000000E+00  0.00000000000E+00  1.
       22    1    3    3    0    0  5.57762851236E+01 -2.64095493568E+01 -8.24627229192E+01  1.02997858962E+02  0.00000000000E+00  0.00000000000E+00  1.
</event>
<event>
 5   0   1.0000000E+00   6.2503526E+01   7.8125000E-03   1.3828807E-01
       21   -1    0    0  501  502  0.00000000000E+00  0.00000000000E+00  1.71194240148E+02  1.71194240148E+02  0.00000000000E+00  0.00000000000E+00  1.
       21   -1    0    0  502  501  0.00000000000E+00  0.00000000000E+00 -2.28202228897E+01  2.28202228897E+01  0.00000000000E+00  0.00000000000E+00  1.
       25    2    1    2    0    0  0.00000000000E+00  0.00000000000E+00  1.48374017259E+02  1.94014463038E+02  1.25007051283E+02  0.00000000000E+00  1.
       22    1    3    3    0    0  4.53933375908E+00  1.75193555859E+01 -1.86647194237E+01  2.59981753646E+01  0.00000000000E+00  0.00000000000E+00  1.
       22    1    3    3    0    0 -4.53933375908E+00 -1.75193555859E+01  1.67038736682E+02  1.68016287673E+02  0.00000000000E+00  0.00000000000E+00  1.
</event>
<event>
 5   0   1.0000000E+00   6.2501099E+01   7.8125000E-03   1.3828898E-01
       21   -1    0    0  501  502  0.00000000000E+00  0.00000000000E+00  6.30680478562E+01  6.30680478562E+01  0.00000000000E+00  0.00000000000E+00  1.
       21   -1    0    0  502  501  0.00000000000E+00  0.00000000000E+00 -6.19392473434E+01  6.19392473434E+01  0.00000000000E+00  0.00000000000E+00  1.
       25    2    1    2    0    0  0.00000000000E+00  0.00000000000E+00  1.12880051284E+00  1.25007295200E+02  1.25002198631E+02  0.00000000000E+00  1.
       22    1    3    3    0    0 -1.99079327723E+01  5.15933442878E+01  2.96892628204E+01  6.27666415295E+01  0.00000000000E+00  0.00000000000E+00  1.
       22    1    3    3    0    0  1.99079327723E+01 -5.15933442878E+01 -2.85604623076E+01  6.22406536702E+01  0.00000000000E+00  0.00000000000E+00  1.
</event>
<event>
 5   0   1.0000000E+00   6.2504804E+01   7.8125000E-03   1.3828759E-01
       21   -1    0    0  501  502  0.00000000000E+00  0.00000000000E+00  4.44516470467E+02  4.44516470467E+02  0.00000000000E+00  0.00000000000E+00  1.
       21   -1    0    0  502  501  0.00000000000E+00  0.00000000000E+00 -8.78898924640E+00  8.78898924640E+00  0.00000000000E+00  0.00000000000E+00  1.
       25    2    1    2    0    0  0.00000000000E+00  0.00000000000E+00  4.35727481221E+02  4.53305459714E+02  1.25009607291E+02  0.00000000000E+00  1.
       22    1    3    3    0    0 -3.66292502293E+01 -2.57697493596E+01  3.75969046458E+02  3.78627133007E+02  0.00000000000E+00  0.00000000000E+00  1.
       22    1    3    3    0    0  3.66292502293E+01  2.57697493596E+01  5.97584347627E+01  7.46783267066E+01  0.00000000000E+00  0.00000000000E+00  1.
</event>
<event>
 5   0   1.0000000E+00   6.2499348E+01   7.8125000E-03   1.3828963E-01
       21   -1    0    0  501  502  0.00000000000E+00  0.00000000000E+00  2.98981274079E+01  2.98981274079E+01  0.00000000000E+00  0.00000000000E+00  1.
       21   -1    0    0  502  501  0.00000000000E+00  0.00000000000E+00 -1.30649268260E+02  1.30649268260E+02  0.00000000000E+00  0.00000000000E+00  1.
       25    2    1    2    0    0  0.00000000000E+00  0.00000000000E+00 -1.00751140853E+02  1.60547395668E+02  1.24998695484E+02  0.00000000000E+00  1.
       22    1    3    3    0    0  4.54897905149E+01 -3.61958041788E+01 -2.08985178768E+01  6.17754427802E+01  0.00000000000E+00  0.00000000000E+00  1.
       22    1    3    3    0    0 -4.54897905149E+01  3.61958041788E+01 -7.98526229758E+01  9.87719528882E+01  0.00000000000E+00  0.00000000000E+00  1.
</event>
<event>
 5   0   1.0000000E+00   6.2500333E+01   7.8125000E-03   1.3828926E-01
       21   -1    0    0  501  502  0.00000000000E+00  0.00000000000E+00  1.55024645024E+01  1.55024645024E+01  0.00000000000E+00  0.00000000000E+00  1.
       21   -1    0    0  502  501  0.00000000000E+00  0.00000000000E+00 -2.51978752860E+02  2.51978752860E+02  0.00000000000E+00  0.00000000000E+00  1.
       25    2    1    2    0    0  0.00000000000E+00  0.00000000000E+00 -2.36476288357E+02  2.67481217362E+02  1.25000666743E+02  0.00000000000E+00  1.
       22    1    3    3    0    0 -5.99699990847E+00  5.17161997186E+01 -1.92233318758E+02  1.99158675839E+02  0.00000000000E+00  0.00000000000E+00  1.
       22    1    3    3    0    0  5.99699990847E+00 -5.17161997186E+01 -4.42429695999E+01  6.83225415237E+01  0.00000000000E+00  0.00000000000E+00  1.
</event>
<event>
 5   0   1.0000000E+00   6.2499856E+01   7.8125000E-03   1.3828944E-01
       21   -1    0    0  501  502  0.00000000000E+00  0.00000000000E+00  2.35867521119E+02  2.35867521119E+02  0.00000000000E+00  0.00000000000E+00  1.
       21   -1    0    0  502  501  0.00000000000E+00  0.00000000000E+00 -1.65611271513E+01  1.65611271513E+01  0.00000000000E+00  0.00000000000E+00  1.
       25    2    1    2    0    0  0.00000000000E+00  0.00000000000E+00  2.19306393968E+02  2.52428648271E+02  1.24999712130E+02  0.00000000000E+00  1.
       22    1    3    3    0    0 -5.53074341679E+01 -1.69762904831E+01  6.19020069731E+01  8.47287742157E+01  0.00000000000E+00  0.00000000000E+00  1.
       22    1    3    3    0    0  5.53074341679E+01  1.69762904831E+01  1.57404386995E+02  1.67699874055E+02  0.00000000000E+00  0.00000000000E+00  1.
</event>
<event>
 5   0   1.0000000E+00   6.2495583E+01   7.8125000E-03   1.3829104E-01
       21   -1    0    0  501  502  0.00000000000E+00  0.00000000000E+00  2.21811458711E+01  2.21811458711E+01  0.00000000000E+00  0.00000000000E+00  1.
       21   -1    0    0  502  501  0.00000000000E+00  0.00000000000E+00 -1.76081879867E+02  1.76081879867E+02  0.00000000000E+00  0.00000000000E+00  1.
       25    2    1    2    0    0  0.00000000000E+00  0.00000000000E+00 -1.53900733996E+02  1.98263025739E+02  1.24991165489E+02  0.00000000000E+00  1.
       22    1    3    3    0    0 -1.35405190178E+01  3.75915727401E+01 -1.53175048578E+02  1.58300560654E+02  0.00000000000E+00  0.00000000000E+00  1.
       22    1    3    3    0    0  1.35405190178E+01 -3.75915727401E+01 -7.25685418328E-01  3.99624650850E+01  0.00000000000E+00  0.00000000000E+00  1.
</event>
<event>
 5   0   1.0000000E+00   6.2500952E+01   7.8125000E-03   1.3828903E-01
       21   -1    0    0  501  502  0.00000000000E+00  0.00000000000E+00  2.38348411058E+01  2.38348411058E+01  0.00000000000E+00  0.00000000000E+00  1.
       21   -1    0    0  502  501  0.00000000000E+00  0.00000000000E+00 -1.63893226865E+02  1.63893226865E+02  0.00000000000E+00  0.00000000000E+00  1.
       25    2    1    2    0    0  0.00000000000E+00  0.00000000000E+00 -1.40058385760E+02  1.87728067971E+02  1.25001904316E+02  0.00000000000E+00  1.
       22    1    3    3    0    0  3.56330021274E+01 -1.27477483696E+01  4.67171252755E+00  3.81318872736E+01  0.00000000000E+00  0.00000000000E+00  1.
       22    1    3    3    0    0 -3.56330021274E+01  1.27477483696E+01 -1.44730098287E+02  1.49596180698E+02  0.00000000000E+00  0.00000000000E+00  1.
</event>
<event>
 5   0   1.0000000E+00   6.2502019E+01   7.8125000E-03   1.3828863E-01
       21   -1    0    0  501  502  0.00000000000E+00  0.00000000000E+00  3.40746094949E+00  3.40746094949E+00  0.00000000000E+00  0.00000000000E+00  1.
       21   -1    0    0  502  501  0.00000000000E+00  0.00000000000E+00 -1.14645552710E+03  1.14645552710E+03  0.00000000000E+00  0.00000000000E+00  1.
       25    2    1    2    0    0  0.00000000000E+00  0.00000000000E+00 -1.14304806615E+03  1.14986298805E+03  1.25004038957E+02  0.00000000000E+00  1.
       22    1    3    3    0    0 -5.78683548588E+01 -2.09912969855E+01 -4.71974284135E+02  4.75971749086E+02  0.00000000000E+00  0.00000000000E+00  1.
       22    1    3    3    0    0  5.78683548588E+01  2.09912969855E+01 -6.71073782013E+02  6.73891238961E+02  1.07895932188E-05  0.00000000000E+00  1.
</event>
<event>
 5   0   1.0000000E+00   6.2524688E+01   7.8125000E-03   1.3828017E-01
       21   -1    0    0  501  502  0.00000000000E+00  0.00000000000E+00  1.69127511106E+02  1.69127511106E+02  0.00000000000E+00  0.00000000000E+00  1.
       21   -1    0    0  502  501  0.00000000000E+00  0.00000000000E+00 -2.31147287743E+01  2.31147287743E+01  0.00000000000E+00  0.00000000000E+00  1.
       25    2    1    2    0    0  0.00000000000E+00  0.00000000000E+00  1.46012782332E+02  1.92242239880E+02  1.25049375008E+02  0.00000000000E+00  1.
       22    1    3    3    0    0  2.96897090052E+01  4.79077779595E+01  1.14619593710E+02  1.27727386539E+02  0.00000000000E+00  0.00000000000E+00  1.
       22    1    3    3    0    0 -2.96897090052E+01 -4.79077779595E+01  3.13931886220E+01  6.45148533416E+01  0.00000000000E+00  0.00000000000E+00  1.
</event>
<event>
 5   0   1.0000000E+00   6.2498551E+01   7.8125000E-03   1.3828993E-01
       21   -1    0    0  501  502  0.00000000000E+00  0.00000000000E+00  2.49517878572E+01  2.49517878572E+01  0.00000000000E+00  0.00000000000E+00  1.
       21   -1    0    0  502  501  0.00000000000E+00  0.00000000000E+00 -1.56544649496E+02  1.56544649496E+02  0.00000000000E+00  0.00000000000E+00  1.
       25    2    1    2    0    0  0.00000000000E+00  0.00000000000E+00 -1.31592861639E+02  1.81496437353E+02  1.24997102117E+02  0.00000000000E+00  1.
       22    1    3    3    0    0 -2.32905337580E+01  2.58369079390E+01 -1.41189959956E+02  1.45411827466E+02  0.00000000000E+00  0.00000000000E+00  1.
       22    1    3    3    0    0  2.32905337580E+01 -2.58369079390E+01  9.59709831748E+00  3.60846098870E+01  0.00000000000E+00  0.00000000000E+00  1.
</event>
<event>
 5   0   1.0000000E+00   6.2499530E+01   7.8125000E-03   1.3828956E-01
       21   -1    0    0  501  502  0.00000000000E+00  0.00000000000E+00  5.37895950891E+00  5.37895950891E+00  0.00000000000E+00  0.00000000000E+00  1.
       21   -1    0    0  502  501  0.00000000000E+00  0.00000000000E+00 -7.26198301496E+02  7.26198301496E+02  0.00000000000E+00  0.00000000000E+00  1.
       25    2    1    2    0    0  0.00000000000E+00  0.00000000000E+00 -7.20819341987E+02  7.31577261005E+02  1.24999060143E+02  0.00000000000E+00  1.
       22    1    3    3    0    0 -7.67785763540E+00  5.87014052151E+01 -4.77665647200E+02  4.81320345495E+02  0.00000000000E+00  0.00000000000E+00  1.
       22    1    3    3    0    0  7.67785763540E+00 -5.87014052151E+01 -2.43153694787E+02  2.50256915510E+02  0.00000000000E+00  0.00000000000E+00  1.
</event>
<event>
 5   0   1.0000000E+00   6.2499931E+01   7.8125000E-03   1.3828941E-01
       21   -1    0    0  501  502  0.00000000000E+00  0.00000000000E+00  2.71365723068E+02  2.71365723068E+02  0.00000000000E+00  0.00000000000E+00  1.
       21   -1    0    0  502  501  0.00000000000E+00  0.00000000000E+00 -1.43947484508E+01  1.43947484508E+01  0.00000000000E+00  0.00000000000E+00  1.
       25    2    1    2    0    0  0.00000000000E+00  0.00000000000E+00  2.56970974617E+02  2.85760471518E+02  1.24999861147E+02  0.00000000000E+00  1.
       22    1    3    3    0    0  5.63103173996E+00  1.05528959510E+01 -1.17537352325E+01  1.67696876335E+01  0.00000000000E+00  0.00000000000E+00  1.
       22    1    3    3    0    0 -5.63103173996E+00 -1.05528959510E+01  2.68724709849E+02  2.68990783885E+02  0.00000000000E+00  0.00000000000E+00  1.
</event>
<event>
 5   0   1.0000000E+00   6.2499975E+01   7.8125000E-03   1.3828940E-01
       21   -1    0    0  501  502  0.00000000000E+00  0.00000000000E+00  8.04734368823E+00  8.04734368823E+00  0.00000000000E+00  0.00000000000E+00  1.
       21   -1    0    0  502  501  0.00000000000E+00  0.00000000000E+00 -4.85408235870E+02  4.85408235870E+02  0.00000000000E+00  0.00000000000E+00  1.
       25    2    1    2    0    0  0.00000000000E+00  0.00000000000E+00 -4.77360892182E+02  4.93455579558E+02  1.24999950450E+02  0.00000000000E+00  1.
       22    1    3    3    0    0 -4.40252227532E+01  4.35094606619E+01 -2.72857464689E+02  2.79790081029E+02  0.00000000000E+00  0.00000000000E+00  1.
       22    1    3    3    0    0  4.40252227532E+01 -4.35094606619E+01 -2.04503427493E+02  2.13665498530E+02  0.00000000000E+00  0.00000000000E+00  1.
</event>
<event>
 5   0   1.0000000E+00   6.2501425E+01   7.8125000E-03   1.3828885E-01
       21   -1    0    0  501  502  0.00000000000E+00  0.00000000000E+00  4.72259163104E+01  4.72259163104E+01  0.00000000000E+00  0.00000000000E+00  1.
       21   -1    0    0  502  501  0.00000000000E+00  0.00000000000E+00 -8.27178905220E+01  8.27178905220E+01  0.00000000000E+00  0.00000000000E+00  1.
       25    2    1    2    0    0  0.00000000000E+00  0.00000000000E+00 -3.54919742116E+01  1.29943806832E+02  1.25002850770E+02  0.00000000000E+00  1.
       22    1    3    3    0    0 -2.70376395176E+01  5.56172839175E+01 -8.32624826931E+00  6.23990595384E+01  0.00000000000E+00  0.00000000000E+00  1.
       22    1    3    3    0    0  2.70376395176E+01 -5.56172839175E+01 -2.71657259423E+01  6.75447472940E+01  0.00000000000E+00  0.00000000000E+00  1.
</event>
<event>
 5   0   1.0000000E+00   6.2495459E+01   7.8125000E-03   1.3829108E-01
       21   -1    0    0  501  502  0.00000000000E+00  0.00000000000E+00  3.00090020981E+01  3.00090020981E+01  0.00000000000E+00  0.00000000000E+00  1.
       21   -1    0    0  502  501  0.00000000000E+00  0.00000000000E+00 -1.30150361041E+02  1.30150361041E+02  0.00000000000E+00  0.00000000000E+00  1.
       25    2    1    2    0    0  0.00000000000E+00  0.00000000000E+00 -1.00141358942E+02  1.60159363139E+02  1.24990918991E+02  0.00000000000E+00  1.
       22    1    3    3    0    0  1.79589877925E+01 -2.51189452526E+01 -1.19692672487E+02  1.23611579151E+02  0.00000000000E+00  0.00000000000E+00  1.
       22    1    3    3    0    0 -1.79589877925E+01  2.51189452526E+01  1.95513135441E+01  3.65477839880E+01  0.00000000000E+00  0.00000000000E+00  1.
</event>
<event>
 5   0   1.0000000E+00   6.2497351E+01   7.8125000E-03   1.3829038E-01
       21   -1    0    0  501  502  0.00000000000E+00  0.00000000000E+00  2.66218466109E+01  2.66218466109E+01  0.00000000000E+00  0.00000000000E+00  1.
       21   -1    0    0  502  501  0.00000000000E+00  0.00000000000E+00 -1.46718553582E+02  1.46718553582E+02  0.00000000000E+00  0.00000000000E+00  1.
       25    2    1    2    0    0  0.00000000000E+00  0.00000000000E+00 -1.20096706971E+02  1.73340400193E+02  1.24994701143E+02  0.00000000000E+00  1.
       22    1    3    3    0    0  5.10484964525E+01  2.53300836716E+01 -9.56310471773E+01  1.11323220009E+02  0.00000000000E+00  0.00000000000E+00  1.
       22    1    3    3    0    0 -5.10484964525E+01 -2.53300836716E+01 -2.44656597940E+01  6.20171801844E+01  0.00000000000E+00  0.00000000000E+00  1.
</event>
<event>
 5   0   1.0000000E+00   6.2502048E+01   7.8125000E-03   1.3828862E-01
       21   -1    0    0  501  502  0.00000000000E+00  0.00000000000E+00  1.52566593214E+00  1.52566593214E+00  0.00000000000E+00  0.00000000000E+00  1.
       21   -1    0    0  502  501  0.00000000000E+00  0.00000000000E+00 -2.56052514645E+03  2.56052514645E+03  0.00000000000E+00  0.00000000000E+00  1.
       25    2    1    2    0    0  0.00000000000E+00  0.00000000000E+00 -2.55899948051E+03  2.56205081238E+03  1.25004095682E+02  0.00000000000E+00  1.
       22    1    3    3    0    0 -5.75268547818E+00 -9.71330232246E+00 -1.95429836965E+01  2.25692233801E+01  0.00000000000E+00  0.00000000000E+00  1.
       22    1    3    3    0    0  5.75268547818E+00  9.71330232246E+00 -2.53945649682E+03  2.53948158900E+03  3.05175781250E-05  0.00000000000E+00  1.
</event>
<event>
 5   0   1.0000000E+00   6.2501447E+01   7.8125000E-03   1.3828885E-01
       21   -1    0    0  501  502  0.00000000000E+00  0.00000000000E+00  2.55293856846E+02  2.55293856846E+02  0.00000000000E+00  0.00000000000E+00  1.
       21   -1    0    0  502  501  0.00000000000E+00  0.00000000000E+00 -1.53017033126E+01  1.53017033126E+01  0.00000000000E+00  0.00000000000E+00  1.
       25    2    1    2    0    0  0.00000000000E+00  0.00000000000E+00  2.39992153533E+02  2.70595560158E+02  1.25002893646E+02  0.00000000000E+00  1.
       22    1    3    3    0    0  1.37920977599E+01  5.96971187161E+01  9.32670771728E+01  1.11591736379E+02  0.00000000000E+00  0.00000000000E+00  1.
       22    1    3    3    0    0 -1.37920977599E+01 -5.96971187161E+01  1.46725076360E+02  1.59003823780E+02  0.00000000000E+00  0.00000000000E+00  1.
</event>
<event>
 5   0   1.0000000E+00   6.2500510E+01   7.8125000E-03   1.3828920E-01
       21   -1    0    0  501  502  0.00000000000E+00  0.00000000000E+00  6.53405705986E+00  6.53405705986E+00  0.00000000000E+00  0.00000000000E+00  1.
       21   -1    0    0  502  501  0.00000000000E+00  0.00000000000E+00 -5.97838949108E+02  5.97838949108E+02  0.00000000000E+00  0.00000000000E+00  1.
       25    2    1    2    0    0  0.00000000000E+00  0.00000000000E+00 -5.91304892048E+02  6.04373006168E+02  1.25001020893E+02  0.00000000000E+00  1.
       22    1    3    3    0    0 -3.50269669303E+01  1.68280340052E+01 -5.89749875521E+01  7.06266259819E+01  0.00000000000E+00  0.00000000000E+00  1.
       22    1    3    3    0    0  3.50269669303E+01 -1.68280340052E+01 -5.32329904496E+02  5.33746380186E+02  0.00000000000E+00  0.00000000000E+00  1.
</event>
<event>
 5   0   1.0000000E+00   6.2501075E+01   7.8125000E-03   1.3828898E-01
       21   -1    0    0  501  502  0.00000000000E+00  0.00000000000E+00  2.16245575072E+02  2.16245575072E+02  0.00000000000E+00  0.00000000000E+00  1.
       21   -1    0    0  502  501  0.00000000000E+00  0.00000000000E+00 -1.80645746064E+01  1.80645746064E+01  0.00000000000E+00  0.00000000000E+00  1.
       25    2    1    2    0    0  0.00000000000E+00  0.00000000000E+00  1.98181000466E+02  2.34310149679E+02  1.25002149169E+02  0.00000000000E+00  1.
       22    1    3    3    0    0  1.18893651431E+01  7.05007544607E+00 -1.51636419087E+01  2.05182017544E+01  0.00000000000E+00  0.00000000000E+00  1.
       22    1    3    3    0    0 -1.18893651431E+01 -7.05007544607E+00  2.13344642374E+02  2.13791947924E+02  0.00000000000E+00  0.00000000000E+00  1.
</event>
<event>
 5   0   1.0000000E+00   6.2498753E+01   7.8125000E-03   1.3828985E-01
       21   -1    0    0  501  502  0.00000000000E+00  0.00000000000E+00  1.27066503251E+01  1.27066503251E+01  0.00000000000E+00  0.00000000000E+00  1.
       21   -1    0    0  502  501  0.00000000000E+00  0.00000000000E+00 -3.07405490933E+02  3.07405490933E+02  0.00000000000E+00  0.00000000000E+00  1.
       25    2    1    2    0    0  0.00000000000E+00  0.00000000000E+00 -2.94698840608E+02  3.20112141258E+02  1.24997505276E+02  0.00000000000E+00  1.
       22    1    3    3    0    0 -5.29256378140E+01 -5.91399945167E+00 -2.31120051464E+02  2.37176256645E+02  0.00000000000E+00  0.00000000000E+00  1.
       22    1    3    3    0    0  5.29256378140E+01  5.91399945167E+00 -6.35787891442E+01  8.29358846132E+01  0.00000000000E+00  0.00000000000E+00  1.
</event>
<event>
 5   0   1.0000000E+00   6.2498863E+01   7.8125000E-03   1.3828981E-01
       21   -1    0    0  501  502  0.00000000000E+00  0.00000000000E+00  1.48715015232E+01  1.48715015232E+01  0.00000000000E+00  0.00000000000E+00  1.
       21   -1    0    0  502  501  0.00000000000E+00  0.00000000000E+00 -2.62657262322E+02  2.62657262322E+02  0.00000000000E+00  0.00000000000E+00  1.
       25    2    1    2    0    0  0.00000000000E+00  0.00000000000E+00 -2.47785760799E+02  2.77528763845E+02  1.24997726007E+02  0.00000000000E+00  1.
       22    1    3    3    0    0  3.44649274950E+01 -4.35825188139E+01 -6.03589679374E+01  8.20394550437E+01  0.00000000000E+00  0.00000000000E+00  1.
       22    1    3    3    0    0 -3.44649274950E+01  4.35825188139E+01 -1.87426792862E+02  1.95489308802E+02  0.00000000000E+00  0.00000000000E+00  1.
</event>
<event>
 5   0   1.0000000E+00   6.2499376E+01   7.8125000E-03   1.3828962E-01
       21   -1    0    0  501  502  0.00000000000E+00  0.00000000000E+00  9.68788639445E+01  9.68788639445E+01  0.00000000000E+00  0.00000000000E+00  1.
       21   -1    0    0  502  501  0.00000000000E+00  0.00000000000E+00 -4.03201666899E+01  4.03201666899E+01  0.00000000000E+00  0.00000000000E+00  1.
       25    2    1    2    0    0  0.00000000000E+00  0.00000000000E+00  5.65586972546E+01  1.37199030634E+02  1.24998751081E+02  0.00000000000E+00  1.
       22    1    3    3    0    0 -5.44460330988E+01  3.01884221750E+01  2.22215543576E+01  6.61022604128E+01  0.00000000000E+00  0.00000000000E+00  1.
       22    1    3    3    0    0  5.44460330988E+01 -3.01884221750E+01  3.43371428970E+01  7.10967702216E+01  0.00000000000E+00  0.00000000000E+00  1.
</event>
<event>
 5   0   1.0000000E+00   6.2500456E+01   7.8125000E-03   1.3828922E-01
       21   -1    0    0  501  502  0.00000000000E+00  0.00000000000E+00  2.11686362107E+01  2.11686362107E+01  0.00000000000E+00  0.00000000000E+00  1.
       21   -1    0    0  502  501  0.00000000000E+00  0.00000000000E+00 -1.84532765186E+02  1.84532765186E+02  0.00000000000E+00  0.00000000000E+00  1.
       25    2    1    2    0    0  0.00000000000E+00  0.00000000000E+00 -1.63364128976E+02  2.05701401397E+02  1.25000911600E+02  0.00000000000E+00  1.
       22    1    3    3    0    0 -3.23334003096E+01  5.22457312287E+01 -6.28299483590E+01  8.78787096969E+01  0.00000000000E+00  0.00000000000E+00  1.
       22    1    3    3    0    0  3.23334003096E+01 -5.22457312287E+01 -1.00534180617E+02  1.17822691700E+02  0.00000000000E+00  0.00000000000E+00  1.
</event>
<event>
 5   0   1.0000000E+00   6.2488411E+01   7.8125000E-03   1.3829371E-01
       21   -1    0    0  501  502  0.00000000000E+00  0.00000000000E+00  9.76696414833E+01  9.76696414833E+01  0.00000000000E+00  0.00000000000E+00  1.
       21   -1    0    0  502  501  0.00000000000E+00  0.00000000000E+00 -3.99796844973E+01  3.99796844973E+01  0.00000000000E+00  0.00000000000E+00  1.
       25    2    1    2    0    0  0.00000000000E+00  0.00000000000E+00  5.76899569860E+01  1.37649325981E+02  1.24976821074E+02  0.00000000000E+00  1.
       22    1    3    3    0    0  3.14991568958E+00  5.83450544163E+01  5.32437375040E+01  7.90503822071E+01  0.00000000000E+00  0.00000000000E+00  1.
       22    1    3    3    0    0 -3.14991568958E+00 -5.83450544163E+01  4.44621948198E+00  5.85989437735E+01  0.00000000000E+00  0.00000000000E+00  1.
</event>
<event>
 5   0   1.0000000E+00   6.2505341E+01   7.8125000E-03   1.3828739E-01
       21   -1    0    0  501  502  0.00000000000E+00  0.00000000000E+00  2.34677425087E+02  2.34677425087E+02  0.00000000000E+00  0.00000000000E+00  1.
       21   -1    0    0  502  501  0.00000000000E+00  0.00000000000E+00 -1.66480338348E+01  1.66480338348E+01  0.00000000000E+00  0.00000000000E+00  1.
       25    2    1    2    0    0  0.00000000000E+00  0.00000000000E+00  2.18029391253E+02  2.51325458922E+02  1.25010682953E+02  0.00000000000E+00  1.
       22    1    3    3    0    0 -5.80180570764E+01 -9.97882308127E+00  6.67838598633E+01  8.90267139417E+01  0.00000000000E+00  0.00000000000E+00  1.
       22    1    3    3    0    0  5.80180570764E+01  9.97882308127E+00  1.51245531389E+02  1.62298744981E+02  0.00000000000E+00  0.00000000000E+00  1.
</event>
<event>
 5   0   1.0000000E+00   6.2500315E+01   7.8125000E-03   1.3828927E-01
       21   -1    0    0  501  502  0.00000000000E+00  0.00000000000E+00  1.00819789500E+02  1.00819789500E+02  0.00000000000E+00  0.00000000000E+00  1.
       21   -1    0    0  502  501  0.00000000000E+00  0.00000000000E+00 -3.87452647551E+01  3.87452647551E+01  0.00000000000E+00  0.00000000000E+00  1.
       25    2    1    2    0    0  0.00000000000E+00  0.00000000000E+00  6.20745247453E+01  1.39565054256E+02  1.25000630986E+02  0.00000000000E+00  1.
       22    1    3    3    0    0 -3.28923989063E+01 -2.04528215928E+01 -2.37295994449E+01  4.54238011039E+01  0.00000000000E+00  0.00000000000E+00  1.
       22    1    3    3    0    0  3.28923989063E+01  2.04528215928E+01  8.58041241902E+01  9.41412531516E+01  0.00000000000E+00  0.00000000000E+00  1.
</event>
<event>
 5   0   1.0000000E+00   6.2498992E+01   7.8125000E-03   1.3828976E-01
       21   -1    0    0  501  502  0.00000000000E+00  0.00000000000E+00  1.98118066431E+01  1.98118066431E+01  0.00000000000E+00  0.00000000000E+00  1.
       21   -1    0    0  502  501  0.00000000000E+00  0.00000000000E+00 -1.97161426256E+02  1.97161426256E+02  0.00000000000E+00  0.00000000000E+00  1.
       25    2    1    2    0    0  0.00000000000E+00  0.00000000000E+00 -1.77349619613E+02  2.16973232899E+02  1.24997984855E+02  0.00000000000E+00  1.
       22    1    3    3    0    0  2.14512772803E+01 -3.97832584975E+00  1.29872842610E+01  2.53900359590E+01  0.00000000000E+00  0.00000000000E+00  1.
       22    1    3    3    0    0 -2.14512772803E+01  3.97832584975E+00 -1.90336903874E+02  1.91583196940E+02  0.00000000000E+00  0.00000000000E+00  1.
</event>
<event>
 5   0   1.0000000E+00   6.2498150E+01   7.8125000E-03   1.3829008E-01
       21   -1    0    0  501  502  0.00000000000E+00  0.00000000000E+00  1.09589246505E+01  1.09589246505E+01  0.00000000000E+00  0.00000000000E+00  1.
       21   -1    0    0  502  501  0.00000000000E+00  0.00000000000E+00 -3.56423546729E+02  3.56423546729E+02  0.00000000000E+00  0.00000000000E+00  1.
       25    2    1    2    0    0  0.00000000000E+00  0.00000000000E+00 -3.45464622078E+02  3.67382471379E+02  1.24996300622E+02  0.00000000000E+00  1.
       22    1    3    3    0    0  4.10208495256E+01 -4.25947537206E+01 -2.32172559619E+02  2.39585309609E+02  0.00000000000E+00  0.00000000000E+00  1.
       22    1    3    3    0    0 -4.10208495256E+01  4.25947537206E+01 -1.13292062460E+02  1.27797161771E+02  0.00000000000E+00  0.00000000000E+00  1.
</event>
<event>
 5   0   1.0000000E+00   6.2500555E+01   7.8125000E-03   1.3828918E-01
       21   -1    0    0  501  502  0.00000000000E+00  0.00000000000E+00  5.41437030221E+02  5.41437030221E+02  0.00000000000E+00  0.00000000000E+00  1.
       21   -1    0    0  502  501  0.00000000000E+00  0.00000000000E+00 -7.21472508874E+00  7.21472508874E+00  0.00000000000E+00  0.00000000000E+00  1.
       25    2    1    2    0    0  0.00000000000E+00  0.00000000000E+00  5.34222305133E+02  5.48651755310E+02  1.25001109210E+02  0.00000000000E+00  1.
       22    1    3    3    0    0 -5.41836209635E+01  2.55846715242E+01  1.89102393106E+02  1.98368735632E+02  0.00000000000E+00  0.00000000000E+00  1.
       22    1    3    3    0    0  5.41836209635E+01 -2.55846715242E+01  3.45119912027E+02  3.50283019678E+02  0.00000000000E+00  0.00000000000E+00  1.
</event>
<event>
 5   0   1.0000000E+00   6.2500711E+01   7.8125000E-03   1.3828912E-01
       21   -1    0    0  501  502  0.00000000000E+00  0.00000000000E+00  2.11776055746E+01  2.11776055746E+01  0.00000000000E+00  0.00000000000E+00  1.
       21   -1    0    0  502  501  0.00000000000E+00  0.00000000000E+00 -1.84456113396E+02  1.84456113396E+02  0.00000000000E+00  0.00000000000E+00  1.
       25    2    1    2    0    0  0.00000000000E+00  0.00000000000E+00 -1.63278507822E+02  2.05633718971E+02  1.25001421037E+02  0.00000000000E+00  1.
       22    1    3    3    0    0  1.36049617981E+01  6.01425609467E+01 -9.84249176511E+01  1.16145111982E+02  0.00000000000E+00  0.00000000000E+00  1.
       22    1    3    3    0    0 -1.36049617981E+01 -6.01425609467E+01 -6.48535901707E+01  8.94886069888E+01  0.00000000000E+00  0.00000000000E+00  1.
</event>
<event>
 5   0   1.0000000E+00   6.2501378E+01   7.8125000E-03   1.3828887E-01
       21   -1    0    0  501  502  0.00000000000E+00  0.00000000000E+00  5.83016339772E+01  5.83016339772E+01  0.00000000000E+00  0.00000000000E+00  1.
       21   -1    0    0  502  501  0.00000000000E+00  0.00000000000E+00 -6.70036494198E+01  6.70036494198E+01  0.00000000000E+00  0.00000000000E+00  1.
       25    2    1    2    0    0  0.00000000000E+00  0.00000000000E+00 -8.70201544261E+00  1.25305283397E+02  1.25002755867E+02  0.00000000000E+00  1.
       22    1    3    3    0    0  4.05938963931E+01  1.89131553806E+01  3.93532513011E+01  5.96175331491E+01  0.00000000000E+00  0.00000000000E+00  1.
       22    1    3    3    0    0 -4.05938963931E+01 -1.89131553806E+01 -4.80552667437E+01  6.56877502479E+01  0.00000000000E+00  0.00000000000E+00  1.
</event>
<event>
 5   0   1.0000000E+00   6.2499723E+01   7.8125000E-03   1.3828949E-01
       21   -1    0    0  501  502  0.00000000000E+00  0.00000000000E+00  3.51770334264E+02  3.51770334264E+02  0.00000000000E+00  0.00000000000E+00  1.
       21   -1    0    0  502  501  0.00000000000E+00  0.00000000000E+00 -1.11044480714E+01  1.11044480714E+01  0.00000000000E+00  0.00000000000E+00  1.
       25    2    1    2    0    0  0.00000000000E+00  0.00000000000E+00  3.40665886193E+02  3.62874782336E+02  1.24999446557E+02  0.00000000000E+00  1.
       22    1    3    3    0    0  2.15785571457E+01  5.85580916644E+01  1.80190870428E+02  1.90691987282E+02  0.00000000000E+00  0.00000000000E+00  1.
       22    1    3    3    0    0 -2.15785571457E+01 -5.85580916644E+01  1.60475015765E+02  1.72182795054E+02  0.00000000000E+00  0.00000000000E+00  1.
</event>
<event>
 5   0   1.0000000E+00   6.2500094E+01   7.8125000E-03   1.3828935E-01
       21   -1    0    0  501  502  0.00000000000E+00  0.00000000000E+00  5.27747493122E+02  5.27747493122E+02  0.00000000000E+00  0.00000000000E+00  1.
       21   -1    0    0  502  501  0.00000000000E+00  0.00000000000E+00 -7.40176282369E+00  7.40176282369E+00  0.00000000000E+00  0.00000000000E+00  1.
       25    2    1    2    0    0  0.00000000000E+00  0.00000000000E+00  5.20345730298E+02  5.35149255946E+02  1.25000188398E+02  0.00000000000E+00  1.
       22    1    3    3    0    0  4.88103809480E+01  3.80280881440E+01  2.97903950190E+02  3.04261979740E+02  0.00000000000E+00  0.00000000000E+00  1.
       22    1    3    3    0    0 -4.88103809480E+01 -3.80280881440E+01  2.22441780108E+02  2.30887276206E+02  0.00000000000E+00  0.00000000000E+00  1.
</event>
<event>
 5   0   1.0000000E+00   6.2497816E+01   7.8125000E-03   1.3829020E-01
       21   -1    0    0  501  502  0.00000000000E+00  0.00000000000E+00  5.70911385393E+01  5.70911385393E+01  0.00000000000E+00  0.00000000000E+00  1.
       21   -1    0    0  502  501  0.00000000000E+00  0.00000000000E+00 -6.84165200280E+01  6.84165200280E+01  0.00000000000E+00  0.00000000000E+00  1.
       25    2    1    2    0    0  0.00000000000E+00  0.00000000000E+00 -1.13253814887E+01  1.25507658567E+02  1.24995632296E+02  0.00000000000E+00  1.
       22    1    3    3    0    0  4.80033015840E+00  3.41323689382E+00  5.68118234146E+01  5.71163429800E+01  0.00000000000E+00  0.00000000000E+00  1.
       22    1    3    3    0    0 -4.80033015840E+00 -3.41323689382E+00 -6.81372049033E+01  6.83913155873E+01  0.00000000000E+00  0.00000000000E+00  1.
</event>
<event>
 5   0   1.0000000E+00   6.2499267E+01   7.8125000E-03   1.3828966E-01
       21   -1    0    0  501  502  0.00000000000E+00  0.00000000000E+00  2.60968718058E+01  2.60968718058E+01  0.00000000000E+00  0.00000000000E+00  1.
       21   -1    0    0  502  501  0.00000000000E+00  0.00000000000E+00 -1.49679178776E+02  1.49679178776E+02  0.00000000000E+00  0.00000000000E+00  1.
       25    2    1    2    0    0  0.00000000000E+00  0.00000000000E+00 -1.23582306971E+02  1.75776050582E+02  1.24998533440E+02  0.00000000000E+00  1.
       22    1    3    3    0    0  1.81368065237E+01 -5.04488999532E+01 -1.66138266207E+01  5.61253462560E+01  0.00000000000E+00  0.00000000000E+00  1.
       22    1    3    3    0    0 -1.81368065237E+01  5.04488999532E+01 -1.06968480350E+02  1.19650704326E+02  0.00000000000E+00  0.00000000000E+00  1.
</event>
<event>
 5   0   1.0000000E+00   6.2502048E+01   7.8125000E-03   1.3828862E-01
       21   -1    0    0  501  502  0.00000000000E+00  0.00000000000E+00  6.29098234717E+01  6.29098234717E+01  0.00000000000E+00  0.00000000000E+00  1.
       21   -1    0    0  502  501  0.00000000000E+00  0.00000000000E+00 -6.20969166088E+01  6.20969166088E+01  0.00000000000E+00  0.00000000000E+00  1.
       25    2    1    2    0    0  0.00000000000E+00  0.00000000000E+00  8.12906862954E-01  1.25006740081E+02  1.25004096925E+02  0.00000000000E+00  1.
       22    1    3    3    0    0 -9.95036476162E+00 -2.21248601896E+01 -5.71967338143E+01  6.21287820284E+01  0.00000000000E+00  0.00000000000E+00  1.
       22    1    3    3    0    0  9.95036476162E+00  2.21248601896E+01  5.80096406773E+01  6.28779580522E+01  0.00000000000E+00  0.00000000000E+00  1.
</event>
<event>
 5   0   1.0000000E+00   6.2500756E+01   7.8125000E-03   1.3828910E-01
       21   -1    0    0  501  502  0.00000000000E+00  0.00000000000E+00  4.39993247835E+01  4.39993247835E+01  0.00000000000E+00  0.00000000000E+00  1.
       21   -1    0    0  502  501  0.00000000000E+00  0.00000000000E+00 -8.87819181333E+01  8.87819181333E+01  0.00000000000E+00  0.00000000000E+00  1.
       25    2    1    2    0    0  0.00000000000E+00  0.00000000000E+00 -4.47825933498E+01  1.32781242917E+02  1.25001511204E+02  0.00000000000E+00  1.
       22    1    3    3    0    0 -2.41259008793E+01  1.72674234703E+01 -8.08251656938E+01  8.60983763840E+01  0.00000000000E+00  0.00000000000E+00  1.
       22    1    3    3    0    0  2.41259008793E+01 -1.72674234703E+01  3.60425723440E+01  4.66828665327E+01  0.00000000000E+00  0.00000000000E+00  1.
</event>
<event>
 5   0   1.0000000E+00   6.2497500E+01   7.8125000E-03   1.3829032E-01
       21   -1    0    0  501  502  0.00000000000E+00  0.00000000000E+00  6.35113852817E+01  6.35113852817E+01  0.00000000000E+00  0.00000000000E+00  1.
       21   -1    0    0  502  501  0.00000000000E+00  0.00000000000E+00 -6.14998004220E+01  6.14998004220E+01  0.00000000000E+00  0.00000000000E+00  1.
       25    2    1    2    0    0  0.00000000000E+00  0.00000000000E+00  2.01158485962E+00  1.25011185704E+02  1.24995000210E+02  0.00000000000E+00  1.
       22    1    3    3    0    0 -3.24211063632E+00 -6.23691004530E+01  3.35589385457E+00  6.25434088954E+01  0.00000000000E+00  0.00000000000E+00  1.
       22    1    3    3    0    0  3.24211063632E+00  6.23691004530E+01 -1.34430899495E+00  6.24677768083E+01  0.00000000000E+00  0.00000000000E+00  1.
</event>
<event>
 5   0   1.0000000E+00   6.2501254E+01   7.8125000E-03   1.3828892E-01
       21   -1    0    0  501  502  0.00000000000E+00  0.00000000000E+00  2.21269441761E+02  2.21269441761E+02  0.00000000000E+00  0.00000000000E+00  1.
       21   -1    0    0  502  501  0.00000000000E+00  0.00000000000E+00 -1.76545241836E+01  1.76545241836E+01  0.00000000000E+00  0.00000000000E+00  1.
       25    2    1    2    0    0  0.00000000000E+00  0.00000000000E+00  2.03614917578E+02  2.38923965945E+02  1.25002507346E+02  0.00000000000E+00  1.
       22    1    3    3    0    0 -2.19636877992E+01  5.43327985571E+01  6.02844279690E+01  8.40753759215E+01  0.00000000000E+00  0.00000000000E+00  1.
       22    1    3    3    0    0  2.19636877992E+01 -5.43327985571E+01  1.43330489609E+02  1.54848590023E+02  0.00000000000E+00  0.00000000000E+00  1.
</event>
<event>
 5   0   1.0000000E+00   6.2499096E+01   7.8125000E-03   1.3828972E-01
       21   -1    0    0  501  502  0.00000000000E+00  0.00000000000E+00  1.33318550646E+02  1.33318550646E+02  0.00000000000E+00  0.00000000000E+00  1.
       21   -1    0    0  502  501  0.00000000000E+00  0.00000000000E+00 -2.92992760994E+01  2.92992760994E+01  0.00000000000E+00  0.00000000000E+00  1.
       25    2    1    2    0    0  0.00000000000E+00  0.00000000000E+00  1.04019274547E+02  1.62617826746E+02  1.24998192380E+02  0.00000000000E+00  1.
       22    1    3    3    0    0  1.25678676282E+01  1.18965817260E+01 -2.61201866254E+01  3.13327959626E+01  0.00000000000E+00  0.00000000000E+00  1.
       22    1    3    3    0    0 -1.25678676282E+01 -1.18965817260E+01  1.30139461172E+02  1.31285030783E+02  0.00000000000E+00  0.00000000000E+00  1.
</event>
<event>
 5   0   1.0000000E+00   6.2500207E+01   7.8125000E-03   1.3828931E-01
       21   -1    0    0  501  502  0.00000000000E+00  0.00000000000E+00  6.91210094491E+01  6.91210094491E+01  0.00000000000E+00  0.00000000000E+00  1.
       21   -1    0    0  502  501  0.00000000000E+00  0.00000000000E+00 -5.65135827776E+01  5.65135827776E+01  0.00000000000E+00  0.00000000000E+00  1.
       25    2    1    2    0    0  0.00000000000E+00  0.00000000000E+00  1.26074266715E+01  1.25634592227E+02  1.25000414226E+02  0.00000000000E+00  1.
       22    1    3    3    0    0 -2.01839917218E+01  1.61187369747E+01  6.35052717613E+01  6.85574703804E+01  0.00000000000E+00  0.00000000000E+00  1.
       22    1    3    3    0    0  2.01839917218E+01 -1.61187369747E+01 -5.08978450897E+01  5.70771218464E+01  0.00000000000E+00  0.00000000000E+00  1.
</event>
<event>
 5   0   1.0000000E+00   6.2500799E+01   7.8125000E-03   1.3828909E-01
       21   -1    0    0  501  502  0.00000000000E+00  0.00000000000E+00  6.11719721492E+00  6.11719721492E+00  0.00000000000E+00  0.00000000000E+00  1.
       21   -1    0    0  502  501  0.00000000000E+00  0.00000000000E+00 -6.38584913063E+02  6.38584913063E+02  0.00000000000E+00  0.00000000000E+00  1.
       25    2    1    2    0    0  0.00000000000E+00  0.00000000000E+00 -6.32467715848E+02  6.44702110278E+02  1.25001597617E+02  0.00000000000E+00  1.
       22    1    3    3    0    0  4.42534490139E+01  2.67890584628E+01 -1.35327403816E+02  1.44877629834E+02  0.00000000000E+00  0.00000000000E+00  1.
       22    1    3    3    0    0 -4.42534490139E+01 -2.67890584628E+01 -4.97140312032E+02  4.99824480444E+02  0.00000000000E+00  0.00000000000E+00  1.
</event>
<event>
 5   0   1.0000000E+00   6.2500440E+01   7.8125000E-03   1.3828922E-01
       21   -1    0    0  501  502  0.00000000000E+00  0.00000000000E+00  2.90642621764E+02  2.90642621764E+02  0.00000000000E+00  0.00000000000E+00  1.
       21   -1    0    0  502  501  0.00000000000E+00  0.00000000000E+00 -1.34402344799E+01  1.34402344799E+01  0.00000000000E+00  0.00000000000E+00  1.
       25    2    1    2    0    0  0.00000000000E+00  0.00000000000E+00  2.77202387285E+02  3.04082856244E+02  1.25000879779E+02  0.00000000000E+00  1.
       22    1    3    3    0    0 -3.26099972543E+01 -3.37710338402E+01  2.38972826723E+02  2.43540359200E+02  0.00000000000E+00  0.00000000000E+00  1.
       22    1    3    3    0    0  3.26099972543E+01  3.37710338402E+01  3.82295605618E+01  6.05424970439E+01  0.00000000000E+00  0.00000000000E+00  1.
</event>
<event>
 5   0   1.0000000E+00   6.2499806E+01   7.8125000E-03   1.3828946E-01
       21   -1    0    0  501  502  0.00000000000E+00  0.00000000000E+00  2.73343976067E+02  2.73343976067E+02  0.00000000000E+00  0.00000000000E+00  1.
       21   -1    0    0  502  501  0.00000000000E+00  0.00000000000E+00 -1.42905131736E+01  1.42905131736E+01  0.00000000000E+00  0.00000000000E+00  1.
       25    2    1    2    0    0  0.00000000000E+00  0.00000000000E+00  2.59053462893E+02  2.87634489240E+02  1.24999611054E+02  0.00000000000E+00  1.
       22    1    3    3    0    0 -2.35956086088E+01  1.23717876115E+01  2.59622646948E+02  2.60986077565E+02  0.00000000000E+00  0.00000000000E+00  1.
       22    1    3    3    0    0  2.35956086088E+01 -1.23717876115E+01 -5.69184055250E-01  2.66484116752E+01  0.00000000000E+00  0.00000000000E+00  1.
</event>
<event>
 5   0   1.0000000E+00   6.2499960E+01   7.8125000E-03   1.3828940E-01
       21   -1    0    0  501  502  0.00000000000E+00  0.00000000000E+00  1.18338094579E+02  1.18338094579E+02  0.00000000000E+00  0.00000000000E+00  1.
       21   -1    0    0  502  501  0.00000000000E+00  0.00000000000E+00 -3.30091929504E+01  3.30091929504E+01  0.00000000000E+00  0.00000000000E+00  1.
       25    2    1    2    0    0  0.00000000000E+00  0.00000000000E+00  8.53289016285E+01  1.51347287529E+02  1.24999919957E+02  0.00000000000E+00  1.
       22    1    3    3    0    0  3.78613414054E+01  4.06158585789E+01  7.74016973476E+01  9.52583429071E+01  0.00000000000E+00  0.00000000000E+00  1.
       22    1    3    3    0    0 -3.78613414054E+01 -4.06158585789E+01  7.92720428091E+00  5.60889446222E+01  0.00000000000E+00  0.00000000000E+00  1.
</event>
<event>
 5   0   1.0000000E+00   6.2499954E+01   7.8125000E-03   1.3828940E-01
       21   -1    0    0  501  502  0.00000000000E+00  0.00000000000E+00  5.56386709695E+00  5.56386709695E+00  0.00000000000E+00  0.00000000000E+00  1.
       21   -1    0    0  502  501  0.00000000000E+00  0.00000000000E+00 -7.02073615065E+02  7.02073615065E+02  0.00000000000E+00  0.00000000000E+00  1.
       25    2    1    2    0    0  0.00000000000E+00  0.00000000000E+00 -6.96509747968E+02  7.07637482162E+02  1.24999908584E+02  0.00000000000E+00  1.
       22    1    3    3    0    0  2.39779986370E+01 -3.35313068448E+01 -8.23063949247E+01  9.20523525113E+01  0.00000000000E+00  0.00000000000E+00  1.
       22    1    3    3    0    0 -2.39779986370E+01  3.35313068448E+01 -6.14203353044E+02  6.15585129651E+02  1.52587890625E-05  0.00000000000E+00  1.
</event>
<event>
 5   0   1.0000000E+00   6.2501032E+01   7.8125000E-03   1.3828900E-01
       21   -1    0    0  501  502  0.00000000000E+00  0.00000000000E+00  5.21724902736E+00  5.21724902736E+00  0.00000000000E+00  0.00000000000E+00  1.
       21   -1    0    0  502  501  0.00000000000E+00  0.00000000000E+00 -7.48743060689E+02  7.48743060689E+02  0.00000000000E+00  0.00000000000E+00  1.
       25    2    1    2    0    0  0.00000000000E+00  0.00000000000E+00 -7.43525811662E+02  7.53960309716E+02  1.25002064065E+02  0.00000000000E+00  1.
       22    1    3    3    0    0  4.98456949269E+01  2.08155595102E+01 -1.82127581851E+02  1.89969305130E+02  0.00000000000E+00  0.00000000000E+00  1.
       22    1    3    3    0    0 -4.98456949269E+01 -2.08155595102E+01 -5.61398229811E+02  5.63991004587E+02  0.00000000000E+00  0.00000000000E+00  1.
</event>
<event>
 5   0   1.0000000E+00   6.2495051E+01   7.8125000E-03   1.3829123E-01
       21   -1    0    0  501  502  0.00000000000E+00  0.00000000000E+00  7.57036069660E+01  7.57036069660E+01  0.00000000000E+00  0.00000000000E+00  1.
       21   -1    0    0  502  501  0.00000000000E+00  0.00000000000E+00 -5.15910878733E+01  5.15910878733E+01  0.00000000000E+00  0.00000000000E+00  1.
       25    2    1    2    0    0  0.00000000000E+00  0.00000000000E+00  2.41125190927E+01  1.27294694839E+02  1.24990102637E+02  0.00000000000E+00  1.
       22    1    3    3    0    0 -4.71409756474E+01 -9.52512668556E-01  5.38302626860E+01  7.15602965772E+01  0.00000000000E+00  0.00000000000E+00  1.
       22    1    3    3    0    0  4.71409756474E+01  9.52512668556E-01 -2.97177435933E+01  5.57343982622E+01  0.00000000000E+00  0.00000000000E+00  1.
</event>
<event>
 5   0   1.0000000E+00   6.2500364E+01   7.8125000E-03   1.3828925E-01
       21   -1    0    0  501  502  0.00000000000E+00  0.00000000000E+00  7.06658589709E+01  7.06658589709E+01  0.00000000000E+00  0.00000000000E+00  1.
       21   -1    0    0  502  501  0.00000000000E+00  0.00000000000E+00 -5.52783989350E+01  5.52783989350E+01  0.00000000000E+00  0.00000000000E+00  1.
       25    2    1    2    0    0  0.00000000000E+00  0.00000000000E+00  1.53874600359E+01  1.25944257906E+02  1.25000728690E+02  0.00000000000E+00  1.
       22    1    3    3    0    0 -3.39456455925E+01  3.86789739339E+01  4.34286912976E+01  6.73381103618E+01  0.00000000000E+00  0.00000000000E+00  1.
       22    1    3    3    0    0  3.39456455925E+01 -3.86789739339E+01 -2.80412312617E+01  5.86061475440E+01  0.00000000000E+00  0.00000000000E+00  1.
</event>
<event>
 5   0   1.0000000E+00   6.2501112E+01   7.8125000E-03   1.3828897E-01
       21   -1    0    0  501  502  0.00000000000E+00  0.00000000000E+00  1.31964315812E+02  1.31964315812E+02  0.00000000000E+00  0.00000000000E+00  1.
       21   -1    0    0  502  501  0.00000000000E+00  0.00000000000E+00 -2.96018581677E+01  2.96018581677E+01  0.00000000000E+00  0.00000000000E+00  1.
       25    2    1    2    0    0  0.00000000000E+00  0.00000000000E+00  1.02362457644E+02  1.61566173980E+02  1.25002223338E+02  0.00000000000E+00  1.
       22    1    3    3    0    0  2.02000919037E+01 -5.66521804051E+01  2.92133456533E+01  6.68650343739E+01  0.00000000000E+00  0.00000000000E+00  1.
       22    1    3    3    0    0 -2.02000919037E+01  5.66521804051E+01  7.31491119911E+01  9.47011396059E+01  0.00000000000E+00  0.00000000000E+00  1.
</event>
<event>
 5   0   1.0000000E+00   6.2498443E+01   7.8125000E-03   1.3828997E-01
       21   -1    0    0  501  502  0.00000000000E+00  0.00000000000E+00  8.15930515899E+01  8.15930515899E+01  0.00000000000E+00  0.00000000000E+00  1.
       21   -1    0    0  502  501  0.00000000000E+00  0.00000000000E+00 -4.78724023945E+01  4.78724023945E+01  0.00000000000E+00  0.00000000000E+00  1.
       25    2    1    2    0    0  0.00000000000E+00  0.00000000000E+00  3.37206491954E+01  1.29465453984E+02  1.24996886334E+02  0.00000000000E+00  1.
       22    1    3    3    0    0  3.18153245749E+01 -2.63025305929E+01  6.54635484921E+01  7.73919516137E+01  0.00000000000E+00  0.00000000000E+00  1.
       22    1    3    3    0    0 -3.18153245749E+01  2.63025305929E+01 -3.17428992967E+01  5.20735023708E+01  0.00000000000E+00  0.00000000000E+00  1.
</event>
<event>
 5   0   1.0000000E+00   6.2498176E+01   7.8125000E-03   1.3829007E-01
       21   -1    0    0  501  502  0.00000000000E+00  0.00000000000E+00  3.32664799638E+00  3.32664799638E+00  0.00000000000E+00  0.00000000000E+00  1.
       21   -1    0    0  502  501  0.00000000000E+00  0.00000000000E+00 -1.17416150411E+03  1.17416150411E+03  0.00000000000E+00  0.00000000000E+00  1.
       25    2    1    2    0    0  0.00000000000E+00  0.00000000000E+00 -1.17083485612E+03  1.17748815211E+03  1.24996352188E+02  0.00000000000E+00  1.
       22    1    3    3    0    0 -1.05478465906E+01 -2.45196757958E+01 -1.11776600483E+03  1.11808466277E+03  2.15791864376E-05  0.00000000000E+00  1.
       22    1    3    3    0    0  1.05478465906E+01  2.45196757958E+01 -5.30688512919E+01  5.94034893442E+01  0.00000000000E+00  0.00000000000E+00  1.
</event>
<event>
 5   0   1.0000000E+00   6.2495270E+01   7.8125000E-03   1.3829115E-01
       21   -1    0    0  501  502  0.00000000000E+00  0.00000000000E+00  1.19966390867E+01  1.19966390867E+01  0.00000000000E+00  0.00000000000E+00  1.
       21   -1    0    0  502  501  0.00000000000E+00  0.00000000000E+00 -3.25562749189E+02  3.25562749189E+02  0.00000000000E+00  0.00000000000E+00  1.
       25    2    1    2    0    0  0.00000000000E+00  0.00000000000E+00 -3.13566110102E+02  3.37559388276E+02  1.24990540476E+02  0.00000000000E+00  1.
       22    1    3    3    0    0  3.86039916209E+01  1.14179065623E+01 -2.76854331803E+01  4.88581617513E+01  0.00000000000E+00  0.00000000000E+00  1.
       22    1    3    3    0    0 -3.86039916209E+01 -1.14179065623E+01 -2.85880676922E+02  2.88701226524E+02  0.00000000000E+00  0.00000000000E+00  1.
</event>
<event>
 5   0   1.0000000E+00   6.2499473E+01   7.8125000E-03   1.3828958E-01
       21   -1    0    0  501  502  0.00000000000E+00  0.00000000000E+00  9.33254734500E+01  9.33254734500E+01  0.00000000000E+00  0.00000000000E+00  1.
       21   -1    0    0  502  501  0.00000000000E+00  0.00000000000E+00 -4.18554977940E+01  4.18554977940E+01  0.00000000000E+00  0.00000000000E+00  1.
       25    2    1    2    0    0  0.00000000000E+00  0.00000000000E+00  5.14699756560E+01  1.35180971244E+02  1.24998946365E+02  0.00000000000E+00  1.
       22    1    3    3    0    0 -3.09722787918E+00 -4.87479891242E+01 -1.64310824882E+01  5.15358102286E+01  0.00000000000E+00  0.00000000000E+00  1.
       22    1    3    3    0    0  3.09722787918E+00  4.87479891242E+01  6.79010581442E+01  8.36451610154E+01  0.00000000000E+00  0.00000000000E+00  1.
</event>
<event>
 5   0   1.0000000E+00   6.2499562E+01   7.8125000E-03   1.3828955E-01
       21   -1    0    0  501  502  0.00000000000E+00  0.00000000000E+00  1.09425343982E+02  1.09425343982E+02  0.00000000000E+00  0.00000000000E+00  1.
       21   -1    0    0  502  501  0.00000000000E+00  0.00000000000E+00 -3.56973542595E+01  3.56973542595E+01  0.00000000000E+00  0.00000000000E+00  1.
       25    2    1    2    0    0  0.00000000000E+00  0.00000000000E+00  7.37279897226E+01  1.45122698242E+02  1.24999124302E+02  0.00000000000E+00  1.
       22    1    3    3    0    0 -5.68209225096E-01 -4.92535339126E+01  8.15275848025E+01  9.52521944542E+01  0.00000000000E+00  0.00000000000E+00  1.
       22    1    3    3    0    0  5.68209225096E-01  4.92535339126E+01 -7.79959507990E+00  4.98705037874E+01  0.00000000000E+00  0.00000000000E+00  1.
</event>
<event>
 5   0   1.0000000E+00   6.2500752E+01   7.8125000E-03   1.3828911E-01
       21   -1    0    0  501  502  0.00000000000E+00  0.00000000000E+00  4.94683259958E+02  4.94683259958E+02  0.00000000000E+00  0.00000000000E+00  1.
       21   -1    0    0  502  501  0.00000000000E+00  0.00000000000E+00 -7.89665688089E+00  7.89665688089E+00  0.00000000000E+00  0.00000000000E+00  1.
       25    2    1    2    0    0  0.00000000000E+00  0.00000000000E+00  4.86786603077E+02  5.02579916839E+02  1.25001503489E+02  0.00000000000E+00  1.
       22    1    3    3    0    0  1.65598527047E+01  5.20117443610E+01  1.20986695169E+02  1.32729916300E+02  0.00000000000E+00  0.00000000000E+00  1.
       22    1    3    3    0    0 -1.65598527047E+01 -5.20117443610E+01  3.65799907908E+02  3.69850000539E+02  0.00000000000E+00  0.00000000000E+00  1.
</event>
<event>
 5   0   1.0000000E+00   6.2499490E+01   7.8125000E-03   1.3828958E-01
       21   -1    0    0  501  502  0.00000000000E+00  0.00000000000E+00  1.27499348818E+02  1.27499348818E+02  0.00000000000E+00  0.00000000000E+00  1.
       21   -1    0    0  502  501  0.00000000000E+00  0.00000000000E+00 -3.06369112098E+01  3.06369112098E+01  0.00000000000E+00  0.00000000000E+00  1.
       25    2    1    2    0    0  0.00000000000E+00  0.00000000000E+00  9.68624376078E+01  1.58136260027E+02  1.24998979660E+02  0.00000000000E+00  1.
       22    1    3    3    0    0  5.41986584056E+01 -2.53219301925E+01  2.55370428375E+01  6.50448712700E+01  0.00000000000E+00  0.00000000000E+00  1.
       22    1    3    3    0    0 -5.41986584056E+01  2.53219301925E+01  7.13253947703E+01  9.30913887574E+01  0.00000000000E+00  0.00000000000E+00  1.
</event>
<event>
 5   0   1.0000000E+00   6.2499758E+01   7.8125000E-03   1.3828948E-01
       21   -1    0    0  501  502  0.00000000000E+00  0.00000000000E+00  8.83185484579E+01  8.83185484579E+01  0.00000000000E+00  0.00000000000E+00  1.
       21   -1    0    0  502  501  0.00000000000E+00  0.00000000000E+00 -4.42287590274E+01  4.42287590274E+01  0.00000000000E+00  0.00000000000E+00  1.
       25    2    1    2    0    0  0.00000000000E+00  0.00000000000E+00  4.40897894304E+01  1.32547307485E+02  1.24999516757E+02  0.00000000000E+00  1.
       22    1    3    3    0    0 -6.20237954501E+01  2.29167571440E-01  3.02047488310E+01  6.89879016333E+01  0.00000000000E+00  0.00000000000E+00  1.
       22    1    3    3    0    0  6.20237954501E+01 -2.29167571440E-01  1.38850405994E+01  6.35594058520E+01  0.00000000000E+00  0.00000000000E+00  1.
</event>
<event>
 5   0   1.0000000E+00   6.2499648E+01   7.8125000E-03   1.3828952E-01
       21   -1    0    0  501  502  0.00000000000E+00  0.00000000000E+00  5.26883796071E+01  5.26883796071E+01  0.00000000000E+00  0.00000000000E+00  1.
       21   -1    0    0  502  501  0.00000000000E+00  0.00000000000E+00 -7.41379042373E+01  7.41379042373E+01  0.00000000000E+00  0.00000000000E+00  1.
       25    2    1    2    0    0  0.00000000000E+00  0.00000000000E+00 -2.14495246302E+01  1.26826283844E+02  1.24999296666E+02  0.00000000000E+00  1.
       22    1    3    3    0    0 -1.58896973577E+01 -2.55432765968E+01  4.48597550905E+01  5.40123975417E+01  0.00000000000E+00  0.00000000000E+00  1.
       22    1    3    3    0    0  1.58896973577E+01  2.55432765968E+01 -6.63092797207E+01  7.28138863027E+01  0.00000000000E+00  0.00000000000E+00  1.
</event>
<event>
 5   0   1.0000000E+00   6.2501605E+01   7.8125000E-03   1.3828879E-01
       21   -1    0    0  501  502  0.00000000000E+00  0.00000000000E+00  4.42970447242E+01  4.42970447242E+01  0.00000000000E+00  0.00000000000E+00  1.
       21   -1    0    0  502  501  0.00000000000E+00  0.00000000000E+00 -8.81876130545E+01  8.81876130545E+01  0.00000000000E+00  0.00000000000E+00  1.
       25    2    1    2    0    0  0.00000000000E+00  0.00000000000E+00 -4.38905683302E+01  1.32484657779E+02  1.25003210192E+02  0.00000000000E+00  1.
       22    1    3    3    0    0  4.95514510049E+01 -2.00422789399E+01 -5.62787234692E+01  7.76165830034E+01  0.00000000000E+00  0.00000000000E+00  1.
       22    1    3    3    0    0 -4.95514510049E+01  2.00422789399E+01  1.23881551390E+01  5.48680747753E+01  0.00000000000E+00  0.00000000000E+00  1.
</event>
<event>
 5   0   1.0000000E+00   6.2499498E+01   7.8125000E-03   1.3828957E-01
       21   -1    0    0  501  502  0.00000000000E+00  0.00000000000E+00  3.69323544224E+00  3.69323544224E+00  0.00000000000E+00  0.00000000000E+00  1.
       21   -1    0    0  502  501  0.00000000000E+00  0.00000000000E+00 -1.05765995793E+03  1.05765995793E+03  0.00000000000E+00  0.00000000000E+00  1.
       25    2    1    2    0    0  0.00000000000E+00  0.00000000000E+00 -1.05396672249E+03  1.06135319338E+03  1.24998995876E+02  0.00000000000E+00  1.
       22    1    3    3    0    0  2.20676918319E+01  7.93919195144E+00 -3.50847398304E+01  4.22013360049E+01  0.00000000000E+00  0.00000000000E+00  1.
       22    1    3    3    0    0 -2.20676918319E+01 -7.93919195144E+00 -1.01888198266E+03  1.01915185737E+03  0.00000000000E+00  0.00000000000E+00  1.
</event>
<event>
 5   0   1.0000000E+00   6.2505312E+01   7.8125000E-03   1.3828740E-01
       21   -1    0    0  501  502  0.00000000000E+00  0.00000000000E+00  5.87552945115E+01  5.87552945115E+01  0.00000000000E+00  0.00000000000E+00  1.
       21   -1    0    0  502  501  0.00000000000E+00  0.00000000000E+00 -6.64946714252E+01  6.64946714252E+01  0.00000000000E+00  0.00000000000E+00  1.
       25    2    1    2    0    0  0.00000000000E+00  0.00000000000E+00 -7.73937691376E+00  1.25249965937E+02  1.25010623597E+02  0.00000000000E+00  1.
       22    1    3    3    0    0  1.67955486483E+01 -5.39271644967E+00 -6.39490025488E+01  6.63373708561E+01  0.00000000000E+00  0.00000000000E+00  1.
       22    1    3    3    0    0 -1.67955486483E+01  5.39271644967E+00  5.62096256351E+01  5.89125950807E+01  0.00000000000E+00  0.00000000000E+00  1.
</event>
<event>
 5   0   1.0000000E+00   6.2501029E+01   7.8125000E-03   1.3828900E-01
       21   -1    0    0  501  502  0.00000000000E+00  0.00000000000E+00  1.55075853337E+01  1.55075853337E+01  0.00000000000E+00  0.00000000000E+00  1.
       21   -1    0    0  502  501  0.00000000000E+00  0.00000000000E+00 -2.51901153431E+02  2.51901153431E+02  0.00000000000E+00  0.00000000000E+00  1.
       25    2    1    2    0    0  0.00000000000E+00  0.00000000000E+00 -2.36393568097E+02  2.67408738765E+02  1.25002058103E+02  0.00000000000E+00  1.
       22    1    3    3    0    0 -2.48085721426E+01 -2.36351695123E+01 -6.37613757322E+00  3.48531436170E+01  0.00000000000E+00  0.00000000000E+00  1.
       22    1    3    3    0    0  2.48085721426E+01  2.36351695123E+01 -2.30017430524E+02  2.32555595148E+02  0.00000000000E+00  0.00000000000E+00  1.
</event>
<event>
 5   0   1.0000000E+00   6.2499487E+01   7.8125000E-03   1.3828958E-01
       21   -1    0    0  501  502  0.00000000000E+00  0.00000000000E+00  1.58766048989E+02  1.58766048989E+02  0.00000000000E+00  0.00000000000E+00  1.
       21   -1    0    0  502  501  0.00000000000E+00  0.00000000000E+00 -2.46034081169E+01  2.46034081169E+01  0.00000000000E+00  0.00000000000E+00  1.
       25    2    1    2    0    0  0.00000000000E+00  0.00000000000E+00  1.34162640872E+02  1.83369457106E+02  1.24998974370E+02  0.00000000000E+00  1.
       22    1    3    3    0    0 -5.70131308879E+01  1.32455891208E+01  9.92291124374E+01  1.15205726767E+02  0.00000000000E+00  0.00000000000E+00  1.
       22    1    3    3    0    0  5.70131308879E+01 -1.32455891208E+01  3.49335284346E+01  6.81637303387E+01  0.00000000000E+00  0.00000000000E+00  1.
</event>
<event>
 5   0   1.0000000E+00   6.2498864E+01   7.8125000E-03   1.3828981E-01
       21   -1    0    0  501  502  0.00000000000E+00  0.00000000000E+00  2.66158998909E+01  2.66158998909E+01  0.00000000000E+00  0.00000000000E+00  1.
       21   -1    0    0  502  501  0.00000000000E+00  0.00000000000E+00 -1.46758441991E+02  1.46758441991E+02  0.00000000000E+00  0.00000000000E+00  1.
       25    2    1    2    0    0  0.00000000000E+00  0.00000000000E+00 -1.20142542100E+02  1.73374341882E+02  1.24997727982E+02  0.00000000000E+00  1.
       22    1    3    3    0    0  1.97660957765E+01 -5.88485229319E+01 -5.00442769153E+01  7.97388038880E+01  0.00000000000E+00  0.00000000000E+00  1.
       22    1    3    3    0    0 -1.97660957765E+01  5.88485229319E+01 -7.00982651850E+01  9.36355379942E+01  0.00000000000E+00  0.00000000000E+00  1.
</event>
<event>
 5   0   1.0000000E+00   6.2501382E+01   7.8125000E-03   1.3828887E-01
       21   -1    0    0  501  502  0.00000000000E+00  0.00000000000E+00  1.32003439645E+02  1.32003439645E+02  0.00000000000E+00  0.00000000000E+00  1.
       21   -1    0    0  502  501  0.00000000000E+00  0.00000000000E+00 -2.95933406704E+01  2.95933406704E+01  0.00000000000E+00  0.00000000000E+00  1.
       25    2    1    2    0    0  0.00000000000E+00  0.00000000000E+00  1.02410098975E+02  1.61596780315E+02  1.25002764115E+02  0.00000000000E+00  1.
       22    1    3    3    0    0  1.59569404979E+01  4.92463393503E+01  9.64806285089E+01  1.09491267081E+02  0.00000000000E+00  0.00000000000E+00  1.
       22    1    3    3    0    0 -1.59569404979E+01 -4.92463393503E+01  5.92947046575E+00  5.21055132348E+01  0.00000000000E+00  0.00000000000E+00  1.
</event>
<event>
 5   0   1.0000000E+00   6.2498603E+01   7.8125000E-03   1.3828991E-01
       21   -1    0    0  501  502  0.00000000000E+00  0.00000000000E+00  6.11975128857E+01  6.11975128857E+01  0.00000000000E+00  0.00000000000E+00  1.
       21   -1    0    0  502  501  0.00000000000E+00  0.00000000000E+00 -6.38273555166E+01  6.38273555166E+01  0.00000000000E+00  0.00000000000E+00  1.
       25    2    1    2    0    0  0.00000000000E+00  0.00000000000E+00 -2.62984263085E+00  1.25024868402E+02  1.24997206556E+02  0.00000000000E+00  1.
       22    1    3    3    0    0  5.41558737109E+01 -2.98019908604E+01  7.90981422992E+00  6.23183959822E+01  0.00000000000E+00  0.00000000000E+00  1.
       22    1    3    3    0    0 -5.41558737109E+01  2.98019908604E+01 -1.05396568608E+01  6.27064724202E+01  0.00000000000E+00  0.00000000000E+00  1.
</event>
<event>
 5   0   1.0000000E+00   6.2495452E+01   7.8125000E-03   1.3829108E-01
       21   -1    0    0  501  502  0.00000000000E+00  0.00000000000E+00  4.61688731417E+01  4.61688731417E+01  0.00000000000E+00  0.00000000000E+00  1.
       21   -1    0    0  502  501  0.00000000000E+00  0.00000000000E+00 -8.45955562862E+01  8.45955562862E+01  0.00000000000E+00  0.00000000000E+00  1.
       25    2    1    2    0    0  0.00000000000E+00  0.00000000000E+00 -3.84266831445E+01  1.30764429428E+02  1.24990903773E+02  0.00000000000E+00  1.
       22    1    3    3    0    0  2.87725520259E+01 -4.96947540217E+01  6.58866066794E+00  5.77999894183E+01  0.00000000000E+00  0.00000000000E+00  1.
       22    1    3    3    0    0 -2.87725520259E+01  4.96947540217E+01 -4.50153438125E+01  7.29644400096E+01  0.00000000000E+00  0.00000000000E+00  1.
</event>
<event>
 5   0   1.0000000E+00   6.2501520E+01   7.8125000E-03   1.3828882E-01
       21   -1    0    0  501  502  0.00000000000E+00  0.00000000000E+00  1.13549861505E+02  1.13549861505E+02  0.00000000000E+00  0.00000000000E+00  1.
       21   -1    0    0  502  501  0.00000000000E+00  0.00000000000E+00 -3.44028604615E+01  3.44028604615E+01  0.00000000000E+00  0.00000000000E+00  1.
       25    2    1    2    0    0  0.00000000000E+00  0.00000000000E+00  7.91470010439E+01  1.47952721967E+02  1.25003040616E+02  0.00000000000E+00  1.
       22    1    3    3    0    0 -4.08778060056E+01 -3.82105226218E+01  7.25318575991E+01  9.16073655862E+01  0.00000000000E+00  0.00000000000E+00  1.
       22    1    3    3    0    0  4.08778060056E+01  3.82105226218E+01  6.61514344477E+00  5.63453563806E+01  0.00000000000E+00  0.00000000000E+00  1.
</event>
<event>
 5   0   1.0000000E+00   6.2498920E+01   7.8125000E-03   1.3828979E-01
       21   -1    0    0  501  502  0.00000000000E+00  0.00000000000E+00  1.55592143617E+01  1.55592143617E+01  0.00000000000E+00  0.00000000000E+00  1.
       21   -1    0    0  502  501  0.00000000000E+00  0.00000000000E+00 -2.51048343313E+02  2.51048343313E+02  0.00000000000E+00  0.00000000000E+00  1.
       25    2    1    2    0    0  0.00000000000E+00  0.00000000000E+00 -2.35489128951E+02  2.66607557675E+02  1.24997839801E+02  0.00000000000E+00  1.
       22    1    3    3    0    0 -3.90105116143E+01 -4.58182784160E+01 -1.53750773255E+02  1.65107343658E+02  0.00000000000E+00  0.00000000000E+00  1.
       22    1    3    3    0    0  3.90105116143E+01  4.58182784160E+01 -8.17383556964E+01  1.01500214016E+02  0.00000000000E+00  0.00000000000E+00  1.
</event>
<event>
 5   0   1.0000000E+00   6.2500146E+01   7.8125000E-03   1.3828933E-01
       21   -1    0    0  501  502  0.00000000000E+00  0.00000000000E+00  6.18431047830E+01  6.18431047830E+01  0.00000000000E+00  0.00000000000E+00  1.
       21   -1    0    0  502  501  0.00000000000E+00  0.00000000000E+00 -6.31641668739E+01  6.31641668739E+01  0.00000000000E+00  0.00000000000E+00  1.
       25    2    1    2    0    0  0.00000000000E+00  0.00000000000E+00 -1.32106209083E+00  1.25007271657E+02  1.25000291048E+02  0.00000000000E+00  1.
       22    1    3    3    0    0 -4.26112027736E+01 -2.85616907598E+01 -3.63666340744E+01  6.28809737105E+01  0.00000000000E+00  0.00000000000E+00  1.
       22    1    3    3    0    0  4.26112027736E+01  2.85616907598E+01  3.50455719836E+01  6.21262979464E+01  0.00000000000E+00  0.00000000000E+00  1.
</event>
<event>
 5   0   1.0000000E+00   6.2499143E+01   7.8125000E-03   1.3828971E-01
       21   -1    0    0  501  502  0.00000000000E+00  0.00000000000E+00  4.85457751787E+00  4.85457751787E+00  0.00000000000E+00  0.00000000000E+00  1.
       21   -1    0    0  502  501  0.00000000000E+00  0.00000000000E+00 -8.04630854156E+02  8.04630854156E+02  0.00000000000E+00  0.00000000000E+00  1.
       25    2    1    2    0    0  0.00000000000E+00  0.00000000000E+00 -7.99776276639E+02  8.09485431674E+02  1.24998285665E+02  0.00000000000E+00  1.
       22    1    3    3    0    0  4.14111104604E+01  4.55404677766E+01 -4.70034780610E+02  4.74048003115E+02  0.00000000000E+00  0.00000000000E+00  1.
       22    1    3    3    0    0 -4.14111104604E+01 -4.55404677766E+01 -3.29741496029E+02  3.35437428559E+02  0.00000000000E+00  0.00000000000E+00  1.
</event>
<event>
 5   0   1.0000000E+00   6.2500493E+01   7.8125000E-03   1.3828920E-01
       21   -1    0    0  501  502  0.00000000000E+00  0.00000000000E+00  3.47273065327E+01  3.47273065327E+01  0.00000000000E+00  0.00000000000E+00  1.
       21   -1    0    0  502  501  0.00000000000E+00  0.00000000000E+00 -1.12485303131E+02  1.12485303131E+02  0.00000000000E+00  0.00000000000E+00  1.
       25    2    1    2    0    0  0.00000000000E+00  0.00000000000E+00 -7.77579965986E+01  1.47212609664E+02  1.25000985632E+02  0.00000000000E+00  1.
       22    1    3    3    0    0 -5.41594087408E+01  2.37009338794E+01 -6.27642497934E+01  8.62225427255E+01  0.00000000000E+00  0.00000000000E+00  1.
       22    1    3    3    0    0  5.41594087408E+01 -2.37009338794E+01 -1.49937468051E+01  6.09900669386E+01  0.00000000000E+00  0.00000000000E+00  1.
</event>
<event>
 5   0   1.0000000E+00   6.2502251E+01   7.8125000E-03   1.3828855E-01
       21   -1    0    0  501  502  0.00000000000E+00  0.00000000000E+00  2.50105416691E+00  2.50105416691E+00  0.00000000000E+00  0.00000000000E+00  1.
       21   -1    0    0  502  501  0.00000000000E+00  0.00000000000E+00 -1.56195393934E+03  1.56195393934E+03  0.00000000000E+00  0.00000000000E+00  1.
       25    2    1    2    0    0  0.00000000000E+00  0.00000000000E+00 -1.55945288517E+03  1.56445499350E+03  1.25004502455E+02  0.00000000000E+00  1.
       22    1    3    3    0    0  5.37361983285E+01 -1.81246768584E+01 -4.50872495459E+02  4.54425010407E+02  0.00000000000E+00  0.00000000000E+00  1.
       22    1    3    3    0    0 -5.37361983285E+01  1.81246768584E+01 -1.10858038971E+03  1.11002998310E+03  0.00000000000E+00  0.00000000000E+00  1.
</event>
<event>
 5   0   1.0000000E+00   6.2499459E+01   7.8125000E-03   1.3828959E-01
       21   -1    0    0  501  502  0.00000000000E+00  0.00000000000E+00  1.22490053985E+02  1.22490053985E+02  0.00000000000E+00  0.00000000000E+00  1.
       21   -1    0    0  502  501  0.00000000000E+00  0.00000000000E+00 -3.18897925949E+01  3.18897925949E+01  0.00000000000E+00  0.00000000000E+00  1.
       25    2    1    2    0    0  0.00000000000E+00  0.00000000000E+00  9.06002613899E+01  1.54379846580E+02  1.24998918660E+02  0.00000000000E+00  1.
       22    1    3    3    0    0 -5.04044473262E+01 -8.48605016089E+00  8.80206244532E-01  5.11213861376E+01  0.00000000000E+00  0.00000000000E+00  1.
       22    1    3    3    0    0  5.04044473262E+01  8.48605016089E+00  8.97200551453E+01  1.03258460442E+02  0.00000000000E+00  0.00000000000E+00  1.
</event>
<event>
 5   0   1.0000000E+00   6.2499578E+01   7.8125000E-03   1.3828954E-01
       21   -1    0    0  501  502  0.00000000000E+00  0.00000000000E+00  3.93786197368E+01  3.93786197368E+01  0.00000000000E+00  0.00000000000E+00  1.
       21   -1    0    0  502  501  0.00000000000E+00  0.00000000000E+00 -9.91958904291E+01  9.91958904291E+01  0.00000000000E+00  0.00000000000E+00  1.
       25    2    1    2    0    0  0.00000000000E+00  0.00000000000E+00 -5.98172706923E+01  1.38574510166E+02  1.24999155976E+02  0.00000000000E+00  1.
       22    1    3    3    0    0  5.16791007364E+00  5.86297468389E+01 -6.60045324088E+00  5.92260119534E+01  0.00000000000E+00  0.00000000000E+00  1.
       22    1    3    3    0    0 -5.16791007364E+00 -5.86297468389E+01 -5.32168174514E+01  7.93484982125E+01  0.00000000000E+00  0.00000000000E+00  1.
</event>
<event>
 5   0   1.0000000E+00   6.2500747E+01   7.8125000E-03   1.3828911E-01
       21   -1    0    0  501  502  0.00000000000E+00  0.00000000000E+00  1.14233514963E+01  1.14233514963E+01  0.00000000000E+00  0.00000000000E+00  1.
       21   -1    0    0  502  501  0.00000000000E+00  0.00000000000E+00 -3.41961231332E+02  3.41961231332E+02  0.00000000000E+00  0.00000000000E+00  1.
       25    2    1    2    0    0  0.00000000000E+00  0.00000000000E+00 -3.30537879836E+02  3.53384582829E+02  1.25001493489E+02  0.00000000000E+00  1.
       22    1    3    3    0    0 -2.60689205960E+01 -1.61425981959E+01 -1.13009262760E+01  3.26784796502E+01  0.00000000000E+00  0.00000000000E+00  1.
       22    1    3    3    0    0  2.60689205960E+01  1.61425981959E+01 -3.19236953560E+02  3.20706103178E+02  0.00000000000E+00  0.00000000000E+00  1.
</event>
<event>
 5   0   1.0000000E+00   6.2498803E+01   7.8125000E-03   1.3828983E-01
       21   -1    0    0  501  502  0.00000000000E+00  0.00000000000E+00  6.95313226952E+02  6.95313226952E+02  0.00000000000E+00  0.00000000000E+00  1.
       21   -1    0    0  502  501  0.00000000000E+00  0.00000000000E+00 -5.61775647167E+00  5.61775647167E+00  0.00000000000E+00  0.00000000000E+00  1.
       25    2    1    2    0    0  0.00000000000E+00  0.00000000000E+00  6.89695470480E+02  7.00930983424E+02  1.24997606066E+02  0.00000000000E+00  1.
       22    1    3    3    0    0  1.20827402002E+01  1.11102220935E+01  6.68515161030E+00  1.77234561462E+01  0.00000000000E+00  0.00000000000E+00  1.
       22    1    3    3    0    0 -1.20827402002E+01 -1.11102220935E+01  6.83010318870E+02  6.83207527277E+02  1.32144989591E-05  0.00000000000E+00  1.
</event>
<event>
 5   0   1.0000000E+00   6.2499869E+01   7.8125000E-03   1.3828944E-01
       21   -1    0    0  501  502  0.00000000000E+00  0.00000000000E+00  9.63025277881E+00  9.63025277881E+00  0.00000000000E+00  0.00000000000E+00  1.
       21   -1    0    0  502  501  0.00000000000E+00  0.00000000000E+00 -4.05621084869E+02  4.05621084869E+02  0.00000000000E+00  0.00000000000E+00  1.
       25    2    1    2    0    0  0.00000000000E+00  0.00000000000E+00 -3.95990832090E+02  4.15251337648E+02  1.24999737275E+02  0.00000000000E+00  1.
       22    1    3    3    0    0 -3.66127573180E+00 -6.15913142894E+01 -1.64885273287E+02  1.76051266064E+02  0.00000000000E+00  0.00000000000E+00  1.
       22    1    3    3    0    0  3.66127573180E+00  6.15913142894E+01 -2.31105558803E+02  2.39200071583E+02  0.00000000000E+00  0.00000000000E+00  1.
</event>
<event>
 5   0   1.0000000E+00   6.2499012E+01   7.8125000E-03   1.3828976E-01
       21   -1    0    0  501  502  0.00000000000E+00  0.00000000000E+00  1.16862365512E+02  1.16862365512E+02  0.00000000000E+00  0.00000000000E+00  1.
       21   -1    0    0  502  501  0.00000000000E+00  0.00000000000E+00 -3.34250161548E+01  3.34250161548E+01  0.00000000000E+00  0.00000000000E+00  1.
       25    2    1    2    0    0  0.00000000000E+00  0.00000000000E+00  8.34373493570E+01  1.50287381667E+02  1.24998023266E+02  0.00000000000E+00  1.
       22    1    3    3    0    0 -3.18684673528E+01 -1.25162509463E-01 -2.29221263733E+01  3.92560664681E+01  0.00000000000E+00  0.00000000000E+00  1.
       22    1    3    3    0    0  3.18684673528E+01  1.25162509463E-01  1.06359475730E+02  1.11031315198E+02  0.00000000000E+00  0.00000000000E+00  1.
</event>
<event>
 5   0   1.0000000E+00   6.2498972E+01   7.8125000E-03   1.3828977E-01
       21   -1    0    0  501  502  0.00000000000E+00  0.00000000000E+00  2.70175678285E+02  2.70175678285E+02  0.00000000000E+00  0.00000000000E+00  1.
       21   -1    0    0  502  501  0.00000000000E+00  0.00000000000E+00 -1.44577095070E+01  1.44577095070E+01  0.00000000000E+00  0.00000000000E+00  1.
       25    2    1    2    0    0  0.00000000000E+00  0.00000000000E+00  2.55717968778E+02  2.84633387792E+02  1.24997943543E+02  0.00000000000E+00  1.
       22    1    3    3    0    0 -2.02442372908E+01 -4.53836895864E+01  2.14167346939E+02  2.19857137521E+02  0.00000000000E+00  0.00000000000E+00  1.
       22    1    3    3    0    0  2.02442372908E+01  4.53836895864E+01  4.15506218383E+01  6.47762502705E+01  0.00000000000E+00  0.00000000000E+00  1.
</event>
<event>
 5   0   1.0000000E+00   6.2496789E+01   7.8125000E-03   1.3829058E-01
       21   -1    0    0  501  502  0.00000000000E+00  0.00000000000E+00  5.02144380882E+01  5.02144380882E+01  0.00000000000E+00  0.00000000000E+00  1.
       21   -1    0    0  502  501  0.00000000000E+00  0.00000000000E+00 -7.77833787695E+01  7.77833787695E+01  0.00000000000E+00  0.00000000000E+00  1.
       25    2    1    2    0    0  0.00000000000E+00  0.00000000000E+00 -2.75689406812E+01  1.27997816858E+02  1.24993578355E+02  0.00000000000E+00  1.
       22    1    3    3    0    0 -2.74524380008E+01  1.20866025541E+01 -6.99304256642E+01  7.60919624340E+01  0.00000000000E+00  0.00000000000E+00  1.
       22    1    3    3    0    0  2.74524380008E+01 -1.20866025541E+01  4.23614849830E+01  5.19058544237E+01  0.00000000000E+00  0.00000000000E+00  1.
</event>
<event>
 5   0   1.0000000E+00   6.2506064E+01   7.8125000E-03   1.3828712E-01
       21   -1    0    0  501  502  0.00000000000E+00  0.00000000000E+00  8.62411232613E+00  8.62411232613E+00  0.00000000000E+00  0.00000000000E+00  1.
       21   -1    0    0  502  501  0.00000000000E+00  0.00000000000E+00 -4.53033061736E+02  4.53033061736E+02  0.00000000000E+00  0.00000000000E+00  1.
       25    2    1    2    0    0  0.00000000000E+00  0.00000000000E+00 -4.44408949410E+02  4.61657174062E+02  1.25012127601E+02  0.00000000000E+00  1.
       22    1    3    3    0    0  1.76060209725E+01 -4.18640928762E+00 -4.43146959100E+02  4.43516319155E+02  0.00000000000E+00  0.00000000000E+00  1.
       22    1    3    3    0    0 -1.76060209725E+01  4.18640928762E+00 -1.26199030955E+00  1.81408549068E+01  0.00000000000E+00  0.00000000000E+00  1.
</event>
<event>
 5   0   1.0000000E+00   6.2498420E+01   7.8125000E-03   1.3828998E-01
       21   -1    0    0  501  502  0.00000000000E+00  0.00000000000E+00  1.37032862257E+02  1.37032862257E+02  0.00000000000E+00  0.00000000000E+00  1.
       21   -1    0    0  502  501  0.00000000000E+00  0.00000000000E+00 -2.85044950956E+01  2.85044950956E+01  0.00000000000E+00  0.00000000000E+00  1.
       25    2    1    2    0    0  0.00000000000E+00  0.00000000000E+00  1.08528367162E+02  1.65537357353E+02  1.24996840763E+02  0.00000000000E+00  1.
       22    1    3    3    0    0  2.22167724795E+01 -1.63304982718E+01  1.28542374922E+02  1.31466392297E+02  0.00000000000E+00  0.00000000000E+00  1.
       22    1    3    3    0    0 -2.22167724795E+01  1.63304982718E+01 -2.00140077598E+01  3.40709650556E+01  0.00000000000E+00  0.00000000000E+00  1.
</event>
<event>
 5   0   1.0000000E+00   6.2499227E+01   7.8125000E-03   1.3828967E-01
       21   -1    0    0  501  502  0.00000000000E+00  0.00000000000E+00  8.90980879578E+00  8.90980879578E+00  0.00000000000E+00  0.00000000000E+00  1.
       21   -1    0    0  502  501  0.00000000000E+00  0.00000000000E+00 -4.38410464931E+02  4.38410464931E+02  0.00000000000E+00  0.00000000000E+00  1.
       25    2    1    2    0    0  0.00000000000E+00  0.00000000000E+00 -4.29500656135E+02  4.47320273727E+02  1.24998454656E+02  0.00000000000E+00  1.
       22    1    3    3    0    0 -4.90770730824E+01  3.56285860915E+01 -1.60691078302E+02  1.71754411574E+02  0.00000000000E+00  0.00000000000E+00  1.
       22    1    3    3    0    0  4.90770730824E+01 -3.56285860915E+01 -2.68809577833E+02  2.75565862153E+02  0.00000000000E+00  0.00000000000E+00  1.
</event>
<event>
 5   0   1.0000000E+00   6.2498402E+01   7.8125000E-03   1.3828998E-01
       21   -1    0    0  501  502  0.00000000000E+00  0.00000000000E+00  1.05653489627E+02  1.05653489627E+02  0.00000000000E+00  0.00000000000E+00  1.
       21   -1    0    0  502  501  0.00000000000E+00  0.00000000000E+00 -3.69703859652E+01  3.69703859652E+01  0.00000000000E+00  0.00000000000E+00  1.
       25    2    1    2    0    0  0.00000000000E+00  0.00000000000E+00  6.86831036621E+01  1.42623875593E+02  1.24996804601E+02  0.00000000000E+00  1.
       22    1    3    3    0    0  2.74101894333E+01  5.47015839664E+01  1.97977505929E+01  6.43081075895E+01  0.00000000000E+00  0.00000000000E+00  1.
       22    1    3    3    0    0 -2.74101894333E+01 -5.47015839664E+01  4.88853530692E+01  7.83157680030E+01  0.00000000000E+00  0.00000000000E+00  1.
</event>
<event>
 5   0   1.0000000E+00   6.2501635E+01   7.8125000E-03   1.3828878E-01
       21   -1    0    0  501  502  0.00000000000E+00  0.00000000000E+00  1.15265018893E+02  1.15265018893E+02  0.00000000000E+00  0.00000000000E+00  1.
       21   -1    0    0  502  501  0.00000000000E+00  0.00000000000E+00 -3.38910661123E+01  3.38910661123E+01  0.00000000000E+00  0.00000000000E+00  1.
       25    2    1    2    0    0  0.00000000000E+00  0.00000000000E+00  8.13739527809E+01  1.49156085006E+02  1.25003269969E+02  0.00000000000E+00  1.
       22    1    3    3    0    0  2.96107444123E+01  5.37567231107E+01  5.47989062499E+01  8.22769809268E+01  0.00000000000E+00  0.00000000000E+00  1.
       22    1    3    3    0    0 -2.96107444123E+01 -5.37567231107E+01  2.65750465311E+01  6.68791040787E+01  0.00000000000E+00  0.00000000000E+00  1.
</event>
<event>
 5   0   1.0000000E+00   6.2500162E+01   7.8125000E-03   1.3828933E-01
       21   -1    0    0  501  502  0.00000000000E+00  0.00000000000E+00  6.92884568888E+01  6.92884568888E+01  0.00000000000E+00  0.00000000000E+00  1.
       21   -1    0    0  502  501  0.00000000000E+00  0.00000000000E+00 -5.63769274980E+01  5.63769274980E+01  0.00000000000E+00  0.00000000000E+00  1.
       25    2    1    2    0    0  0.00000000000E+00  0.00000000000E+00  1.29115293908E+01  1.25665384387E+02  1.25000324967E+02  0.00000000000E+00  1.
       22    1    3    3    0    0 -1.29345897884E+01 -9.38362420706E-01  6.79209473270E+01  6.91479516893E+01  0.00000000000E+00  0.00000000000E+00  1.
       22    1    3    3    0    0  1.29345897884E+01  9.38362420706E-01 -5.50094179362E+01  5.65174326974E+01  0.00000000000E+00  0.00000000000E+00  1.
</event>
</LesHouchesEvents>
