<LesHouchesEvents version="1.0">
<!--
Output from the JHUGenerator v7.5.0 described in arXiv:1001.3396 [hep-ph], arXiv:1208.4018 [hep-ph], arXiv:1309.4819 [hep-ph], arXiv:1606.03107 [hep-ph]
   
   Command line: ./JHUGen Seed=765543533 VegasNc0=100000 ReadLHE=compare_to_reference/HJ.lhe DataFile=compare_to_reference/HJ_gammagamma DecayMode1=7 DecayMode2=7 ghg2=0.383432074687728,0.918260989345657 ghg3=6294.49296087723,2253.12941717723 ghg4=0.335495485382528,0.17285803562226 ghz1=0.154934976270359,0.453918144016304 ghz2=0.469297059144414,0.745302300947002 ghz3=3947.40921062637,3597.4885961919 ghz4=0.177791270766536,0.920170534486048 ghzgs2=0.0240331049939919,0.232175381101053 ghzgs3=0.331962910170583,0.0450183240308457 ghzgs4=0.808286540247172,0.133184346613754 ghgsgs2=0.530394804029869,0.211218112389125 ghgsgs3=0.914978695198138,0.055650585081425 ghgsgs4=0.694524307167701,0.511424456076726 ghz1_prime=0.143354267833606,0.0910761280837012 ghz1_prime2=7416.7007267243,4861.35525489789 ghz1_prime3=4431.44656075298,4436.48625894176 ghz1_prime4=2441.69123517064,6946.16318931911 ghz1_prime5=78314042.889773,69465359.939181 ghz1_prime6=51233058.8130761,29537873.5850789 ghz1_prime7=47832192.9001564,595596
   
   Input Parameter:
    Collider: P-P, sqrt(s)=13000.00
    Resonance: spin=0, mass= 125.00 width=   0.00407
               (This is ReadLHEFile mode. Resonance mass/width are read from LHE input parameters.)
    DecayMode1: 7  DecayMode2: 7
    Random seed:   765543533
    To reproduce results using this seed, JHUGen should be compiled with the same compiler:
      GNU Fortran (GCC) 6.3.0
    Interference: F
    
    Spin-0-VV couplings: 
      generate_as=F
      kappa_top=  0.10000000E+01  0.00000000E+00i
      kappa_bot=  0.10000000E+01  0.00000000E+00i
      ghg2=  0.38343207E+00  0.91826099E+00i
      ghg3=  0.62944930E+04  0.22531294E+04i
      ghg4=  0.33549549E+00  0.17285804E+00i
      ghz1=  0.15493498E+00  0.45391814E+00i
      ghz2=  0.46929706E+00  0.74530230E+00i
      ghz3=  0.39474092E+04  0.35974886E+04i
      ghz4=  0.17779127E+00  0.92017053E+00i
      ghz1_prime=   0.14335427E+00  0.91076128E-01i,    Lambda_z1=  1.0000E+04
      ghz1_prime2=  0.74167007E+04  0.48613553E+04i,    Lambda_z1=  1.0000E+04
      ghz1_prime3=  0.44314466E+04  0.44364863E+04i,    Lambda_z1=  1.0000E+04
      ghz1_prime4=  0.24416912E+04  0.69461632E+04i,    Lambda_z1=  1.0000E+04
      ghz1_prime5=  0.78314043E+08  0.69465360E+08i,    Lambda_z1=  1.0000E+04
      ghz1_prime6=  0.51233059E+08  0.29537874E+08i,    Lambda_z1=  1.0000E+04
      ghz1_prime7=  0.47832193E+08  0.59559650E+08i,    Lambda_z1=  1.0000E+04
      ghz2_prime=   0.57465793E+00  0.41992191E+00i,    Lambda_z2=  1.0000E+04
      ghz2_prime2=  0.43854587E+04  0.61761246E+04i,    Lambda_z2=  1.0000E+04
      ghz2_prime3=  0.45921696E+04  0.75499391E+04i,    Lambda_z2=  1.0000E+04
      ghz2_prime4=  0.84715906E+04  0.71997238E+04i,    Lambda_z2=  1.0000E+04
      ghz2_prime5=  0.19558280E+08  0.94843889E+08i,    Lambda_z2=  1.0000E+04
      ghz2_prime6=  0.23209661E+08  0.67617823E+08i,    Lambda_z2=  1.0000E+04
      ghz2_prime7=  0.70059904E+07  0.53660191E+08i,    Lambda_z2=  1.0000E+04
      ghz3_prime=   0.40457065E+04  0.19693161E+04i,    Lambda_z3=  1.0000E+04
      ghz3_prime2=  0.33402456E+08  0.37615919E+07i,    Lambda_z3=  1.0000E+04
      ghz3_prime3=  0.44855080E+08  0.12184926E+08i,    Lambda_z3=  1.0000E+04
      ghz3_prime4=  0.27878602E+08  0.78237524E+08i,    Lambda_z3=  1.0000E+04
      ghz3_prime5=  0.93246434E+12  0.63158085E+12i,    Lambda_z3=  1.0000E+04
      ghz3_prime6=  0.35811562E+12  0.41077746E+12i,    Lambda_z3=  1.0000E+04
      ghz3_prime7=  0.62298148E+12  0.61827857E+12i,    Lambda_z3=  1.0000E+04
      ghz4_prime=   0.41653395E+00  0.33115593E+00i,    Lambda_z4=  1.0000E+04
      ghz4_prime2=  0.75883756E+04  0.39234327E+04i,    Lambda_z4=  1.0000E+04
      ghz4_prime3=  0.89560755E+04  0.93020315E+04i,    Lambda_z4=  1.0000E+04
      ghz4_prime4=  0.32034411E+04  0.28637675E+04i,    Lambda_z4=  1.0000E+04
      ghz4_prime5=  0.49012574E+08  0.74595801E+08i,    Lambda_z4=  1.0000E+04
      ghz4_prime6=  0.73323810E+08  0.53968832E+08i,    Lambda_z4=  1.0000E+04
      ghz4_prime7=  0.68563876E+08  0.43025214E+08i,    Lambda_z4=  1.0000E+04
      ghzgs2=  0.24033105E-01  0.23217538E+00i
      ghzgs3=  0.33196291E+00  0.45018324E-01i
      ghzgs4=  0.80828654E+00  0.13318435E+00i
      ghzgs1_prime2=  0.56689643E+04  0.70176759E+04i,  Lambda_zgs1=  1.0000E+04
      ghgsgs2=  0.53039480E+00  0.21121811E+00i
      ghgsgs3=  0.91497870E+00  0.55650585E-01i
      ghgsgs4=  0.69452431E+00  0.51142446E+00i
      Lambda=  1000.0
      Lambda_Q=  10000.0
      Lambda_z11=   1.3888E+02
      Lambda_z21=   1.5452E+02
      Lambda_z31=   1.1998E+02
      Lambda_z41=   1.8136E+02
      Lambda_z12=   1.3667E+02
      Lambda_z22=   1.6659E+02
      Lambda_z32=   1.3884E+02
      Lambda_z42=   4.9064E+01
      Lambda_z10=   9.6973E+00
      Lambda_z20=   1.9326E+02
      Lambda_z30=   8.9204E+01
      Lambda_z40=   1.6167E+02
    
    LHE output: compare_to_reference/HJ_gammagamma.lhe
    Histogram output: compare_to_reference/HJ_gammagamma.dat
    Log file: compare_to_reference/HJ_gammagamma.log
    LHE input: compare_to_reference/HJ.lhe
    

Output from the JHUGenerator v7.5.0 described in arXiv:1001.3396 [hep-ph], arXiv:1208.4018 [hep-ph], arXiv:1309.4819 [hep-ph], arXiv:1606.03107 [hep-ph]

   Command line: ./JHUGen Seed=765543533 PDFSet=3 Process=62 VegasNc0=100000 VegasNc2=100 DataFile=compare_to_reference/HJ ghg2=0.383432074687728,0.918260989345

   Input Parameter:
    Collider: P-P, sqrt(s)=13000.00
    Resonance: spin=0, mass= 125.00 width=   0.00407
    Jet cuts:
            pT >=    15.00 GeV
    Random seed:   765543533
    To reproduce results using this seed, JHUGen should be compiled with the same compiler:
      GNU Fortran (GCC) 6.3.0

    WidthScheme:   2
    PDFSet:   3
    Unweighted: T

    Spin-0-VV couplings:
      generate_as=F
      kappa_top=  0.10000000E+01  0.00000000E+00i
      kappa_bot=  0.10000000E+01  0.00000000E+00i
      ghg2=  0.38343207E+00  0.91826099E+00i
      ghg3=  0.62944930E+04  0.22531294E+04i
      ghg4=  0.33549549E+00  0.17285804E+00i
      ghz1=  0.15493498E+00  0.45391814E+00i
      ghz2=  0.46929706E+00  0.74530230E+00i
      ghz3=  0.39474092E+04  0.35974886E+04i
      ghz4=  0.17779127E+00  0.92017053E+00i
      ghz1_prime=   0.14335427E+00  0.91076128E-01i,    Lambda_z1=  1.0000E+04
      ghz1_prime2=  0.74167007E+04  0.48613553E+04i,    Lambda_z1=  1.0000E+04
      ghz1_prime3=  0.44314466E+04  0.44364863E+04i,    Lambda_z1=  1.0000E+04
      ghz1_prime4=  0.24416912E+04  0.69461632E+04i,    Lambda_z1=  1.0000E+04
      ghz1_prime5=  0.78314043E+08  0.69465360E+08i,    Lambda_z1=  1.0000E+04
      ghz1_prime6=  0.51233059E+08  0.29537874E+08i,    Lambda_z1=  1.0000E+04
      ghz1_prime7=  0.47832193E+08  0.59559650E+08i,    Lambda_z1=  1.0000E+04
      ghz2_prime=   0.57465793E+00  0.41992191E+00i,    Lambda_z2=  1.0000E+04
      ghz2_prime2=  0.43854587E+04  0.61761246E+04i,    Lambda_z2=  1.0000E+04
      ghz2_prime3=  0.45921696E+04  0.75499391E+04i,    Lambda_z2=  1.0000E+04
      ghz2_prime4=  0.84715906E+04  0.71997238E+04i,    Lambda_z2=  1.0000E+04
      ghz2_prime5=  0.19558280E+08  0.94843889E+08i,    Lambda_z2=  1.0000E+04
      ghz2_prime6=  0.23209661E+08  0.67617823E+08i,    Lambda_z2=  1.0000E+04
      ghz2_prime7=  0.70059904E+07  0.53660191E+08i,    Lambda_z2=  1.0000E+04
      ghz3_prime=   0.40457065E+04  0.19693161E+04i,    Lambda_z3=  1.0000E+04
      ghz3_prime2=  0.33402456E+08  0.37615919E+07i,    Lambda_z3=  1.0000E+04
      ghz3_prime3=  0.44855080E+08  0.12184926E+08i,    Lambda_z3=  1.0000E+04
      ghz3_prime4=  0.27878602E+08  0.78237524E+08i,    Lambda_z3=  1.0000E+04
      ghz3_prime5=  0.93246434E+12  0.63158085E+12i,    Lambda_z3=  1.0000E+04
      ghz3_prime6=  0.35811562E+12  0.41077746E+12i,    Lambda_z3=  1.0000E+04
      ghz3_prime7=  0.62298148E+12  0.61827857E+12i,    Lambda_z3=  1.0000E+04
      ghz4_prime=   0.41653395E+00  0.33115593E+00i,    Lambda_z4=  1.0000E+04
      ghz4_prime2=  0.75883756E+04  0.39234327E+04i,    Lambda_z4=  1.0000E+04
      ghz4_prime3=  0.89560755E+04  0.93020315E+04i,    Lambda_z4=  1.0000E+04
      ghz4_prime4=  0.32034411E+04  0.28637675E+04i,    Lambda_z4=  1.0000E+04
      ghz4_prime5=  0.49012574E+08  0.74595801E+08i,    Lambda_z4=  1.0000E+04
      ghz4_prime6=  0.73323810E+08  0.53968832E+08i,    Lambda_z4=  1.0000E+04
      ghz4_prime7=  0.68563876E+08  0.43025214E+08i,    Lambda_z4=  1.0000E+04
      ghzgs2=  0.24033105E-01  0.23217538E+00i
      ghzgs3=  0.33196291E+00  0.45018324E-01i
      ghzgs4=  0.80828654E+00  0.13318435E+00i
      ghzgs1_prime2=  0.56689643E+04  0.70176759E+04i,  Lambda_zgs1=  1.0000E+04
      ghgsgs2=  0.53039480E+00  0.21121811E+00i
      ghgsgs3=  0.91497870E+00  0.55650585E-01i
      ghgsgs4=  0.69452431E+00  0.51142446E+00i
      Lambda=  1000.0
      Lambda_Q=  10000.0
      Lambda_z11=   1.3888E+02
      Lambda_z21=   1.5452E+02
      Lambda_z31=   1.1998E+02
      Lambda_z41=   1.8136E+02
      Lambda_z12=   1.3667E+02
      Lambda_z22=   1.6659E+02
      Lambda_z32=   1.3884E+02
      Lambda_z42=   4.9064E+01
      Lambda_z10=   9.6973E+00
      Lambda_z20=   1.9326E+02
      Lambda_z30=   8.9204E+01
      Lambda_z40=   1.6167E+02

    LHE output: compare_to_reference/HJ.lhe
    Histogram output: compare_to_reference/HJ.dat
    Log file: compare_to_reference/HJ.log

-->
<init>
2212 2212   6500.0000000000000000    6500.0000000000000000 0 0  263000  263000  3  1
 1.0000000E+00  1.0000000E+14  1.0000000E+00  62
</init>
<event>
 6  62   1.0000000E+00   1.2500000E+02   7.8125000E-03   1.2380861E-01
       21   -1    0    0  502  501  0.00000000000E+00  0.00000000000E+00  1.21543027766E+02  1.21543027766E+02  0.00000000000E+00  0.00000000000E+00  1.
       21   -1    0    0  503  502  0.00000000000E+00  0.00000000000E+00 -1.84368993762E+02  1.84368993762E+02  0.00000000000E+00  0.00000000000E+00  1.
       25    2    1    2    0    0  7.24643746107E+00  6.32526421282E+01  7.13610195538E+01  1.57387428672E+02  1.25000000000E+02  0.00000000000E+00  1.
       21    1    1    2  503  501 -7.24643746107E+00 -6.32526421282E+01 -1.34186985550E+02  1.48524592856E+02  0.00000000000E+00  0.00000000000E+00  1.
       22    1    3    3    0    0  1.61738945940E+01 -3.48502005490E+01  5.31225816275E+00  3.87859695178E+01  5.14339703004E-07  0.00000000000E+00  1.
       22    1    3    3    0    0 -8.92745713293E+00  9.81028426772E+01  6.60487613911E+01  1.18601459154E+02  0.00000000000E+00  0.00000000000E+00  1.
</event>
<event>
 6  62   1.0000000E+00   1.2500000E+02   7.8125000E-03   1.2380861E-01
       21   -1    0    0  501  502  0.00000000000E+00  0.00000000000E+00  1.25847765709E+02  1.25847765709E+02  0.00000000000E+00  0.00000000000E+00  1.
       21   -1    0    0  502  503  0.00000000000E+00  0.00000000000E+00 -7.35664522383E+01  7.35664522383E+01  0.00000000000E+00  0.00000000000E+00  1.
       25    2    1    2    0    0 -5.51769919450E+01 -6.56955879805E+00  3.45988592521E+01  1.41101880230E+02  1.25000000000E+02  0.00000000000E+00  1.
       21    1    1    2  501  503  5.51769919450E+01  6.56955879805E+00  1.76824542190E+01  5.83123377177E+01  0.00000000000E+00  0.00000000000E+00  1.
       22    1    3    3    0    0  1.98683070520E+01 -3.16487117592E+01  4.80201250929E+01  6.08467172087E+01  0.00000000000E+00  0.00000000000E+00  1.
       22    1    3    3    0    0 -7.50452989970E+01  2.50791529612E+01 -1.34212658408E+01  8.02551630213E+01  9.31322574615E-07  0.00000000000E+00  1.
</event>
<event>
 6  62   1.0000000E+00   1.2500000E+02   7.8125000E-03   1.2380861E-01
       21   -1    0    0  501  502  0.00000000000E+00  0.00000000000E+00  2.61088182732E+01  2.61088182732E+01  0.00000000000E+00  0.00000000000E+00  1.
       21   -1    0    0  502  503  0.00000000000E+00  0.00000000000E+00 -2.01645507279E+02  2.01645507279E+02  0.00000000000E+00  0.00000000000E+00  1.
       25    2    1    2    0    0 -1.64210552898E+01  6.96976945729E+00 -1.43969317320E+02  1.91495151565E+02  1.25000000000E+02  0.00000000000E+00  1.
       21    1    1    2  501  503  1.64210552898E+01 -6.96976945729E+00 -3.15673716854E+01  3.62591739873E+01  0.00000000000E+00  0.00000000000E+00  1.
       22    1    3    3    0    0  1.23757543807E+01 -5.37204242275E+01 -8.90242543538E+01  1.04710845374E+02  1.05367121277E-06  0.00000000000E+00  1.
       22    1    3    3    0    0 -2.87968096705E+01  6.06901936848E+01 -5.49450629662E+01  8.67843061911E+01  7.45058059692E-07  0.00000000000E+00  1.
</event>
<event>
 6  62   1.0000000E+00   1.2500000E+02   7.8125000E-03   1.2380861E-01
       21   -1    0    0  501  502  0.00000000000E+00  0.00000000000E+00  5.33773669958E+01  5.33773669958E+01  0.00000000000E+00  0.00000000000E+00  1.
       21   -1    0    0  502  503  0.00000000000E+00  0.00000000000E+00 -1.14284325397E+02  1.14284325397E+02  0.00000000000E+00  0.00000000000E+00  1.
       25    2    1    2    0    0  1.59020042085E+01 -6.77527284142E+00 -2.61884571868E+01  1.28878288900E+02  1.25000000000E+02  0.00000000000E+00  1.
       21    1    1    2  501  503 -1.59020042085E+01  6.77527284142E+00 -3.47185012141E+01  3.87834034927E+01  0.00000000000E+00  0.00000000000E+00  1.
       22    1    3    3    0    0 -2.74837294374E+01  4.68065269006E+01  2.18687305817E+00  5.43230039492E+01  5.29913542640E-07  0.00000000000E+00  1.
       22    1    3    3    0    0  4.33857336459E+01 -5.35817997420E+01 -2.83753302450E+01  7.45552849508E+01  0.00000000000E+00  0.00000000000E+00  1.
</event>
<event>
 6  62   1.0000000E+00   1.2500000E+02   7.8125000E-03   1.2380861E-01
       21   -1    0    0  501  502  0.00000000000E+00  0.00000000000E+00  6.46773230540E+01  6.46773230540E+01  0.00000000000E+00  0.00000000000E+00  1.
       -5   -1    0    0    0  501  0.00000000000E+00  0.00000000000E+00 -1.31408013571E+02  1.31408013571E+02  0.00000000000E+00  0.00000000000E+00  1.
       25    2    1    2    0    0 -1.71050742318E+01 -1.02551068304E+00  1.04865140779E+00  1.26173431856E+02  1.25000000000E+02  0.00000000000E+00  1.
       -5    1    1    2    0  502  1.71050742318E+01  1.02551068304E+00 -6.77793419251E+01  6.99119047691E+01  0.00000000000E+00  0.00000000000E+00  1.
       22    1    3    3    0    0 -6.25176691507E+01  3.03866944772E+01 -8.85938471705E+00  7.00735246355E+01  1.33019470210E-06  0.00000000000E+00  1.
       22    1    3    3    0    0  4.54125949189E+01 -3.14122051603E+01  9.90803612484E+00  5.60999072205E+01  8.33000234328E-07  0.00000000000E+00  1.
</event>
<event>
 6  62   1.0000000E+00   1.2500000E+02   7.8125000E-03   1.2380861E-01
       21   -1    0    0  501  502  0.00000000000E+00  0.00000000000E+00  9.39491196829E+01  9.39491196829E+01  0.00000000000E+00  0.00000000000E+00  1.
       21   -1    0    0  502  503  0.00000000000E+00  0.00000000000E+00 -1.48130216937E+02  1.48130216937E+02  0.00000000000E+00  0.00000000000E+00  1.
       25    2    1    2    0    0 -1.52160247384E+01 -1.83902368712E+00 -1.20327878689E+02  1.74180101638E+02  1.25000000000E+02  0.00000000000E+00  1.
       21    1    1    2  501  503  1.52160247384E+01  1.83902368712E+00  6.61467814346E+01  6.78992349818E+01  0.00000000000E+00  0.00000000000E+00  1.
       22    1    3    3    0    0 -5.82897573748E+01 -3.66649276201E+01 -5.24061467638E+01  8.65356397725E+01  1.66600046866E-06  0.00000000000E+00  1.
       22    1    3    3    0    0  4.30737326364E+01  3.48259039330E+01 -6.79217319252E+01  8.76444618655E+01  1.05367121277E-06  0.00000000000E+00  1.
</event>
<event>
 6  62   1.0000000E+00   1.2500000E+02   7.8125000E-03   1.2380861E-01
       21   -1    0    0  501  502  0.00000000000E+00  0.00000000000E+00  7.83334139102E+01  7.83334139102E+01  0.00000000000E+00  0.00000000000E+00  1.
       21   -1    0    0  502  503  0.00000000000E+00  0.00000000000E+00 -6.69419705460E+01  6.69419705460E+01  0.00000000000E+00  0.00000000000E+00  1.
       25    2    1    2    0    0 -6.19693708484E+00 -1.57736274465E+01  1.73070609730E+01  1.27325345912E+02  1.25000000000E+02  0.00000000000E+00  1.
       21    1    1    2  501  503  6.19693708484E+00  1.57736274465E+01 -5.91561760878E+00  1.79500385444E+01  0.00000000000E+00  0.00000000000E+00  1.
       22    1    3    3    0    0  3.42703649544E+01  1.76690074692E+01 -3.58256328641E+01  5.26320027091E+01  7.45058059692E-07  0.00000000000E+00  1.
       22    1    3    3    0    0 -4.04673020393E+01 -3.34426349157E+01  5.31326938371E+01  7.46933432029E+01  0.00000000000E+00  0.00000000000E+00  1.
</event>
<event>
 6  62   1.0000000E+00   1.2500000E+02   7.8125000E-03   1.2380861E-01
       21   -1    0    0  501  502  0.00000000000E+00  0.00000000000E+00  9.41572123303E+01  9.41572123303E+01  0.00000000000E+00  0.00000000000E+00  1.
       -2   -1    0    0    0  501  0.00000000000E+00  0.00000000000E+00 -5.11147950374E+02  5.11147950374E+02  0.00000000000E+00  0.00000000000E+00  1.
       25    2    1    2    0    0 -1.89597214566E+02 -4.74553372550E+00 -3.19625086400E+02  3.92115824365E+02  1.25000000000E+02  0.00000000000E+00  1.
       -2    1    1    2    0  502  1.89597214566E+02  4.74553372550E+00 -9.73656516436E+01  2.13189338339E+02  0.00000000000E+00  0.00000000000E+00  1.
       22    1    3    3    0    0 -1.57722989720E+02  2.42590619455E+00 -3.22810741129E+02  3.59289856655E+02  4.21468485109E-06  0.00000000000E+00  1.
       22    1    3    3    0    0 -3.18742248456E+01 -7.17143992005E+00  3.18565472877E+00  3.28259677098E+01  6.74807315049E-07  0.00000000000E+00  1.
</event>
<event>
 6  62   1.0000000E+00   1.2500000E+02   7.8125000E-03   1.2380861E-01
       21   -1    0    0  502  501  0.00000000000E+00  0.00000000000E+00  5.11428145115E+00  5.11428145115E+00  0.00000000000E+00  0.00000000000E+00  1.
       21   -1    0    0  503  502  0.00000000000E+00  0.00000000000E+00 -1.17581177027E+03  1.17581177027E+03  0.00000000000E+00  0.00000000000E+00  1.
       25    2    1    2    0    0  1.76954983343E+01  9.14401699564E+00 -1.10632327006E+03  1.11354071393E+03  1.25000000000E+02  0.00000000000E+00  1.
       21    1    1    2  503  501 -1.76954983343E+01 -9.14401699564E+00 -6.43742187554E+01  6.73853377856E+01  0.00000000000E+00  0.00000000000E+00  1.
       22    1    3    3    0    0  1.27167732281E+01  5.91765577907E+01 -8.60612676216E+02  8.62738523410E+02  1.68587394044E-05  0.00000000000E+00  1.
       22    1    3    3    0    0  4.97872510623E+00 -5.00325407950E+01 -2.45710593844E+02  2.50802190520E+02  5.16191365590E-06  0.00000000000E+00  1.
</event>
<event>
 6  62   1.0000000E+00   1.2500000E+02   7.8125000E-03   1.2380861E-01
       21   -1    0    0  502  501  0.00000000000E+00  0.00000000000E+00  1.84218793747E+01  1.84218793747E+01  0.00000000000E+00  0.00000000000E+00  1.
       21   -1    0    0  503  502  0.00000000000E+00  0.00000000000E+00 -4.66567238111E+02  4.66567238111E+02  0.00000000000E+00  0.00000000000E+00  1.
       25    2    1    2    0    0 -6.14357660038E+00  2.85492018223E+01 -2.17903040497E+02  2.52902225209E+02  1.25000000000E+02  0.00000000000E+00  1.
       21    1    1    2  503  501  6.14357660038E+00 -2.85492018223E+01 -2.30242318239E+02  2.32086892276E+02  0.00000000000E+00  0.00000000000E+00  1.
       22    1    3    3    0    0 -2.20465134316E+01 -4.62435311118E+01 -7.49835480251E+01  9.08132446211E+01  1.49011611938E-06  0.00000000000E+00  1.
       22    1    3    3    0    0  1.59029368312E+01  7.47927329341E+01 -1.42919492472E+02  1.62088980588E+02  2.10734242554E-06  0.00000000000E+00  1.
</event>
<event>
 6  62   1.0000000E+00   1.2500000E+02   7.8125000E-03   1.2380861E-01
       21   -1    0    0  501  502  0.00000000000E+00  0.00000000000E+00  3.94139514663E+01  3.94139514663E+01  0.00000000000E+00  0.00000000000E+00  1.
       21   -1    0    0  502  503  0.00000000000E+00  0.00000000000E+00 -1.95105737475E+02  1.95105737475E+02  0.00000000000E+00  0.00000000000E+00  1.
       25    2    1    2    0    0 -1.15128603774E+00  1.91960134464E+01 -1.69037124371E+02  2.11112201939E+02  1.25000000000E+02  0.00000000000E+00  1.
       21    1    1    2  501  503  1.15128603774E+00 -1.91960134464E+01  1.33453383623E+01  2.34074870026E+01  0.00000000000E+00  0.00000000000E+00  1.
       22    1    3    3    0    0  3.93772602309E+01  5.17051844429E+01 -5.26053654630E+01  8.36141088398E+01  1.05367121277E-06  0.00000000000E+00  1.
       22    1    3    3    0    0 -4.05285462686E+01 -3.25091709965E+01 -1.16431758908E+02  1.27498093099E+02  0.00000000000E+00  0.00000000000E+00  1.
</event>
<event>
 6  62   1.0000000E+00   1.2500000E+02   7.8125000E-03   1.2380861E-01
       21   -1    0    0  501  502  0.00000000000E+00  0.00000000000E+00  4.61354322321E+02  4.61354322321E+02  0.00000000000E+00  0.00000000000E+00  1.
       21   -1    0    0  502  503  0.00000000000E+00  0.00000000000E+00 -1.26964836380E+02  1.26964836380E+02  0.00000000000E+00  0.00000000000E+00  1.
       25    2    1    2    0    0 -2.57386835850E+01  8.70252540553E+00 -9.42051593494E+01  1.58864174153E+02  1.25000000000E+02  0.00000000000E+00  1.
       21    1    1    2  501  503  2.57386835850E+01 -8.70252540553E+00  4.28594645291E+02  4.29454984548E+02  0.00000000000E+00  0.00000000000E+00  1.
       22    1    3    3    0    0 -5.44945270886E+01 -1.91132371676E+00  5.26185433298E+00  5.47813266723E+01  7.18387245226E-07  0.00000000000E+00  1.
       22    1    3    3    0    0  2.87558435036E+01  1.06138491223E+01 -9.94670136824E+01  1.04082847481E+02  1.05367121277E-06  0.00000000000E+00  1.
</event>
<event>
 6  62   1.0000000E+00   1.2500000E+02   7.8125000E-03   1.2380861E-01
        1   -1    0    0  502    0  0.00000000000E+00  0.00000000000E+00  1.06309519719E+03  1.06309519719E+03  0.00000000000E+00  0.00000000000E+00  1.
       21   -1    0    0  501  502  0.00000000000E+00  0.00000000000E+00 -2.51349022553E+02  2.51349022553E+02  0.00000000000E+00  0.00000000000E+00  1.
       25    2    1    2    0    0 -1.76644784522E+01 -6.92350144240E+01 -2.29404330297E+02  2.70844730022E+02  1.25000000000E+02  0.00000000000E+00  1.
        1    1    1    2  501    0  1.76644784522E+01  6.92350144240E+01  1.04115050494E+03  1.04359948972E+03  0.00000000000E+00  0.00000000000E+00  1.
       22    1    3    3    0    0  5.33976647857E+01 -2.59153510252E+01 -1.14460016999E+02  1.28934136344E+02  0.00000000000E+00  0.00000000000E+00  1.
       22    1    3    3    0    0 -7.10621432379E+01 -4.33196633988E+01 -1.14944313298E+02  1.41910593678E+02  0.00000000000E+00  0.00000000000E+00  1.
</event>
<event>
 6  62   1.0000000E+00   1.2500000E+02   7.8125000E-03   1.2380861E-01
       21   -1    0    0  501  502  0.00000000000E+00  0.00000000000E+00  1.94108207890E+02  1.94108207890E+02  0.00000000000E+00  0.00000000000E+00  1.
       21   -1    0    0  502  503  0.00000000000E+00  0.00000000000E+00 -5.36331703792E+01  5.36331703792E+01  0.00000000000E+00  0.00000000000E+00  1.
       25    2    1    2    0    0 -1.05599488283E+01  3.27429963676E+01  3.14376626152E+01  1.33405183412E+02  1.25000000000E+02  0.00000000000E+00  1.
       21    1    1    2  501  503  1.05599488283E+01 -3.27429963676E+01  1.09037374896E+02  1.14336194858E+02  0.00000000000E+00  0.00000000000E+00  1.
       22    1    3    3    0    0  1.96437338901E+01  6.22799571829E+01  5.46926182757E+01  8.51818750774E+01  1.49011611938E-06  0.00000000000E+00  1.
       22    1    3    3    0    0 -3.02036827184E+01 -2.95369608153E+01 -2.32549556605E+01  4.82233083346E+01  9.85619169125E-07  0.00000000000E+00  1.
</event>
<event>
 6  62   1.0000000E+00   1.2500000E+02   7.8125000E-03   1.2380861E-01
       21   -1    0    0  501  502  0.00000000000E+00  0.00000000000E+00  1.47997704604E+01  1.47997704604E+01  0.00000000000E+00  0.00000000000E+00  1.
       21   -1    0    0  502  503  0.00000000000E+00  0.00000000000E+00 -4.76117310905E+02  4.76117310905E+02  0.00000000000E+00  0.00000000000E+00  1.
       25    2    1    2    0    0  1.80096631504E+01  1.53839791720E+01 -4.43193363158E+02  4.61092584986E+02  1.25000000000E+02  0.00000000000E+00  1.
       21    1    1    2  501  503 -1.80096631504E+01 -1.53839791720E+01 -1.81241772866E+01  2.98244963792E+01  0.00000000000E+00  0.00000000000E+00  1.
       22    1    3    3    0    0  4.42071607492E+01 -1.82376994733E+01 -3.90038329158E+02  3.92959011801E+02  0.00000000000E+00  0.00000000000E+00  1.
       22    1    3    3    0    0 -2.61974975988E+01  3.36216786453E+01 -5.31550340003E+01  6.81335731849E+01  7.45058059692E-07  0.00000000000E+00  1.
</event>
<event>
 6  62   1.0000000E+00   1.2500000E+02   7.8125000E-03   1.2380861E-01
       21   -1    0    0  501  502  0.00000000000E+00  0.00000000000E+00  6.64825201482E+01  6.64825201482E+01  0.00000000000E+00  0.00000000000E+00  1.
       21   -1    0    0  502  503  0.00000000000E+00  0.00000000000E+00 -2.34599849942E+02  2.34599849942E+02  0.00000000000E+00  0.00000000000E+00  1.
       25    2    1    2    0    0 -1.24865529524E+00 -4.71194937741E+01 -2.02599882513E+02  2.42679867784E+02  1.25000000000E+02  0.00000000000E+00  1.
       21    1    1    2  501  503  1.24865529524E+00  4.71194937741E+01  3.44825527191E+01  5.84025023060E+01  0.00000000000E+00  0.00000000000E+00  1.
       22    1    3    3    0    0 -5.31529745453E+01 -5.49566037017E+00 -3.92564668689E+01  6.63061925988E+01  1.58050681916E-06  0.00000000000E+00  1.
       22    1    3    3    0    0  5.19043192501E+01 -4.16238334039E+01 -1.63343415644E+02  1.76373675185E+02  2.10734242554E-06  0.00000000000E+00  1.
</event>
<event>
 6  62   1.0000000E+00   1.2500000E+02   7.8125000E-03   1.2380861E-01
        2   -1    0    0  502    0  0.00000000000E+00  0.00000000000E+00  1.67936121415E+02  1.67936121415E+02  0.00000000000E+00  0.00000000000E+00  1.
       21   -1    0    0  501  502  0.00000000000E+00  0.00000000000E+00 -3.00897319675E+02  3.00897319675E+02  0.00000000000E+00  0.00000000000E+00  1.
       25    2    1    2    0    0 -1.64367892101E+01 -4.91186921819E-01 -2.87234479858E+02  3.13686237702E+02  1.25000000000E+02  0.00000000000E+00  1.
        2    1    1    2  501    0  1.64367892101E+01  4.91186921819E-01  1.54273281598E+02  1.55147203388E+02  0.00000000000E+00  0.00000000000E+00  1.
       22    1    3    3    0    0 -4.29712143491E+01  4.06155104857E+01 -2.34120997303E+02  2.41472123304E+02  4.21468485109E-06  0.00000000000E+00  1.
       22    1    3    3    0    0  2.65344251390E+01 -4.11066974075E+01 -5.31134825551E+01  7.22141143984E+01  1.49011611938E-06  0.00000000000E+00  1.
</event>
<event>
 6  62   1.0000000E+00   1.2500000E+02   7.8125000E-03   1.2380861E-01
        3   -1    0    0  502    0  0.00000000000E+00  0.00000000000E+00  2.53747652003E+02  2.53747652003E+02  0.00000000000E+00  0.00000000000E+00  1.
       21   -1    0    0  501  502  0.00000000000E+00  0.00000000000E+00 -8.61957909269E+02  8.61957909269E+02  0.00000000000E+00  0.00000000000E+00  1.
       25    2    1    2    0    0  6.20993325233E+00 -2.02302772284E+01 -8.56844281453E+02  8.66172586756E+02  1.25000000000E+02  0.00000000000E+00  1.
        3    1    1    2  501    0 -6.20993325233E+00  2.02302772284E+01  2.48634024187E+02  2.49532974517E+02  0.00000000000E+00  0.00000000000E+00  1.
       22    1    3    3    0    0 -3.06828912300E+01 -5.55642479657E+00 -5.40693588805E+01  6.24164180365E+01  2.10734242554E-06  0.00000000000E+00  1.
       22    1    3    3    0    0  3.68928244823E+01 -1.46738524318E+01 -8.02774922572E+02  8.03756168720E+02  1.68587394044E-05  0.00000000000E+00  1.
</event>
<event>
 6  62   1.0000000E+00   1.2500000E+02   7.8125000E-03   1.2380861E-01
       21   -1    0    0  502  501  0.00000000000E+00  0.00000000000E+00  4.23197563802E+01  4.23197563802E+01  0.00000000000E+00  0.00000000000E+00  1.
       21   -1    0    0  503  502  0.00000000000E+00  0.00000000000E+00 -2.65076474431E+02  2.65076474431E+02  0.00000000000E+00  0.00000000000E+00  1.
       25    2    1    2    0    0 -1.38512891850E+01 -1.04157253585E+01 -2.47132043322E+02  2.77488004035E+02  1.25000000000E+02  0.00000000000E+00  1.
       21    1    1    2  503  501  1.38512891850E+01  1.04157253585E+01  2.43753252711E+01  2.99082267763E+01  0.00000000000E+00  0.00000000000E+00  1.
       22    1    3    3    0    0 -4.66844550875E+01  3.53422325350E+01 -1.82990507825E+02  1.92130262326E+02  2.10734242554E-06  0.00000000000E+00  1.
       22    1    3    3    0    0  3.28331659025E+01 -4.57579578935E+01 -6.41415354971E+01  8.53577417092E+01  2.10734242554E-06  0.00000000000E+00  1.
</event>
<event>
 6  62   1.0000000E+00   1.2500000E+02   7.8125000E-03   1.2380861E-01
       21   -1    0    0  501  502  0.00000000000E+00  0.00000000000E+00  5.73940122702E+02  5.73940122702E+02  0.00000000000E+00  0.00000000000E+00  1.
       21   -1    0    0  502  503  0.00000000000E+00  0.00000000000E+00 -3.13885303473E+01  3.13885303473E+01  0.00000000000E+00  0.00000000000E+00  1.
       25    2    1    2    0    0 -1.58933266604E-01  3.08413339210E+01  5.56701801579E+02  5.71395755163E+02  1.25000000000E+02  0.00000000000E+00  1.
       21    1    1    2  501  503  1.58933266604E-01 -3.08413339210E+01 -1.41502092244E+01  3.39328978854E+01  0.00000000000E+00  0.00000000000E+00  1.
       22    1    3    3    0    0 -3.86155948118E+01  3.21900906727E+01  8.98292037791E+01  1.02940040566E+02  2.10734242554E-06  0.00000000000E+00  1.
       22    1    3    3    0    0  3.84566615452E+01 -1.34875675170E+00  4.66872597800E+02  4.68455714597E+02  8.42936970218E-06  0.00000000000E+00  1.
</event>
<event>
 6  62   1.0000000E+00   1.2500000E+02   7.8125000E-03   1.2380861E-01
       21   -1    0    0  502  501  0.00000000000E+00  0.00000000000E+00  4.65507076317E+02  4.65507076317E+02  0.00000000000E+00  0.00000000000E+00  1.
       21   -1    0    0  503  502  0.00000000000E+00  0.00000000000E+00 -3.70773085106E+01  3.70773085106E+01  0.00000000000E+00  0.00000000000E+00  1.
       25    2    1    2    0    0 -2.56954569532E+01  3.65085349993E+00  7.47216195317E+01  1.47925338143E+02  1.25000000000E+02  0.00000000000E+00  1.
       21    1    1    2  503  501  2.56954569532E+01 -3.65085349993E+00  3.53708148274E+02  3.54659046684E+02  0.00000000000E+00  0.00000000000E+00  1.
       22    1    3    3    0    0 -1.22154583943E+01  3.42405145066E+01  9.97484333381E+01  1.06166756618E+02  1.82501207499E-06  0.00000000000E+00  1.
       22    1    3    3    0    0 -1.34799985589E+01 -3.05896610067E+01 -2.50268138064E+01  4.17585815246E+01  0.00000000000E+00  0.00000000000E+00  1.
</event>
<event>
 6  62   1.0000000E+00   1.2500000E+02   7.8125000E-03   1.2380861E-01
       21   -1    0    0  501  502  0.00000000000E+00  0.00000000000E+00  6.09683451451E+02  6.09683451451E+02  0.00000000000E+00  0.00000000000E+00  1.
       21   -1    0    0  502  503  0.00000000000E+00  0.00000000000E+00 -2.92058310723E+01  2.92058310723E+01  0.00000000000E+00  0.00000000000E+00  1.
       25    2    1    2    0    0 -6.85479793671E+00 -6.69321601230E+01  1.63539536473E+02  2.16557341837E+02  1.25000000000E+02  0.00000000000E+00  1.
       21    1    1    2  501  503  6.85479793671E+00  6.69321601230E+01  4.16938083905E+02  4.22331940687E+02  0.00000000000E+00  0.00000000000E+00  1.
       22    1    3    3    0    0 -4.62309440676E+01 -7.67433466342E+01  6.71194282751E+01  1.11945786406E+02  1.66600046866E-06  0.00000000000E+00  1.
       22    1    3    3    0    0  3.93761461309E+01  9.81118651122E+00  9.64201081979E+01  1.04611555431E+02  1.49011611938E-06  0.00000000000E+00  1.
</event>
<event>
 6  62   1.0000000E+00   1.2500000E+02   7.8125000E-03   1.2380861E-01
       21   -1    0    0  501  502  0.00000000000E+00  0.00000000000E+00  3.41460027027E+02  3.41460027027E+02  0.00000000000E+00  0.00000000000E+00  1.
       21   -1    0    0  502  503  0.00000000000E+00  0.00000000000E+00 -1.91617816399E+01  1.91617816399E+01  0.00000000000E+00  0.00000000000E+00  1.
       25    2    1    2    0    0 -1.02133162078E+01  1.18896714517E+01  1.93646095228E+02  2.31018367911E+02  1.25000000000E+02  0.00000000000E+00  1.
       21    1    1    2  501  503  1.02133162078E+01 -1.18896714517E+01  1.28652150159E+02  1.29603440756E+02  0.00000000000E+00  0.00000000000E+00  1.
       22    1    3    3    0    0  3.41569336143E+01  3.94025614019E+01  1.61493467208E+02  1.69703853550E+02  2.10734242554E-06  0.00000000000E+00  1.
       22    1    3    3    0    0 -4.43702498221E+01 -2.75128899502E+01  3.21526280198E+01  6.13145143605E+01  1.49011611938E-06  0.00000000000E+00  1.
</event>
<event>
 6  62   1.0000000E+00   1.2500000E+02   7.8125000E-03   1.2380861E-01
       21   -1    0    0  501  502  0.00000000000E+00  0.00000000000E+00  1.66117351283E+02  1.66117351283E+02  0.00000000000E+00  0.00000000000E+00  1.
       21   -1    0    0  502  503  0.00000000000E+00  0.00000000000E+00 -3.46915994346E+01  3.46915994346E+01  0.00000000000E+00  0.00000000000E+00  1.
       25    2    1    2    0    0  2.16100155138E+01  5.93538788318E+00  9.73009608076E+01  1.59983432186E+02  1.25000000000E+02  0.00000000000E+00  1.
       21    1    1    2  501  503 -2.16100155138E+01 -5.93538788318E+00  3.41247910411E+01  4.08255185323E+01  0.00000000000E+00  0.00000000000E+00  1.
       22    1    3    3    0    0  3.48442440490E+01 -5.19602248266E+01  2.75082374967E+01  6.83424424319E+01  1.49011611938E-06  0.00000000000E+00  1.
       22    1    3    3    0    0 -1.32342285352E+01  5.78956127098E+01  6.97927233109E+01  9.16409897541E+01  1.05367121277E-06  0.00000000000E+00  1.
</event>
<event>
 6  62   1.0000000E+00   1.2500000E+02   7.8125000E-03   1.2380861E-01
       21   -1    0    0  501  502  0.00000000000E+00  0.00000000000E+00  1.20847914943E+01  1.20847914943E+01  0.00000000000E+00  0.00000000000E+00  1.
        4   -1    0    0  502    0  0.00000000000E+00  0.00000000000E+00 -1.06336537621E+03  1.06336537621E+03  0.00000000000E+00  0.00000000000E+00  1.
       25    2    1    2    0    0  7.34759858430E+00 -2.00893600956E+01 -3.25168922290E+02  3.49023491498E+02  1.25000000000E+02  0.00000000000E+00  1.
        4    1    1    2  501    0 -7.34759858430E+00  2.00893600956E+01 -7.26111662429E+02  7.26426676209E+02  0.00000000000E+00  0.00000000000E+00  1.
       22    1    3    3    0    0  1.09066058074E+01 -3.74523321275E+01 -3.28653392936E+02  3.30960245226E+02  5.96046447754E-06  0.00000000000E+00  1.
       22    1    3    3    0    0 -3.55900722315E+00  1.73629720319E+01  3.48447064568E+00  1.80632462718E+01  6.01767002760E-07  0.00000000000E+00  1.
</event>
<event>
 6  62   1.0000000E+00   1.2500000E+02   7.8125000E-03   1.2380861E-01
       21   -1    0    0  501  502  0.00000000000E+00  0.00000000000E+00  1.36880731902E+02  1.36880731902E+02  0.00000000000E+00  0.00000000000E+00  1.
       21   -1    0    0  502  503  0.00000000000E+00  0.00000000000E+00 -7.56460162789E+01  7.56460162789E+01  0.00000000000E+00  0.00000000000E+00  1.
       25    2    1    2    0    0 -1.35575050272E+01  6.06940169037E+01  5.48743987442E+01  1.50012563701E+02  1.25000000000E+02  0.00000000000E+00  1.
       21    1    1    2  501  503  1.35575050272E+01 -6.06940169037E+01  6.36031687908E+00  6.25141844806E+01  0.00000000000E+00  0.00000000000E+00  1.
       22    1    3    3    0    0  3.10176491933E+01  3.66538976028E+01 -2.59890869640E+01  5.45988590739E+01  6.45239206988E-07  0.00000000000E+00  1.
       22    1    3    3    0    0 -4.45751542205E+01  2.40401193009E+01  8.08634857082E+01  9.54137046271E+01  1.05367121277E-06  0.00000000000E+00  1.
</event>
<event>
 6  62   1.0000000E+00   1.2500000E+02   7.8125000E-03   1.2380861E-01
       21   -1    0    0  502  501  0.00000000000E+00  0.00000000000E+00  1.90789558885E+02  1.90789558885E+02  0.00000000000E+00  0.00000000000E+00  1.
       21   -1    0    0  503  502  0.00000000000E+00  0.00000000000E+00 -4.35722971886E+01  4.35722971886E+01  0.00000000000E+00  0.00000000000E+00  1.
       25    2    1    2    0    0 -1.93112972406E+01 -2.25295079818E+00  1.65068200482E+02  2.07967576316E+02  1.25000000000E+02  0.00000000000E+00  1.
       21    1    1    2  503  501  1.93112972406E+01  2.25295079818E+00 -1.78509387854E+01  2.63942797578E+01  0.00000000000E+00  0.00000000000E+00  1.
       22    1    3    3    0    0  4.45369668799E+01  1.81601379449E+01  1.13897551508E+02  1.23636500551E+02  1.49011611938E-06  0.00000000000E+00  1.
       22    1    3    3    0    0 -6.38482641205E+01 -2.04130887431E+01  5.11706489741E+01  8.43310757649E+01  1.05367121277E-06  0.00000000000E+00  1.
</event>
<event>
 6  62   1.0000000E+00   1.2500000E+02   7.8125000E-03   1.2380861E-01
       21   -1    0    0  501  502  0.00000000000E+00  0.00000000000E+00  3.66520226829E+01  3.66520226829E+01  0.00000000000E+00  0.00000000000E+00  1.
       21   -1    0    0  502  503  0.00000000000E+00  0.00000000000E+00 -1.43648499652E+02  1.43648499652E+02  0.00000000000E+00  0.00000000000E+00  1.
       25    2    1    2    0    0 -4.21573595925E+00  1.73110276241E+01 -1.00350374489E+02  1.61284350658E+02  1.25000000000E+02  0.00000000000E+00  1.
       21    1    1    2  501  503  4.21573595925E+00 -1.73110276241E+01 -6.64610248019E+00  1.90161716772E+01  0.00000000000E+00  0.00000000000E+00  1.
       22    1    3    3    0    0  4.93863047263E+01  4.19665390037E+01 -3.66339408401E+01  7.44462431016E+01  1.82501207499E-06  0.00000000000E+00  1.
       22    1    3    3    0    0 -5.36020406855E+01 -2.46555113796E+01 -6.37164336489E+01  8.68381075564E+01  1.49011611938E-06  0.00000000000E+00  1.
</event>
<event>
 6  62   1.0000000E+00   1.2500000E+02   7.8125000E-03   1.2380861E-01
        2   -1    0    0  502    0  0.00000000000E+00  0.00000000000E+00  2.84305521338E+02  2.84305521338E+02  0.00000000000E+00  0.00000000000E+00  1.
       21   -1    0    0  501  502  0.00000000000E+00  0.00000000000E+00 -3.38761164907E+01  3.38761164907E+01  0.00000000000E+00  0.00000000000E+00  1.
       25    2    1    2    0    0 -4.06651631346E+00  2.28976298476E+01  8.92734234975E+01  1.55356307083E+02  1.25000000000E+02  0.00000000000E+00  1.
        2    1    1    2  501    0  4.06651631346E+00 -2.28976298476E+01  1.61155981349E+02  1.62825330745E+02  0.00000000000E+00  0.00000000000E+00  1.
       22    1    3    3    0    0 -1.64414744357E+01  2.97275507190E+01 -2.37515127599E+01  4.14509796236E+01  2.63417803193E-07  0.00000000000E+00  1.
       22    1    3    3    0    0  1.23749581222E+01 -6.82992087141E+00  1.13024936257E+02  1.13905327459E+02  2.58095682795E-06  0.00000000000E+00  1.
</event>
<event>
 6  62   1.0000000E+00   1.2500000E+02   7.8125000E-03   1.2380861E-01
       21   -1    0    0  501  502  0.00000000000E+00  0.00000000000E+00  4.29826592242E+01  4.29826592242E+01  0.00000000000E+00  0.00000000000E+00  1.
       21   -1    0    0  502  503  0.00000000000E+00  0.00000000000E+00 -2.45297670621E+02  2.45297670621E+02  0.00000000000E+00  0.00000000000E+00  1.
       25    2    1    2    0    0  4.07424278427E+01  4.64847563634E+01 -1.12093905205E+02  1.78915682892E+02  1.25000000000E+02  0.00000000000E+00  1.
       21    1    1    2  501  503 -4.07424278427E+01 -4.64847563634E+01 -9.02211061922E+01  1.09364646953E+02  0.00000000000E+00  0.00000000000E+00  1.
       22    1    3    3    0    0 -1.08095038078E+01  2.75355679713E+01 -1.19849863778E+02  1.23446517665E+02  2.10734242554E-06  0.00000000000E+00  1.
       22    1    3    3    0    0  5.15519316505E+01  1.89491883921E+01  7.75595857255E+00  5.54691652272E+01  1.63976260104E-06  0.00000000000E+00  1.
</event>
<event>
 6  62   1.0000000E+00   1.2500000E+02   7.8125000E-03   1.2380861E-01
       21   -1    0    0  501  502  0.00000000000E+00  0.00000000000E+00  6.27959501669E+02  6.27959501669E+02  0.00000000000E+00  0.00000000000E+00  1.
       21   -1    0    0  502  503  0.00000000000E+00  0.00000000000E+00 -3.48882152634E+01  3.48882152634E+01  0.00000000000E+00  0.00000000000E+00  1.
       25    2    1    2    0    0  6.30457018722E+01  4.42361584858E+01  1.38635071031E+02  2.01931377359E+02  1.25000000000E+02  0.00000000000E+00  1.
       21    1    1    2  501  503 -6.30457018722E+01 -4.42361584858E+01  4.54436215375E+02  4.60916339574E+02  0.00000000000E+00  0.00000000000E+00  1.
       22    1    3    3    0    0 -1.61577645398E+01  1.20598991024E+01 -1.56641691413E+01  2.55319548051E+01  6.17769507757E-07  0.00000000000E+00  1.
       22    1    3    3    0    0  7.92034664120E+01  3.21762593834E+01  1.54299240172E+02  1.76399422554E+02  2.10734242554E-06  0.00000000000E+00  1.
</event>
<event>
 6  62   1.0000000E+00   1.2500000E+02   7.8125000E-03   1.2380861E-01
       21   -1    0    0  501  502  0.00000000000E+00  0.00000000000E+00  4.05532164290E+02  4.05532164290E+02  0.00000000000E+00  0.00000000000E+00  1.
       21   -1    0    0  502  503  0.00000000000E+00  0.00000000000E+00 -1.09021699286E+02  1.09021699286E+02  0.00000000000E+00  0.00000000000E+00  1.
       25    2    1    2    0    0  5.96068465179E+00  5.00519904251E+01  3.87645565869E+02  4.10408109380E+02  1.25000000000E+02  0.00000000000E+00  1.
       21    1    1    2  501  503 -5.96068465179E+00 -5.00519904251E+01 -9.11351008661E+01  1.04145754195E+02  0.00000000000E+00  0.00000000000E+00  1.
       22    1    3    3    0    0 -2.29324747476E+01  9.90412860366E+00  6.15862171229E+00  2.57277823149E+01  6.31653702178E-07  0.00000000000E+00  1.
       22    1    3    3    0    0  2.88931593994E+01  4.01478618214E+01  3.81486944157E+02  3.84680327065E+02  4.21468485109E-06  0.00000000000E+00  1.
</event>
<event>
 6  62   1.0000000E+00   1.2500000E+02   7.8125000E-03   1.2380861E-01
       21   -1    0    0  502  501  0.00000000000E+00  0.00000000000E+00  3.68633125195E+02  3.68633125195E+02  0.00000000000E+00  0.00000000000E+00  1.
       21   -1    0    0  503  502  0.00000000000E+00  0.00000000000E+00 -4.59279247971E+01  4.59279247971E+01  0.00000000000E+00  0.00000000000E+00  1.
       25    2    1    2    0    0  4.55121847887E+01  4.20543273922E+01  3.23806493593E+02  3.52584132811E+02  1.25000000000E+02  0.00000000000E+00  1.
       21    1    1    2  503  501 -4.55121847887E+01 -4.20543273922E+01 -1.10129319516E+00  6.19769171818E+01  0.00000000000E+00  0.00000000000E+00  1.
       22    1    3    3    0    0  4.22271880520E+01 -5.65896285175E+00  2.92126932101E+02  2.95217383855E+02  4.21468485109E-06  0.00000000000E+00  1.
       22    1    3    3    0    0  3.28499673673E+00  4.77132902439E+01  3.16795614917E+01  5.73667489559E+01  9.12506037497E-07  0.00000000000E+00  1.
</event>
<event>
 6  62   1.0000000E+00   1.2500000E+02   7.8125000E-03   1.2380861E-01
        1   -1    0    0  502    0  0.00000000000E+00  0.00000000000E+00  8.83856548130E+02  8.83856548130E+02  0.00000000000E+00  0.00000000000E+00  1.
       21   -1    0    0  501  502  0.00000000000E+00  0.00000000000E+00 -1.22723409402E+01  1.22723409402E+01  0.00000000000E+00  0.00000000000E+00  1.
       25    2    1    2    0    0  4.21185667841E+01 -3.83815208025E+01  4.44066432296E+02  4.64830195985E+02  1.25000000000E+02  0.00000000000E+00  1.
        1    1    1    2  501    0 -4.21185667841E+01  3.83815208025E+01  4.27517774894E+02  4.31298693085E+02  0.00000000000E+00  0.00000000000E+00  1.
       22    1    3    3    0    0 -3.67483070121E+01  1.10311942611E+00  2.35933186521E+02  2.38780492174E+02  2.98023223877E-06  0.00000000000E+00  1.
       22    1    3    3    0    0  7.88668737962E+01 -3.94846402286E+01  2.08133245775E+02  2.26049703811E+02  4.21468485109E-06  0.00000000000E+00  1.
</event>
<event>
 6  62   1.0000000E+00   1.2500000E+02   7.8125000E-03   1.2380861E-01
       21   -1    0    0  502  501  0.00000000000E+00  0.00000000000E+00  2.06742244620E+01  2.06742244620E+01  0.00000000000E+00  0.00000000000E+00  1.
       21   -1    0    0  503  502  0.00000000000E+00  0.00000000000E+00 -9.42990230993E+02  9.42990230993E+02  0.00000000000E+00  0.00000000000E+00  1.
       25    2    1    2    0    0 -6.71589265621E+01  8.09502363607E+01 -6.82793368544E+02  7.02064844805E+02  1.25000000000E+02  0.00000000000E+00  1.
       21    1    1    2  503  501  6.71589265621E+01 -8.09502363607E+01 -2.39522637988E+02  2.61599610651E+02  0.00000000000E+00  0.00000000000E+00  1.
       22    1    3    3    0    0 -4.92322953519E+01 -2.19835748627E+01 -1.57272080965E+02  1.66257643194E+02  2.10734242554E-06  0.00000000000E+00  1.
       22    1    3    3    0    0 -1.79266312102E+01  1.02933811223E+02 -5.25521287579E+02  5.35807201611E+02  5.96046447754E-06  0.00000000000E+00  1.
</event>
<event>
 6  62   1.0000000E+00   1.2500000E+02   7.8125000E-03   1.2380861E-01
       21   -1    0    0  501  502  0.00000000000E+00  0.00000000000E+00  1.24469570321E+01  1.24469570321E+01  0.00000000000E+00  0.00000000000E+00  1.
       21   -1    0    0  502  503  0.00000000000E+00  0.00000000000E+00 -4.42542263531E+02  4.42542263531E+02  0.00000000000E+00  0.00000000000E+00  1.
       25    2    1    2    0    0 -1.26259914190E+01  1.74884515232E+01 -3.70088026568E+02  3.91222965845E+02  1.25000000000E+02  0.00000000000E+00  1.
       21    1    1    2  501  503  1.26259914190E+01 -1.74884515232E+01 -6.00072799307E+01  6.37662547173E+01  0.00000000000E+00  0.00000000000E+00  1.
       22    1    3    3    0    0  1.88082309442E+01 -4.89182841886E+01 -1.30779621198E+02  1.40890231741E+02  1.49011611938E-06  0.00000000000E+00  1.
       22    1    3    3    0    0 -3.14342223632E+01  6.64067357118E+01 -2.39308405370E+02  2.50332734104E+02  2.98023223877E-06  0.00000000000E+00  1.
</event>
<event>
 6  62   1.0000000E+00   1.2500000E+02   7.8125000E-03   1.2380861E-01
       21   -1    0    0  502  501  0.00000000000E+00  0.00000000000E+00  4.87153968337E+01  4.87153968337E+01  0.00000000000E+00  0.00000000000E+00  1.
       21   -1    0    0  503  502  0.00000000000E+00  0.00000000000E+00 -1.22817250435E+03  1.22817250435E+03  0.00000000000E+00  0.00000000000E+00  1.
       25    2    1    2    0    0  5.01447053939E+01  6.75632466306E+01 -1.18311346686E+03  1.19267001272E+03  1.25000000000E+02  0.00000000000E+00  1.
       21    1    1    2  503  501 -5.01447053939E+01 -6.75632466306E+01  3.65635934062E+00  8.42178884676E+01  0.00000000000E+00  0.00000000000E+00  1.
       22    1    3    3    0    0  4.42443406319E+01  9.28318497787E+01 -1.11579167492E+03  1.12052058251E+03  1.19209289551E-05  0.00000000000E+00  1.
       22    1    3    3    0    0  5.90036476203E+00 -2.52686031481E+01 -6.73217919390E+01  7.21494302074E+01  2.23517417908E-06  0.00000000000E+00  1.
</event>
<event>
 6  62   1.0000000E+00   1.2500000E+02   7.8125000E-03   1.2380861E-01
       21   -1    0    0  501  502  0.00000000000E+00  0.00000000000E+00  5.54032315585E+01  5.54032315585E+01  0.00000000000E+00  0.00000000000E+00  1.
       21   -1    0    0  502  503  0.00000000000E+00  0.00000000000E+00 -2.25712484933E+02  2.25712484933E+02  0.00000000000E+00  0.00000000000E+00  1.
       25    2    1    2    0    0  2.44706919838E+01 -2.20495714456E+00 -2.01692114991E+01  1.28978578433E+02  1.25000000000E+02  0.00000000000E+00  1.
       21    1    1    2  501  503 -2.44706919838E+01  2.20495714456E+00 -1.50140041876E+02  1.52137138058E+02  0.00000000000E+00  0.00000000000E+00  1.
       22    1    3    3    0    0 -1.52074752245E+01  4.71479828459E+01  2.06133678372E+01  5.36573436049E+01  8.73658016291E-07  0.00000000000E+00  1.
       22    1    3    3    0    0  3.96781672083E+01 -4.93529399905E+01 -4.07825793363E+01  7.53212348281E+01  0.00000000000E+00  0.00000000000E+00  1.
</event>
<event>
 6  62   1.0000000E+00   1.2500000E+02   7.8125000E-03   1.2380861E-01
       21   -1    0    0  502  501  0.00000000000E+00  0.00000000000E+00  3.91770078998E+02  3.91770078998E+02  0.00000000000E+00  0.00000000000E+00  1.
       21   -1    0    0  503  502  0.00000000000E+00  0.00000000000E+00 -1.33280200632E+01  1.33280200632E+01  0.00000000000E+00  0.00000000000E+00  1.
       25    2    1    2    0    0 -1.19726716945E+00 -1.80512368947E+01  3.36404043221E+02  3.59332660494E+02  1.25000000000E+02  0.00000000000E+00  1.
       21    1    1    2  503  501  1.19726716945E+00  1.80512368947E+01  4.20380157135E+01  4.57654385670E+01  0.00000000000E+00  0.00000000000E+00  1.
       22    1    3    3    0    0  2.70473805420E+00  4.67039314726E+01  6.37880034196E+01  7.91042489579E+01  2.23517417908E-06  0.00000000000E+00  1.
       22    1    3    3    0    0 -3.90200522365E+00 -6.47551683673E+01  2.72616039801E+02  2.80228411536E+02  2.98023223877E-06  0.00000000000E+00  1.
</event>
<event>
 6  62   1.0000000E+00   1.2500000E+02   7.8125000E-03   1.2380861E-01
       21   -1    0    0  501  502  0.00000000000E+00  0.00000000000E+00  4.56186083671E+01  4.56186083671E+01  0.00000000000E+00  0.00000000000E+00  1.
       21   -1    0    0  502  503  0.00000000000E+00  0.00000000000E+00 -3.54390147069E+02  3.54390147069E+02  0.00000000000E+00  0.00000000000E+00  1.
       25    2    1    2    0    0  7.68592094975E+00  2.15208588637E+01 -4.43308303341E+01  1.34582477556E+02  1.25000000000E+02  0.00000000000E+00  1.
       21    1    1    2  501  503 -7.68592094975E+00 -2.15208588637E+01 -2.64440708367E+02  2.65426277880E+02  0.00000000000E+00  0.00000000000E+00  1.
       22    1    3    3    0    0 -2.41344450336E+01  3.55304626299E+00  3.76293076665E+01  4.48448477564E+01  9.12506037497E-07  0.00000000000E+00  1.
       22    1    3    3    0    0  3.18203659834E+01  1.79678126007E+01 -8.19601380006E+01  8.97376297996E+01  1.49011611938E-06  0.00000000000E+00  1.
</event>
<event>
 6  62   1.0000000E+00   1.2500000E+02   7.8125000E-03   1.2380861E-01
       21   -1    0    0  501  502  0.00000000000E+00  0.00000000000E+00  3.54976168151E+02  3.54976168151E+02  0.00000000000E+00  0.00000000000E+00  1.
       21   -1    0    0  502  503  0.00000000000E+00  0.00000000000E+00 -5.35932614087E+02  5.35932614087E+02  0.00000000000E+00  0.00000000000E+00  1.
       25    2    1    2    0    0 -2.14410017579E+02 -3.88172940292E+00  2.85021954117E+02  3.77954015443E+02  1.25000000000E+02  0.00000000000E+00  1.
       21    1    1    2  501  503  2.14410017579E+02  3.88172940292E+00 -4.65978400053E+02  5.12954766794E+02  0.00000000000E+00  0.00000000000E+00  1.
       22    1    3    3    0    0 -1.18220244598E+02  5.20283621808E+01  1.99335953193E+02  2.37524312312E+02  4.21468485109E-06  0.00000000000E+00  1.
       22    1    3    3    0    0 -9.61897729811E+01 -5.59100915837E+01  8.56860009238E+01  1.40429703131E+02  1.49011611938E-06  0.00000000000E+00  1.
</event>
<event>
 6  62   1.0000000E+00   1.2500000E+02   7.8125000E-03   1.2380861E-01
       21   -1    0    0  501  502  0.00000000000E+00  0.00000000000E+00  2.94092553057E+01  2.94092553057E+01  0.00000000000E+00  0.00000000000E+00  1.
       21   -1    0    0  502  503  0.00000000000E+00  0.00000000000E+00 -2.16761004782E+02  2.16761004782E+02  0.00000000000E+00  0.00000000000E+00  1.
       25    2    1    2    0    0  2.96274216478E+01  8.41846407249E+00 -1.46928305564E+02  1.95349895384E+02  1.25000000000E+02  0.00000000000E+00  1.
       21    1    1    2  501  503 -2.96274216478E+01 -8.41846407249E+00 -4.04234439130E+01  5.08203647038E+01  0.00000000000E+00  0.00000000000E+00  1.
       22    1    3    3    0    0  3.67271315892E+01  1.47398616845E+01 -1.67806260398E+02  1.72409648065E+02  0.00000000000E+00  0.00000000000E+00  1.
       22    1    3    3    0    0 -7.09970994143E+00 -6.32139761197E+00  2.08779548337E+01  2.29402473190E+01  6.45239206988E-07  0.00000000000E+00  1.
</event>
<event>
 6  62   1.0000000E+00   1.2500000E+02   7.8125000E-03   1.2380861E-01
       21   -1    0    0  502  501  0.00000000000E+00  0.00000000000E+00  2.35896567875E+03  2.35896567875E+03  0.00000000000E+00  0.00000000000E+00  1.
       21   -1    0    0  503  502  0.00000000000E+00  0.00000000000E+00 -1.90533398903E+01  1.90533398903E+01  0.00000000000E+00  0.00000000000E+00  1.
       25    2    1    2    0    0 -4.63005746757E-01 -1.81068129811E+01  1.90726097513E+02  2.28756454167E+02  1.25000000000E+02  0.00000000000E+00  1.
       21    1    1    2  503  501  4.63005746757E-01  1.81068129811E+01  2.14918624135E+03  2.14926256447E+03  0.00000000000E+00  0.00000000000E+00  1.
       22    1    3    3    0    0 -2.76362078674E+01  9.17667251285E+00  1.87903343815E+02  1.90146359209E+02  2.10734242554E-06  0.00000000000E+00  1.
       22    1    3    3    0    0  2.71732021207E+01 -2.72834854940E+01  2.82275369782E+00  3.86100949575E+01  6.95380592862E-07  0.00000000000E+00  1.
</event>
<event>
 6  62   1.0000000E+00   1.2500000E+02   7.8125000E-03   1.2380861E-01
       21   -1    0    0  502  501  0.00000000000E+00  0.00000000000E+00  8.54738216724E+01  8.54738216724E+01  0.00000000000E+00  0.00000000000E+00  1.
       21   -1    0    0  503  502  0.00000000000E+00  0.00000000000E+00 -6.84325690689E+01  6.84325690689E+01  0.00000000000E+00  0.00000000000E+00  1.
       25    2    1    2    0    0 -1.38849570365E+01 -1.35887246196E+01 -2.25944543918E+00  1.26520949105E+02  1.25000000000E+02  0.00000000000E+00  1.
       21    1    1    2  503  501  1.38849570365E+01  1.35887246196E+01  1.93006980427E+01  2.73854416365E+01  0.00000000000E+00  0.00000000000E+00  1.
       22    1    3    3    0    0  5.02546824718E+01  1.86700602280E+01  7.25087202734E+00  5.40987930033E+01  5.58793544769E-07  0.00000000000E+00  1.
       22    1    3    3    0    0 -6.41396395083E+01 -3.22587848476E+01 -9.51031746652E+00  7.24221561017E+01  8.43348460098E-07  0.00000000000E+00  1.
</event>
<event>
 6  62   1.0000000E+00   1.2500000E+02   7.8125000E-03   1.2380861E-01
        2   -1    0    0  502    0  0.00000000000E+00  0.00000000000E+00  1.22650140964E+02  1.22650140964E+02  0.00000000000E+00  0.00000000000E+00  1.
       21   -1    0    0  501  502  0.00000000000E+00  0.00000000000E+00 -1.80623467006E+02  1.80623467006E+02  0.00000000000E+00  0.00000000000E+00  1.
       25    2    1    2    0    0  8.55694279096E+00  2.12701647000E+01 -1.56793477507E+02  2.01828728790E+02  1.25000000000E+02  0.00000000000E+00  1.
        2    1    1    2  501    0 -8.55694279096E+00 -2.12701647000E+01  9.88201514653E+01  1.01444879180E+02  0.00000000000E+00  0.00000000000E+00  1.
       22    1    3    3    0    0  7.10615982172E+00  5.46591970395E+00 -1.76386585307E+02  1.76614272532E+02  0.00000000000E+00  0.00000000000E+00  1.
       22    1    3    3    0    0  1.45078296924E+00  1.58042449960E+01  1.95931078003E+01  2.52144562581E+01  7.90253409579E-07  0.00000000000E+00  1.
</event>
<event>
 6  62   1.0000000E+00   1.2500000E+02   7.8125000E-03   1.2380861E-01
       21   -1    0    0  502  501  0.00000000000E+00  0.00000000000E+00  5.19519033224E+02  5.19519033224E+02  0.00000000000E+00  0.00000000000E+00  1.
       21   -1    0    0  503  502  0.00000000000E+00  0.00000000000E+00 -6.50756199794E+02  6.50756199794E+02  0.00000000000E+00  0.00000000000E+00  1.
       25    2    1    2    0    0 -4.48144323662E+00 -2.06431692393E+01 -6.44362767523E+02  6.56715006635E+02  1.25000000000E+02  0.00000000000E+00  1.
       21    1    1    2  503  501  4.48144323662E+00  2.06431692393E+01  5.13125600953E+02  5.13560226383E+02  0.00000000000E+00  0.00000000000E+00  1.
       22    1    3    3    0    0 -6.34627149606E+01 -1.75345505095E+00 -3.73932990375E+02  3.79284157441E+02  5.96046447754E-06  0.00000000000E+00  1.
       22    1    3    3    0    0  5.89812717240E+01 -1.88897141884E+01 -2.70429777148E+02  2.77430849194E+02  2.98023223877E-06  0.00000000000E+00  1.
</event>
<event>
 6  62   1.0000000E+00   1.2500000E+02   7.8125000E-03   1.2380861E-01
       21   -1    0    0  501  502  0.00000000000E+00  0.00000000000E+00  8.76992842345E+01  8.76992842345E+01  0.00000000000E+00  0.00000000000E+00  1.
       21   -1    0    0  502  503  0.00000000000E+00  0.00000000000E+00 -2.62154378577E+02  2.62154378577E+02  0.00000000000E+00  0.00000000000E+00  1.
       25    2    1    2    0    0 -4.35004276104E+01 -4.57867247598E+01 -2.27650457618E+02  2.67279707835E+02  1.25000000000E+02  0.00000000000E+00  1.
       21    1    1    2  501  503  4.35004276104E+01  4.57867247598E+01  5.31953632755E+01  8.25739549769E+01  0.00000000000E+00  0.00000000000E+00  1.
       22    1    3    3    0    0 -6.03961994084E+01  1.33681197339E+01 -5.08314700287E+01  8.00640111004E+01  7.45058059692E-07  0.00000000000E+00  1.
       22    1    3    3    0    0  1.68957717980E+01 -5.91548444937E+01 -1.76818987589E+02  1.87215696735E+02  2.10734242554E-06  0.00000000000E+00  1.
</event>
<event>
 6  62   1.0000000E+00   1.2500000E+02   7.8125000E-03   1.2380861E-01
       21   -1    0    0  501  502  0.00000000000E+00  0.00000000000E+00  1.61131754351E+02  1.61131754351E+02  0.00000000000E+00  0.00000000000E+00  1.
       21   -1    0    0  502  503  0.00000000000E+00  0.00000000000E+00 -7.31690188633E+02  7.31690188633E+02  0.00000000000E+00  0.00000000000E+00  1.
       25    2    1    2    0    0 -2.97463160922E+02  3.32724775169E+01 -1.08021112437E+02  3.41884411166E+02  1.25000000000E+02  0.00000000000E+00  1.
       21    1    1    2  501  503  2.97463160922E+02 -3.32724775169E+01 -4.62537321846E+02  5.50937531819E+02  0.00000000000E+00  0.00000000000E+00  1.
       22    1    3    3    0    0 -8.99067477044E+01 -3.28574181359E+01  6.19075343406E+00  9.59226700912E+01  2.45346499091E-06  0.00000000000E+00  1.
       22    1    3    3    0    0 -2.07556413218E+02  6.61298956528E+01 -1.14211865871E+02  2.45961741075E+02  6.32202727663E-06  0.00000000000E+00  1.
</event>
<event>
 6  62   1.0000000E+00   1.2500000E+02   7.8125000E-03   1.2380861E-01
       21   -1    0    0  501  502  0.00000000000E+00  0.00000000000E+00  1.58402300661E+01  1.58402300661E+01  0.00000000000E+00  0.00000000000E+00  1.
       21   -1    0    0  502  503  0.00000000000E+00  0.00000000000E+00 -8.95251695796E+02  8.95251695796E+02  0.00000000000E+00  0.00000000000E+00  1.
       25    2    1    2    0    0  1.18750296027E+01 -4.24407457204E+01 -2.77066710380E+02  3.07137095164E+02  1.25000000000E+02  0.00000000000E+00  1.
       21    1    1    2  501  503 -1.18750296027E+01  4.24407457204E+01 -6.02344755350E+02  6.03954830698E+02  0.00000000000E+00  0.00000000000E+00  1.
       22    1    3    3    0    0  1.22597651317E+01  3.62332607142E+01 -3.23895427460E+01  5.01221857301E+01  8.33000234328E-07  0.00000000000E+00  1.
       22    1    3    3    0    0 -3.84735529049E-01 -7.86740064346E+01 -2.44677167634E+02  2.57014909434E+02  4.21468485109E-06  0.00000000000E+00  1.
</event>
<event>
 6  62   1.0000000E+00   1.2500000E+02   7.8125000E-03   1.2380861E-01
       21   -1    0    0  501  502  0.00000000000E+00  0.00000000000E+00  2.14203185106E+01  2.14203185106E+01  0.00000000000E+00  0.00000000000E+00  1.
        2   -1    0    0  502    0  0.00000000000E+00  0.00000000000E+00 -4.64916939344E+02  4.64916939344E+02  0.00000000000E+00  0.00000000000E+00  1.
       25    2    1    2    0    0 -3.20563494229E+01 -5.12008722840E+01 -3.21905002847E+02  3.50566640910E+02  1.25000000000E+02  0.00000000000E+00  1.
        2    1    1    2  501    0  3.20563494229E+01  5.12008722840E+01 -1.21591617987E+02  1.35770616945E+02  0.00000000000E+00  0.00000000000E+00  1.
       22    1    3    3    0    0  3.33963259086E+01 -1.22568929268E+00 -2.04185671083E+02  2.06902404949E+02  0.00000000000E+00  0.00000000000E+00  1.
       22    1    3    3    0    0 -6.54526753315E+01 -4.99751829913E+01 -1.17719331764E+02  1.43664235961E+02  1.49011611938E-06  0.00000000000E+00  1.
</event>
<event>
 6  62   1.0000000E+00   1.2500000E+02   7.8125000E-03   1.2380861E-01
       -4   -1    0    0    0  501  0.00000000000E+00  0.00000000000E+00  3.00163183258E+02  3.00163183258E+02  0.00000000000E+00  0.00000000000E+00  1.
       21   -1    0    0  501  502  0.00000000000E+00  0.00000000000E+00 -4.62377831282E+01  4.62377831282E+01  0.00000000000E+00  0.00000000000E+00  1.
       25    2    1    2    0    0 -2.36908297573E+01  2.12119813126E+01  4.73588575337E+01  1.37401109721E+02  1.25000000000E+02  0.00000000000E+00  1.
       -4    1    1    2    0  502  2.36908297573E+01 -2.12119813126E+01  2.06566542596E+02  2.08999856665E+02  0.00000000000E+00  0.00000000000E+00  1.
       22    1    3    3    0    0  1.21019738905E+01 -3.61575012890E+01 -1.90516556942E+01  4.26237991760E+01  4.56253018749E-07  0.00000000000E+00  1.
       22    1    3    3    0    0 -3.57928036478E+01  5.73694826016E+01  6.64105132279E+01  9.47773105450E+01  0.00000000000E+00  0.00000000000E+00  1.
</event>
<event>
 6  62   1.0000000E+00   1.2500000E+02   7.8125000E-03   1.2380861E-01
       21   -1    0    0  501  502  0.00000000000E+00  0.00000000000E+00  8.11040228616E+01  8.11040228616E+01  0.00000000000E+00  0.00000000000E+00  1.
        2   -1    0    0  502    0  0.00000000000E+00  0.00000000000E+00 -8.56306336041E+02  8.56306336041E+02  0.00000000000E+00  0.00000000000E+00  1.
       25    2    1    2    0    0  1.52043755302E+01  7.96965282839E+01  8.74206364775E+00  1.49278710246E+02  1.25000000000E+02  0.00000000000E+00  1.
        2    1    1    2  501    0 -1.52043755302E+01 -7.96965282839E+01 -7.83944376827E+02  7.88131648657E+02  0.00000000000E+00  0.00000000000E+00  1.
       22    1    3    3    0    0 -4.79620796865E+01  1.28644779116E+01  2.54729655592E+01  5.58097469460E+01  1.78658646469E-06  0.00000000000E+00  1.
       22    1    3    3    0    0  6.31664552167E+01  6.68320503723E+01 -1.67309019114E+01  9.34689633000E+01  1.93571762096E-06  0.00000000000E+00  1.
</event>
<event>
 6  62   1.0000000E+00   1.2500000E+02   7.8125000E-03   1.2380861E-01
       21   -1    0    0  501  502  0.00000000000E+00  0.00000000000E+00  7.31650863780E+01  7.31650863780E+01  0.00000000000E+00  0.00000000000E+00  1.
       21   -1    0    0  502  503  0.00000000000E+00  0.00000000000E+00 -1.21389966115E+03  1.21389966115E+03  0.00000000000E+00  0.00000000000E+00  1.
       25    2    1    2    0    0  1.43823503652E+02  5.43219035103E+00 -1.12641080970E+03  1.14242768747E+03  1.25000000000E+02  0.00000000000E+00  1.
       21    1    1    2  501  503 -1.43823503652E+02 -5.43219035103E+00 -1.43237650684E+01  1.44637060052E+02  0.00000000000E+00  0.00000000000E+00  1.
       22    1    3    3    0    0  1.22069706340E+02 -3.48782143601E+01 -5.61990144077E+02  5.76151390767E+02  5.96046447754E-06  0.00000000000E+00  1.
       22    1    3    3    0    0  2.17537973116E+01  4.03104047111E+01 -5.64420665623E+02  5.66276296703E+02  1.19209289551E-05  0.00000000000E+00  1.
</event>
<event>
 6  62   1.0000000E+00   1.2500000E+02   7.8125000E-03   1.2380861E-01
       21   -1    0    0  501  502  0.00000000000E+00  0.00000000000E+00  3.81298700433E+02  3.81298700433E+02  0.00000000000E+00  0.00000000000E+00  1.
       21   -1    0    0  502  503  0.00000000000E+00  0.00000000000E+00 -4.65583041187E+01  4.65583041187E+01  0.00000000000E+00  0.00000000000E+00  1.
       25    2    1    2    0    0  6.95475356602E+01 -6.38417074287E+01  2.73945024743E+02  3.15568534403E+02  1.25000000000E+02  0.00000000000E+00  1.
       21    1    1    2  501  503 -6.95475356602E+01  6.38417074287E+01  6.07953715709E+01  1.12288470148E+02  0.00000000000E+00  0.00000000000E+00  1.
       22    1    3    3    0    0  3.98734746263E+01 -8.72723182099E+01  1.04132629435E+02  1.41597867277E+02  2.58095682795E-06  0.00000000000E+00  1.
       22    1    3    3    0    0  2.96740610339E+01  2.34306107812E+01  1.69812395308E+02  1.73970667126E+02  2.98023223877E-06  0.00000000000E+00  1.
</event>
<event>
 6  62   1.0000000E+00   1.2500000E+02   7.8125000E-03   1.2380861E-01
       21   -1    0    0  501  502  0.00000000000E+00  0.00000000000E+00  2.16119923640E+01  2.16119923640E+01  0.00000000000E+00  0.00000000000E+00  1.
        1   -1    0    0  502    0  0.00000000000E+00  0.00000000000E+00 -3.52167587161E+02  3.52167587161E+02  0.00000000000E+00  0.00000000000E+00  1.
       25    2    1    2    0    0  1.73255824528E+01  2.38645270371E+01 -3.15561823611E+02  3.40696281134E+02  1.25000000000E+02  0.00000000000E+00  1.
        1    1    1    2  501    0 -1.73255824528E+01 -2.38645270371E+01 -1.49937711862E+01  3.30832983908E+01  0.00000000000E+00  0.00000000000E+00  1.
       22    1    3    3    0    0  5.05000680675E+00 -8.91589203205E+00 -3.03499912584E+02  3.03672838163E+02  4.21468485109E-06  0.00000000000E+00  1.
       22    1    3    3    0    0  1.22755756461E+01  3.27804190692E+01 -1.20619110268E+01  3.70234429708E+01  1.03707692825E-06  0.00000000000E+00  1.
</event>
<event>
 6  62   1.0000000E+00   1.2500000E+02   7.8125000E-03   1.2380861E-01
       21   -1    0    0  502  501  0.00000000000E+00  0.00000000000E+00  2.77744519289E+01  2.77744519289E+01  0.00000000000E+00  0.00000000000E+00  1.
       21   -1    0    0  503  502  0.00000000000E+00  0.00000000000E+00 -3.35621363536E+02  3.35621363536E+02  0.00000000000E+00  0.00000000000E+00  1.
       25    2    1    2    0    0 -5.26714691411E+01 -7.31519155731E+00 -2.52001065861E+02  2.86281911556E+02  1.25000000000E+02  0.00000000000E+00  1.
       21    1    1    2  503  501  5.26714691411E+01  7.31519155731E+00 -5.58458457463E+01  7.71139039092E+01  0.00000000000E+00  0.00000000000E+00  1.
       22    1    3    3    0    0 -4.44575723309E+01 -4.01312696980E+01 -4.09873347489E+01  7.25737979917E+01  1.05367121277E-06  0.00000000000E+00  1.
       22    1    3    3    0    0 -8.21389681021E+00  3.28160781407E+01 -2.11013731112E+02  2.13708113564E+02  0.00000000000E+00  0.00000000000E+00  1.
</event>
<event>
 6  62   1.0000000E+00   1.2500000E+02   7.8125000E-03   1.2380861E-01
       21   -1    0    0  501  502  0.00000000000E+00  0.00000000000E+00  7.91719259525E+01  7.91719259525E+01  0.00000000000E+00  0.00000000000E+00  1.
        2   -1    0    0  502    0  0.00000000000E+00  0.00000000000E+00 -9.38615593365E+02  9.38615593365E+02  0.00000000000E+00  0.00000000000E+00  1.
       25    2    1    2    0    0  6.40772532157E+00  2.54043323158E+01  2.73458876676E+01  1.30611012616E+02  1.25000000000E+02  0.00000000000E+00  1.
        2    1    1    2  501    0 -6.40772532157E+00 -2.54043323158E+01 -8.86789555081E+02  8.87176506702E+02  0.00000000000E+00  0.00000000000E+00  1.
       22    1    3    3    0    0 -5.59084822530E+01  3.12185434530E+01  2.23606922256E+01  6.78259271958E+01  9.85619169125E-07  0.00000000000E+00  1.
       22    1    3    3    0    0  6.23162075746E+01 -5.81421113721E+00  4.98519544196E+00  6.27850854202E+01  1.12532134853E-06  0.00000000000E+00  1.
</event>
<event>
 6  62   1.0000000E+00   1.2500000E+02   7.8125000E-03   1.2380861E-01
       21   -1    0    0  502  501  0.00000000000E+00  0.00000000000E+00  2.17880990460E+02  2.17880990460E+02  0.00000000000E+00  0.00000000000E+00  1.
       21   -1    0    0  503  502  0.00000000000E+00  0.00000000000E+00 -1.08650612040E+02  1.08650612040E+02  0.00000000000E+00  0.00000000000E+00  1.
       25    2    1    2    0    0 -5.04044968897E+01  8.13721247055E+01  1.54556599594E+02  2.20623612661E+02  1.25000000000E+02  0.00000000000E+00  1.
       21    1    1    2  503  501  5.04044968897E+01 -8.13721247055E+01 -4.53262211736E+01  1.05907989839E+02  0.00000000000E+00  0.00000000000E+00  1.
       22    1    3    3    0    0  3.96165628542E+01  7.57328211408E+00  3.10059052036E+01  5.08742843867E+01  1.29047841398E-06  0.00000000000E+00  1.
       22    1    3    3    0    0 -9.00210597439E+01  7.37988425914E+01  1.23550694390E+02  1.69749328274E+02  2.58095682795E-06  0.00000000000E+00  1.
</event>
<event>
 6  62   1.0000000E+00   1.2500000E+02   7.8125000E-03   1.2380861E-01
        2   -1    0    0  502    0  0.00000000000E+00  0.00000000000E+00  9.81118542980E+02  9.81118542980E+02  0.00000000000E+00  0.00000000000E+00  1.
       21   -1    0    0  501  502  0.00000000000E+00  0.00000000000E+00 -5.16502453528E+01  5.16502453528E+01  0.00000000000E+00  0.00000000000E+00  1.
       25    2    1    2    0    0 -3.21022572775E+01 -1.67651107857E+01  3.12754573231E+01  1.33846098534E+02  1.25000000000E+02  0.00000000000E+00  1.
        2    1    1    2  501    0  3.21022572775E+01  1.67651107857E+01  8.98192840304E+02  8.98922689799E+02  0.00000000000E+00  0.00000000000E+00  1.
       22    1    3    3    0    0  3.65639934287E+00 -6.59434050408E+01  1.30731092314E+00  6.60576338237E+01  8.06717022279E-07  0.00000000000E+00  1.
       22    1    3    3    0    0 -3.57586566204E+01  4.91782942551E+01  2.99681464000E+01  6.77884647103E+01  7.45058059692E-07  0.00000000000E+00  1.
</event>
<event>
 6  62   1.0000000E+00   1.2500000E+02   7.8125000E-03   1.2380861E-01
       21   -1    0    0  501  502  0.00000000000E+00  0.00000000000E+00  5.65675685571E+01  5.65675685571E+01  0.00000000000E+00  0.00000000000E+00  1.
       21   -1    0    0  502  503  0.00000000000E+00  0.00000000000E+00 -1.25063414996E+02  1.25063414996E+02  0.00000000000E+00  0.00000000000E+00  1.
       25    2    1    2    0    0  1.84254258014E+01  3.22509609267E+01 -5.99246385779E+01  1.43511613138E+02  1.25000000000E+02  0.00000000000E+00  1.
       21    1    1    2  501  503 -1.84254258014E+01 -3.22509609267E+01 -8.57120786065E+00  3.81193704151E+01  0.00000000000E+00  0.00000000000E+00  1.
       22    1    3    3    0    0 -4.88371637050E+01  3.58137133312E+01 -4.23490292343E+01  7.38994648046E+01  1.39387599631E-06  0.00000000000E+00  1.
       22    1    3    3    0    0  6.72625895064E+01 -3.56275240451E+00 -1.75756093436E+01  6.96121483334E+01  1.02021276486E-06  0.00000000000E+00  1.
</event>
<event>
 6  62   1.0000000E+00   1.2500000E+02   7.8125000E-03   1.2380861E-01
       21   -1    0    0  502  501  0.00000000000E+00  0.00000000000E+00  7.29787641917E+01  7.29787641917E+01  0.00000000000E+00  0.00000000000E+00  1.
       21   -1    0    0  503  502  0.00000000000E+00  0.00000000000E+00 -3.45955068525E+02  3.45955068525E+02  0.00000000000E+00  0.00000000000E+00  1.
       25    2    1    2    0    0 -6.75717200932E+01 -1.15393577505E+02 -1.41054394263E+02  2.31090798663E+02  1.25000000000E+02  0.00000000000E+00  1.
       21    1    1    2  503  501  6.75717200932E+01  1.15393577505E+02 -1.31921910070E+02  1.87843034053E+02  0.00000000000E+00  0.00000000000E+00  1.
       22    1    3    3    0    0 -2.92263095286E+01 -4.65439511853E+01  1.43888562391E+01  5.68115810770E+01  6.96937998156E-07  0.00000000000E+00  1.
       22    1    3    3    0    0 -3.83454105646E+01 -6.88496263197E+01 -1.55443250502E+02  1.74279217586E+02  3.65002414999E-06  0.00000000000E+00  1.
</event>
<event>
 6  62   1.0000000E+00   1.2500000E+02   7.8125000E-03   1.2380861E-01
       21   -1    0    0  501  502  0.00000000000E+00  0.00000000000E+00  3.54468942040E+00  3.54468942040E+00  0.00000000000E+00  0.00000000000E+00  1.
        2   -1    0    0  502    0  0.00000000000E+00  0.00000000000E+00 -1.64191545389E+03  1.64191545389E+03  0.00000000000E+00  0.00000000000E+00  1.
       25    2    1    2    0    0 -1.95680788821E+01  4.16703195358E+00 -1.53221229782E+03  1.53743286015E+03  1.25000000000E+02  0.00000000000E+00  1.
        2    1    1    2  501    0  1.95680788821E+01 -4.16703195358E+00 -1.06158466647E+02  1.08027283162E+02  0.00000000000E+00  0.00000000000E+00  1.
       22    1    3    3    0    0 -6.56309501278E+01 -1.84282314189E+01 -1.11425113628E+03  1.11633445527E+03  1.68587394044E-05  0.00000000000E+00  1.
       22    1    3    3    0    0  4.60628712457E+01  2.25952633725E+01 -4.17961161539E+02  4.21098404877E+02  0.00000000000E+00  0.00000000000E+00  1.
</event>
<event>
 6  62   1.0000000E+00   1.2500000E+02   7.8125000E-03   1.2380861E-01
       21   -1    0    0  502  501  0.00000000000E+00  0.00000000000E+00  4.68191100767E+02  4.68191100767E+02  0.00000000000E+00  0.00000000000E+00  1.
       21   -1    0    0  503  502  0.00000000000E+00  0.00000000000E+00 -1.59129038291E+01  1.59129038291E+01  0.00000000000E+00  0.00000000000E+00  1.
       25    2    1    2    0    0 -1.91984847263E+01  2.32453078661E+00  4.46276727837E+02  4.63855476488E+02  1.25000000000E+02  0.00000000000E+00  1.
       21    1    1    2  503  501  1.91984847263E+01 -2.32453078661E+00  6.00146910076E+00  2.02485281078E+01  0.00000000000E+00  0.00000000000E+00  1.
       22    1    3    3    0    0 -6.46711520945E+01 -2.69830745358E+00  3.64042199116E+02  3.69751756607E+02  0.00000000000E+00  0.00000000000E+00  1.
       22    1    3    3    0    0  4.54726673682E+01  5.02283824019E+00  8.22345287205E+01  9.41037198811E+01  1.49011611938E-06  0.00000000000E+00  1.
</event>
<event>
 6  62   1.0000000E+00   1.2500000E+02   7.8125000E-03   1.2380861E-01
       21   -1    0    0  502  501  0.00000000000E+00  0.00000000000E+00  1.03218895875E+03  1.03218895875E+03  0.00000000000E+00  0.00000000000E+00  1.
       21   -1    0    0  503  502  0.00000000000E+00  0.00000000000E+00 -5.37860752187E+00  5.37860752187E+00  0.00000000000E+00  0.00000000000E+00  1.
       25    2    1    2    0    0 -1.17775002661E+01 -1.79369323531E+01  8.38284609380E+02  8.47824586444E+02  1.25000000000E+02  0.00000000000E+00  1.
       21    1    1    2  503  501  1.17775002661E+01  1.79369323531E+01  1.88525741849E+02  1.89742979829E+02  0.00000000000E+00  0.00000000000E+00  1.
       22    1    3    3    0    0 -6.71532328528E+01 -1.03423609908E+01  5.49109949089E+02  5.53297620908E+02  8.42936970218E-06  0.00000000000E+00  1.
       22    1    3    3    0    0  5.53757325867E+01 -7.59457136227E+00  2.89174660291E+02  2.94526965536E+02  4.21468485109E-06  0.00000000000E+00  1.
</event>
<event>
 6  62   1.0000000E+00   1.2500000E+02   7.8125000E-03   1.2380861E-01
       21   -1    0    0  502  501  0.00000000000E+00  0.00000000000E+00  1.77832967683E+02  1.77832967683E+02  0.00000000000E+00  0.00000000000E+00  1.
       21   -1    0    0  503  502  0.00000000000E+00  0.00000000000E+00 -3.43625577572E+01  3.43625577572E+01  0.00000000000E+00  0.00000000000E+00  1.
       25    2    1    2    0    0 -1.44777468895E+01 -1.85671437639E+01  9.65221436681E+01  1.59674256538E+02  1.25000000000E+02  0.00000000000E+00  1.
       21    1    1    2  503  501  1.44777468895E+01  1.85671437639E+01  4.69482662576E+01  5.25212689027E+01  0.00000000000E+00  0.00000000000E+00  1.
       22    1    3    3    0    0  1.10507215344E+01  4.33995217272E+01  7.83318422843E+01  9.02303410623E+01  1.82501207499E-06  0.00000000000E+00  1.
       22    1    3    3    0    0 -2.55284684239E+01 -6.19666654911E+01  1.81903013838E+01  6.94439154757E+01  1.26330740436E-06  0.00000000000E+00  1.
</event>
<event>
 6  62   1.0000000E+00   1.2500000E+02   7.8125000E-03   1.2380861E-01
        3   -1    0    0  502    0  0.00000000000E+00  0.00000000000E+00  2.49842650516E+02  2.49842650516E+02  0.00000000000E+00  0.00000000000E+00  1.
       21   -1    0    0  501  502  0.00000000000E+00  0.00000000000E+00 -2.89626961487E+01  2.89626961487E+01  0.00000000000E+00  0.00000000000E+00  1.
       25    2    1    2    0    0 -3.48047177739E+01 -9.85376943662E+00  1.94577118267E+02  2.34080584638E+02  1.25000000000E+02  0.00000000000E+00  1.
        3    1    1    2  501    0  3.48047177739E+01  9.85376943662E+00  2.63028361007E+01  4.47247620270E+01  0.00000000000E+00  0.00000000000E+00  1.
       22    1    3    3    0    0 -9.24619916391E+00 -9.55877837044E+00 -1.66518708244E+01  2.13107307445E+01  6.96937998156E-07  0.00000000000E+00  1.
       22    1    3    3    0    0 -2.55585186100E+01 -2.94991066181E-01  2.11228989091E+02  2.12769853893E+02  2.98023223877E-06  0.00000000000E+00  1.
</event>
<event>
 6  62   1.0000000E+00   1.2500000E+02   7.8125000E-03   1.2380861E-01
        2   -1    0    0  502    0  0.00000000000E+00  0.00000000000E+00  2.92944095787E+02  2.92944095787E+02  0.00000000000E+00  0.00000000000E+00  1.
       21   -1    0    0  501  502  0.00000000000E+00  0.00000000000E+00 -4.91365140040E+02  4.91365140040E+02  0.00000000000E+00  0.00000000000E+00  1.
       25    2    1    2    0    0  3.26685900428E+02  1.65423268985E+02 -1.49802035983E+02  4.14914672486E+02  1.25000000000E+02  0.00000000000E+00  1.
        2    1    1    2  501    0 -3.26685900428E+02 -1.65423268985E+02 -4.86190082710E+01  3.69394563340E+02  0.00000000000E+00  0.00000000000E+00  1.
       22    1    3    3    0    0  2.55338883016E+02  6.77962006786E+01 -8.38181886489E+01  2.77163776051E+02  3.65002414999E-06  0.00000000000E+00  1.
       22    1    3    3    0    0  7.13470174118E+01  9.76270683064E+01 -6.59838473341E+01  1.37750896435E+02  2.10734242554E-06  0.00000000000E+00  1.
</event>
<event>
 6  62   1.0000000E+00   1.2500000E+02   7.8125000E-03   1.2380861E-01
       21   -1    0    0  501  502  0.00000000000E+00  0.00000000000E+00  5.88186831196E+01  5.88186831196E+01  0.00000000000E+00  0.00000000000E+00  1.
       21   -1    0    0  502  503  0.00000000000E+00  0.00000000000E+00 -1.42978387811E+02  1.42978387811E+02  0.00000000000E+00  0.00000000000E+00  1.
       25    2    1    2    0    0  4.84823738793E+01 -7.68809903057E+00 -6.32040677636E+01  1.48423049509E+02  1.25000000000E+02  0.00000000000E+00  1.
       21    1    1    2  501  503 -4.84823738793E+01  7.68809903057E+00 -2.09556369280E+01  5.33740214218E+01  0.00000000000E+00  0.00000000000E+00  1.
       22    1    3    3    0    0  7.12757045800E+01 -4.34714166416E+01 -1.60918049679E+01  8.50231516431E+01  1.51322007266E-06  0.00000000000E+00  1.
       22    1    3    3    0    0 -2.27933307007E+01  3.57833176110E+01 -4.71122627957E+01  6.33998978659E+01  1.05367121277E-06  0.00000000000E+00  1.
</event>
<event>
 6  62   1.0000000E+00   1.2500000E+02   7.8125000E-03   1.2380861E-01
       21   -1    0    0  502  501  0.00000000000E+00  0.00000000000E+00  9.70480536999E+00  9.70480536999E+00  0.00000000000E+00  0.00000000000E+00  1.
       21   -1    0    0  503  502  0.00000000000E+00  0.00000000000E+00 -5.85691927485E+02  5.85691927485E+02  0.00000000000E+00  0.00000000000E+00  1.
       25    2    1    2    0    0  1.45486775138E+01  1.80690625928E+01 -4.69217897545E+02  4.86136390756E+02  1.25000000000E+02  0.00000000000E+00  1.
       21    1    1    2  503  501 -1.45486775138E+01 -1.80690625928E+01 -1.06769224570E+02  1.09260342099E+02  0.00000000000E+00  0.00000000000E+00  1.
       22    1    3    3    0    0 -7.38690073879E-01  6.82650967708E+01 -3.37812626557E+02  3.44641900763E+02  0.00000000000E+00  0.00000000000E+00  1.
       22    1    3    3    0    0  1.52873675877E+01 -5.01960341780E+01 -1.31405270988E+02  1.41494489993E+02  2.10734242554E-06  0.00000000000E+00  1.
</event>
<event>
 6  62   1.0000000E+00   1.2500000E+02   7.8125000E-03   1.2380861E-01
       21   -1    0    0  502  501  0.00000000000E+00  0.00000000000E+00  2.29980914155E+03  2.29980914155E+03  0.00000000000E+00  0.00000000000E+00  1.
       21   -1    0    0  503  502  0.00000000000E+00  0.00000000000E+00 -1.82157979301E+02  1.82157979301E+02  0.00000000000E+00  0.00000000000E+00  1.
       25    2    1    2    0    0  3.14162038882E+01  1.24713500106E+01  2.29640129473E+03  2.30004922096E+03  1.25000000000E+02  0.00000000000E+00  1.
       21    1    1    2  503  501 -3.14162038882E+01 -1.24713500106E+01 -1.78750132479E+02  1.81917899886E+02  0.00000000000E+00  0.00000000000E+00  1.
       22    1    3    3    0    0  3.43104105303E+01 -4.49659713613E+01  1.68501593143E+03  1.68596495575E+03  3.37174788087E-05  0.00000000000E+00  1.
       22    1    3    3    0    0 -2.89420664208E+00  5.74373213719E+01  6.11385363298E+02  6.14084265206E+02  1.19209289551E-05  0.00000000000E+00  1.
</event>
<event>
 6  62   1.0000000E+00   1.2500000E+02   7.8125000E-03   1.2380861E-01
       21   -1    0    0  502  501  0.00000000000E+00  0.00000000000E+00  1.91782189663E+01  1.91782189663E+01  0.00000000000E+00  0.00000000000E+00  1.
       21   -1    0    0  503  502  0.00000000000E+00  0.00000000000E+00 -5.08786293342E+02  5.08786293342E+02  0.00000000000E+00  0.00000000000E+00  1.
       25    2    1    2    0    0  1.41242617645E+01 -2.33675396854E+01 -2.02323705450E+02  2.39385501792E+02  1.25000000000E+02  0.00000000000E+00  1.
       21    1    1    2  503  501 -1.41242617645E+01  2.33675396854E+01 -2.87284368926E+02  2.88579010516E+02  0.00000000000E+00  0.00000000000E+00  1.
       22    1    3    3    0    0  6.54982761657E+01  9.91967802049E+00 -9.47005976499E+01  1.15570876037E+02  1.05367121277E-06  0.00000000000E+00  1.
       22    1    3    3    0    0 -5.13740144012E+01 -3.32872177059E+01 -1.07623107800E+02  1.23814625755E+02  0.00000000000E+00  0.00000000000E+00  1.
</event>
<event>
 6  62   1.0000000E+00   1.2500000E+02   7.8125000E-03   1.2380861E-01
       21   -1    0    0  501  502  0.00000000000E+00  0.00000000000E+00  6.28759148995E+01  6.28759148995E+01  0.00000000000E+00  0.00000000000E+00  1.
       21   -1    0    0  502  503  0.00000000000E+00  0.00000000000E+00 -1.79013001873E+02  1.79013001873E+02  0.00000000000E+00  0.00000000000E+00  1.
       25    2    1    2    0    0  1.97961346378E+01 -1.07455244030E+01 -3.54162990169E+00  1.27062568775E+02  1.25000000000E+02  0.00000000000E+00  1.
       21    1    1    2  501  503 -1.97961346378E+01  1.07455244030E+01 -1.12595457071E+02  1.14826347997E+02  0.00000000000E+00  0.00000000000E+00  1.
       22    1    3    3    0    0 -4.32461326978E+01 -3.08443081679E+01  2.01040558709E+01  5.67958836725E+01  2.63417803193E-07  0.00000000000E+00  1.
       22    1    3    3    0    0  6.30422673356E+01  2.00987837649E+01 -2.36456857726E+01  7.02666851025E+01  1.55840073998E-06  0.00000000000E+00  1.
</event>
<event>
 6  62   1.0000000E+00   1.2500000E+02   7.8125000E-03   1.2380861E-01
       21   -1    0    0  502  501  0.00000000000E+00  0.00000000000E+00  5.56541346987E+01  5.56541346987E+01  0.00000000000E+00  0.00000000000E+00  1.
       21   -1    0    0  503  502  0.00000000000E+00  0.00000000000E+00 -1.26170347819E+02  1.26170347819E+02  0.00000000000E+00  0.00000000000E+00  1.
       25    2    1    2    0    0 -1.05144881261E+01 -2.62314084925E+01 -8.10853822220E+01  1.51652499030E+02  1.25000000000E+02  0.00000000000E+00  1.
       21    1    1    2  503  501  1.05144881261E+01  2.62314084925E+01  1.05691691018E+01  3.01719834872E+01  0.00000000000E+00  0.00000000000E+00  1.
       22    1    3    3    0    0 -5.13209868387E+01  1.63173348092E+01 -3.16841521059E+00  5.39456945485E+01  6.56896083600E-07  0.00000000000E+00  1.
       22    1    3    3    0    0  4.08064987126E+01 -4.25487433017E+01 -7.79169670114E+01  9.77068044815E+01  1.82501207499E-06  0.00000000000E+00  1.
</event>
<event>
 6  62   1.0000000E+00   1.2500000E+02   7.8125000E-03   1.2380861E-01
       21   -1    0    0  501  502  0.00000000000E+00  0.00000000000E+00  4.00475767185E+02  4.00475767185E+02  0.00000000000E+00  0.00000000000E+00  1.
       21   -1    0    0  502  503  0.00000000000E+00  0.00000000000E+00 -9.96666727136E+01  9.96666727136E+01  0.00000000000E+00  0.00000000000E+00  1.
       25    2    1    2    0    0  4.33627612487E+01 -1.43025061818E+02  2.91213218823E+02  3.50380701792E+02  1.25000000000E+02  0.00000000000E+00  1.
       21    1    1    2  501  503 -4.33627612487E+01  1.43025061818E+02  9.59587564870E+00  1.49761738107E+02  0.00000000000E+00  0.00000000000E+00  1.
       22    1    3    3    0    0  3.35818985902E+01 -1.12841242124E+01  1.61139217612E+02  1.64987644461E+02  2.10734242554E-06  0.00000000000E+00  1.
       22    1    3    3    0    0  9.78086265847E+00 -1.31740937606E+02  1.30074001211E+02  1.85393057331E+02  2.10734242554E-06  0.00000000000E+00  1.
</event>
<event>
 6  62   1.0000000E+00   1.2500000E+02   7.8125000E-03   1.2380861E-01
       21   -1    0    0  501  502  0.00000000000E+00  0.00000000000E+00  4.52139962031E+02  4.52139962031E+02  0.00000000000E+00  0.00000000000E+00  1.
       21   -1    0    0  502  503  0.00000000000E+00  0.00000000000E+00 -1.55277434302E+01  1.55277434302E+01  0.00000000000E+00  0.00000000000E+00  1.
       25    2    1    2    0    0  1.14505066246E+01 -3.43975012464E+01  3.62664621707E+02  3.85311471451E+02  1.25000000000E+02  0.00000000000E+00  1.
       21    1    1    2  501  503 -1.14505066246E+01  3.43975012464E+01  7.39475968937E+01  8.23562340100E+01  0.00000000000E+00  0.00000000000E+00  1.
       22    1    3    3    0    0 -1.24595073255E+01  2.60405124829E+01  1.68159548919E+01  3.34084413299E+01  1.14821158405E-06  0.00000000000E+00  1.
       22    1    3    3    0    0  2.39100139501E+01 -6.04380137293E+01  3.45848666815E+02  3.51903030121E+02  9.42432183077E-06  0.00000000000E+00  1.
</event>
<event>
 6  62   1.0000000E+00   1.2500000E+02   7.8125000E-03   1.2380861E-01
       21   -1    0    0  502  501  0.00000000000E+00  0.00000000000E+00  9.61770665612E+01  9.61770665612E+01  0.00000000000E+00  0.00000000000E+00  1.
       21   -1    0    0  503  502  0.00000000000E+00  0.00000000000E+00 -1.86700935216E+02  1.86700935216E+02  0.00000000000E+00  0.00000000000E+00  1.
       25    2    1    2    0    0 -1.80747489882E+01  2.45226827661E+00  5.38743518365E+01  1.37332283009E+02  1.25000000000E+02  0.00000000000E+00  1.
       21    1    1    2  503  501  1.80747489882E+01 -2.45226827661E+00 -1.44398220491E+02  1.45545718768E+02  0.00000000000E+00  0.00000000000E+00  1.
       22    1    3    3    0    0 -7.07876323580E+01 -6.47683882356E+00  4.20053625411E+01  8.25668748241E+01  7.45058059692E-07  0.00000000000E+00  1.
       22    1    3    3    0    0  5.27128833698E+01  8.92910710017E+00  1.18689892954E+01  5.47654081849E+01  8.73658016291E-07  0.00000000000E+00  1.
</event>
<event>
 6  62   1.0000000E+00   1.2500000E+02   7.8125000E-03   1.2380861E-01
       21   -1    0    0  501  502  0.00000000000E+00  0.00000000000E+00  3.33224956319E+01  3.33224956319E+01  0.00000000000E+00  0.00000000000E+00  1.
       21   -1    0    0  502  503  0.00000000000E+00  0.00000000000E+00 -2.78804573815E+02  2.78804573815E+02  0.00000000000E+00  0.00000000000E+00  1.
       25    2    1    2    0    0  2.24904642830E+01  6.98540959655E+00 -2.56363032178E+02  2.86184592874E+02  1.25000000000E+02  0.00000000000E+00  1.
       21    1    1    2  501  503 -2.24904642830E+01 -6.98540959655E+00  1.08809539950E+01  2.59424765729E+01  0.00000000000E+00  0.00000000000E+00  1.
       22    1    3    3    0    0  3.21822106576E+01  4.76714493891E+01 -5.18487107074E+01  7.74373977590E+01  1.05367121277E-06  0.00000000000E+00  1.
       22    1    3    3    0    0 -9.69174637457E+00 -4.06860397926E+01 -2.04514321471E+02  2.08747195115E+02  2.98023223877E-06  0.00000000000E+00  1.
</event>
<event>
 6  62   1.0000000E+00   1.2500000E+02   7.8125000E-03   1.2380861E-01
        1   -1    0    0  502    0  0.00000000000E+00  0.00000000000E+00  4.47654341111E+02  4.47654341111E+02  0.00000000000E+00  0.00000000000E+00  1.
       21   -1    0    0  501  502  0.00000000000E+00  0.00000000000E+00 -5.60367553445E+01  5.60367553445E+01  0.00000000000E+00  0.00000000000E+00  1.
       25    2    1    2    0    0 -3.22125679694E+00 -2.94411795090E+01  1.89528501325E+01  1.29851338362E+02  1.25000000000E+02  0.00000000000E+00  1.
        1    1    1    2  501    0  3.22125679694E+00  2.94411795090E+01  3.72664735634E+02  3.73839758093E+02  0.00000000000E+00  0.00000000000E+00  1.
       22    1    3    3    0    0 -3.80902738733E+01 -1.25379025939E+01  6.07904364815E+01  7.28254428947E+01  7.45058059692E-07  0.00000000000E+00  1.
       22    1    3    3    0    0  3.48690170763E+01 -1.69032769151E+01 -4.18375863490E+01  5.70258954673E+01  5.26835606386E-07  0.00000000000E+00  1.
</event>
<event>
 6  62   1.0000000E+00   1.2500000E+02   7.8125000E-03   1.2380861E-01
       21   -1    0    0  501  502  0.00000000000E+00  0.00000000000E+00  6.89392815107E+02  6.89392815107E+02  0.00000000000E+00  0.00000000000E+00  1.
       21   -1    0    0  502  503  0.00000000000E+00  0.00000000000E+00 -1.22210040627E+01  1.22210040627E+01  0.00000000000E+00  0.00000000000E+00  1.
       25    2    1    2    0    0 -4.40863459750E+01 -1.64897568487E+01  5.50713004725E+02  5.66679213978E+02  1.25000000000E+02  0.00000000000E+00  1.
       21    1    1    2  501  503  4.40863459750E+01  1.64897568487E+01  1.26458806320E+02  1.34934605192E+02  0.00000000000E+00  0.00000000000E+00  1.
       22    1    3    3    0    0 -6.49479126942E+01  2.69425790443E+01  4.44774248959E+02  4.50297975196E+02  0.00000000000E+00  0.00000000000E+00  1.
       22    1    3    3    0    0  2.08615667192E+01 -4.34323358930E+01  1.05938755766E+02  1.16381238782E+02  2.10734242554E-06  0.00000000000E+00  1.
</event>
<event>
 6  62   1.0000000E+00   1.2500000E+02   7.8125000E-03   1.2380861E-01
       21   -1    0    0  502  501  0.00000000000E+00  0.00000000000E+00  5.90545540302E+01  5.90545540302E+01  0.00000000000E+00  0.00000000000E+00  1.
       21   -1    0    0  503  502  0.00000000000E+00  0.00000000000E+00 -1.02319780559E+02  1.02319780559E+02  0.00000000000E+00  0.00000000000E+00  1.
       25    2    1    2    0    0  2.63062982665E+01 -7.92853242711E+00 -3.62152506047E+01  1.33009124993E+02  1.25000000000E+02  0.00000000000E+00  1.
       21    1    1    2  503  501 -2.63062982665E+01  7.92853242711E+00 -7.04997592413E+00  2.83652095967E+01  0.00000000000E+00  0.00000000000E+00  1.
       22    1    3    3    0    0 -4.89151965753E+01 -1.47341416683E+01 -2.42092634740E+01  5.65321132159E+01  7.90253409579E-07  0.00000000000E+00  1.
       22    1    3    3    0    0  7.52214948418E+01  6.80560924124E+00 -1.20059871307E+01  7.64770117771E+01  2.94510057212E-07  0.00000000000E+00  1.
</event>
<event>
 6  62   1.0000000E+00   1.2500000E+02   7.8125000E-03   1.2380861E-01
       21   -1    0    0  502  501  0.00000000000E+00  0.00000000000E+00  1.19179849233E+02  1.19179849233E+02  0.00000000000E+00  0.00000000000E+00  1.
       21   -1    0    0  503  502  0.00000000000E+00  0.00000000000E+00 -1.82992204192E+02  1.82992204192E+02  0.00000000000E+00  0.00000000000E+00  1.
       25    2    1    2    0    0 -3.85864024271E+01 -3.15616857613E+01 -1.50674397545E+02  2.02021841730E+02  1.25000000000E+02  0.00000000000E+00  1.
       21    1    1    2  503  501  3.85864024271E+01  3.15616857613E+01  8.68620425859E+01  1.00150211695E+02  0.00000000000E+00  0.00000000000E+00  1.
       22    1    3    3    0    0 -1.58531518151E+01 -4.02294825202E+01  5.83531520057E+00  4.36323800612E+01  6.55243512218E-07  0.00000000000E+00  1.
       22    1    3    3    0    0 -2.27332506120E+01  8.66779675886E+00 -1.56509712746E+02  1.58389461669E+02  2.10734242554E-06  0.00000000000E+00  1.
</event>
<event>
 6  62   1.0000000E+00   1.2500000E+02   7.8125000E-03   1.2380861E-01
       21   -1    0    0  501  502  0.00000000000E+00  0.00000000000E+00  1.80134113874E+01  1.80134113874E+01  0.00000000000E+00  0.00000000000E+00  1.
       21   -1    0    0  502  503  0.00000000000E+00  0.00000000000E+00 -4.20361398741E+02  4.20361398741E+02  0.00000000000E+00  0.00000000000E+00  1.
       25    2    1    2    0    0 -1.29787688085E+01 -2.70170552295E+01 -2.30385236376E+02  2.63819496727E+02  1.25000000000E+02  0.00000000000E+00  1.
       21    1    1    2  501  503  1.29787688085E+01  2.70170552295E+01 -1.71962750977E+02  1.74555313402E+02  0.00000000000E+00  0.00000000000E+00  1.
       22    1    3    3    0    0 -2.54976497508E+01  2.11968388411E+01 -5.65708588748E+00  3.36368657935E+01  1.18903306637E-06  0.00000000000E+00  1.
       22    1    3    3    0    0  1.25188809423E+01 -4.82138940706E+01 -2.24728150489E+02  2.30182630934E+02  0.00000000000E+00  0.00000000000E+00  1.
</event>
<event>
 6  62   1.0000000E+00   1.2500000E+02   7.8125000E-03   1.2380861E-01
       21   -1    0    0  502  501  0.00000000000E+00  0.00000000000E+00  2.59456377841E+01  2.59456377841E+01  0.00000000000E+00  0.00000000000E+00  1.
       21   -1    0    0  503  502  0.00000000000E+00  0.00000000000E+00 -2.90011827016E+02  2.90011827016E+02  0.00000000000E+00  0.00000000000E+00  1.
       25    2    1    2    0    0 -2.44128354971E+01  8.29992433582E-03 -1.38979359976E+02  1.88510607408E+02  1.25000000000E+02  0.00000000000E+00  1.
       21    1    1    2  503  501  2.44128354971E+01 -8.29992433582E-03 -1.25086829256E+02  1.27446857392E+02  0.00000000000E+00  0.00000000000E+00  1.
       22    1    3    3    0    0  4.48302090682E+01 -1.13140817453E+01 -1.99825002602E+01  5.03692009812E+01  9.12506037497E-07  0.00000000000E+00  1.
       22    1    3    3    0    0 -6.92430445653E+01  1.13223816697E+01 -1.18996859716E+02  1.38141406427E+02  2.58095682795E-06  0.00000000000E+00  1.
</event>
<event>
 6  62   1.0000000E+00   1.2500000E+02   7.8125000E-03   1.2380861E-01
       21   -1    0    0  501  502  0.00000000000E+00  0.00000000000E+00  5.78784862030E+02  5.78784862030E+02  0.00000000000E+00  0.00000000000E+00  1.
       21   -1    0    0  502  503  0.00000000000E+00  0.00000000000E+00 -1.50579386597E+01  1.50579386597E+01  0.00000000000E+00  0.00000000000E+00  1.
       25    2    1    2    0    0  2.09854641921E+01  1.35654836348E+01  2.64923908145E+02  2.93996750255E+02  1.25000000000E+02  0.00000000000E+00  1.
       21    1    1    2  501  503 -2.09854641921E+01 -1.35654836348E+01  2.98803015225E+02  2.99846050434E+02  0.00000000000E+00  0.00000000000E+00  1.
       22    1    3    3    0    0 -2.28727292578E+01 -2.89661901674E+01  2.08444877141E+01  4.23874342769E+01  2.63417803193E-07  0.00000000000E+00  1.
       22    1    3    3    0    0  4.38581934499E+01  4.25316738022E+01  2.44079420431E+02  2.51609315978E+02  2.98023223877E-06  0.00000000000E+00  1.
</event>
<event>
 6  62   1.0000000E+00   1.2500000E+02   7.8125000E-03   1.2380861E-01
       21   -1    0    0  502  501  0.00000000000E+00  0.00000000000E+00  5.98812572285E+01  5.98812572285E+01  0.00000000000E+00  0.00000000000E+00  1.
       21   -1    0    0  503  502  0.00000000000E+00  0.00000000000E+00 -1.86256890451E+02  1.86256890451E+02  0.00000000000E+00  0.00000000000E+00  1.
       25    2    1    2    0    0  1.27742493375E+01  2.86214082075E+01 -1.41806222052E+01  1.29647431521E+02  1.25000000000E+02  0.00000000000E+00  1.
       21    1    1    2  503  501 -1.27742493375E+01 -2.86214082075E+01 -1.12195011017E+02  1.16490716158E+02  0.00000000000E+00  0.00000000000E+00  1.
       22    1    3    3    0    0  2.21335122053E+01 -2.90042887184E+01  3.70334050929E+01  5.19866734787E+01  5.26835606386E-07  0.00000000000E+00  1.
       22    1    3    3    0    0 -9.35926286783E+00  5.76256969259E+01 -5.12140272981E+01  7.76607580423E+01  1.05367121277E-06  0.00000000000E+00  1.
</event>
<event>
 6  62   1.0000000E+00   1.2500000E+02   7.8125000E-03   1.2380861E-01
       21   -1    0    0  501  502  0.00000000000E+00  0.00000000000E+00  2.93195984882E+01  2.93195984882E+01  0.00000000000E+00  0.00000000000E+00  1.
       21   -1    0    0  502  503  0.00000000000E+00  0.00000000000E+00 -4.44030281742E+02  4.44030281742E+02  0.00000000000E+00  0.00000000000E+00  1.
       25    2    1    2    0    0  7.19032435836E+01  3.02744034185E+00 -3.41400059426E+02  3.70618729167E+02  1.25000000000E+02  0.00000000000E+00  1.
       21    1    1    2  501  503 -7.19032435836E+01 -3.02744034185E+00 -7.33106238279E+01  1.02731151064E+02  0.00000000000E+00  0.00000000000E+00  1.
       22    1    3    3    0    0  7.73267225324E+01 -2.23740622113E+01 -1.02599080996E+02  1.30409325198E+02  1.49011611938E-06  0.00000000000E+00  1.
       22    1    3    3    0    0 -5.42347894877E+00  2.54015025532E+01 -2.38800978430E+02  2.40209403969E+02  5.16191365590E-06  0.00000000000E+00  1.
</event>
<event>
 6  62   1.0000000E+00   1.2500000E+02   7.8125000E-03   1.2380861E-01
        2   -1    0    0  502    0  0.00000000000E+00  0.00000000000E+00  8.49355886479E+02  8.49355886479E+02  0.00000000000E+00  0.00000000000E+00  1.
       21   -1    0    0  501  502  0.00000000000E+00  0.00000000000E+00 -4.33474183742E+01  4.33474183742E+01  0.00000000000E+00  0.00000000000E+00  1.
       25    2    1    2    0    0 -3.83309034430E+01 -2.63388743156E+01  6.17151358306E+01  1.46958335761E+02  1.25000000000E+02  0.00000000000E+00  1.
        2    1    1    2  501    0  3.83309034430E+01  2.63388743156E+01  7.44293332274E+02  7.45744969093E+02  0.00000000000E+00  0.00000000000E+00  1.
       22    1    3    3    0    0  3.13594701999E+01 -1.59211048406E+01 -1.88686917175E+01  3.99114705027E+01  9.85619169125E-07  0.00000000000E+00  1.
       22    1    3    3    0    0 -6.96903736429E+01 -1.04177694750E+01  8.05838275481E+01  1.07046865258E+02  0.00000000000E+00  0.00000000000E+00  1.
</event>
<event>
 6  62   1.0000000E+00   1.2500000E+02   7.8125000E-03   1.2380861E-01
        3   -1    0    0  502    0  0.00000000000E+00  0.00000000000E+00  2.19645983024E+02  2.19645983024E+02  0.00000000000E+00  0.00000000000E+00  1.
       21   -1    0    0  501  502  0.00000000000E+00  0.00000000000E+00 -2.59335822493E+02  2.59335822493E+02  0.00000000000E+00  0.00000000000E+00  1.
       25    2    1    2    0    0 -1.11360183923E+01 -6.49809054446E+01 -2.34237563919E+02  2.73566747484E+02  1.25000000000E+02  0.00000000000E+00  1.
        3    1    1    2  501    0  1.11360183923E+01  6.49809054446E+01  1.94547724451E+02  2.05415058034E+02  0.00000000000E+00  0.00000000000E+00  1.
       22    1    3    3    0    0  5.46912214620E+01 -2.55574418656E+01 -7.09995877499E+01  9.31947101523E+01  1.05367121277E-06  0.00000000000E+00  1.
       22    1    3    3    0    0 -6.58272398543E+01 -3.94234635790E+01 -1.63237976169E+02  1.80372037332E+02  3.65002414999E-06  0.00000000000E+00  1.
</event>
<event>
 6  62   1.0000000E+00   1.2500000E+02   7.8125000E-03   1.2380861E-01
        2   -1    0    0  502    0  0.00000000000E+00  0.00000000000E+00  3.54249103981E+01  3.54249103981E+01  0.00000000000E+00  0.00000000000E+00  1.
       21   -1    0    0  501  502  0.00000000000E+00  0.00000000000E+00 -5.13390308999E+02  5.13390308999E+02  0.00000000000E+00  0.00000000000E+00  1.
       25    2    1    2    0    0  2.83776361398E+01 -2.37618990056E+00 -4.97844111452E+02  5.14086272739E+02  1.25000000000E+02  0.00000000000E+00  1.
        2    1    1    2  501    0 -2.83776361398E+01  2.37618990056E+00  1.98787128514E+01  3.47289466577E+01  0.00000000000E+00  0.00000000000E+00  1.
       22    1    3    3    0    0 -3.51763046017E+01 -1.81948102952E+01 -3.51889021195E+02  3.54110585503E+02  5.96046447754E-06  0.00000000000E+00  1.
       22    1    3    3    0    0  6.35539407415E+01  1.58186203946E+01 -1.45955090257E+02  1.59975687236E+02  2.10734242554E-06  0.00000000000E+00  1.
</event>
<event>
 6  62   1.0000000E+00   1.2500000E+02   7.8125000E-03   1.2380861E-01
       21   -1    0    0  502  501  0.00000000000E+00  0.00000000000E+00  1.21089483410E+01  1.21089483410E+01  0.00000000000E+00  0.00000000000E+00  1.
       21   -1    0    0  503  502  0.00000000000E+00  0.00000000000E+00 -4.60153141931E+02  4.60153141931E+02  0.00000000000E+00  0.00000000000E+00  1.
       25    2    1    2    0    0  2.19767093810E+01  2.56224438513E+00 -3.71894201882E+02  3.92962896779E+02  1.25000000000E+02  0.00000000000E+00  1.
       21    1    1    2  503  501 -2.19767093810E+01 -2.56224438513E+00 -7.61499917083E+01  7.92991934932E+01  0.00000000000E+00  0.00000000000E+00  1.
       22    1    3    3    0    0  4.99419170445E+01  4.36892207550E+01 -1.29399759973E+02  1.45420909670E+02  2.10734242554E-06  0.00000000000E+00  1.
       22    1    3    3    0    0 -2.79652076635E+01 -4.11269763699E+01 -2.42494441909E+02  2.47541987109E+02  2.98023223877E-06  0.00000000000E+00  1.
</event>
<event>
 6  62   1.0000000E+00   1.2500000E+02   7.8125000E-03   1.2380861E-01
       21   -1    0    0  501  502  0.00000000000E+00  0.00000000000E+00  4.03265968683E+02  4.03265968683E+02  0.00000000000E+00  0.00000000000E+00  1.
       21   -1    0    0  502  503  0.00000000000E+00  0.00000000000E+00 -4.59480895357E+02  4.59480895357E+02  0.00000000000E+00  0.00000000000E+00  1.
       25    2    1    2    0    0  5.87146557811E+00 -1.83467042835E+01  3.93137957207E+02  4.12981269627E+02  1.25000000000E+02  0.00000000000E+00  1.
       21    1    1    2  501  503 -5.87146557811E+00  1.83467042835E+01 -4.49352883880E+02  4.49765594413E+02  0.00000000000E+00  0.00000000000E+00  1.
       22    1    3    3    0    0  3.47401316464E+01  3.30858053715E+01  7.23119333088E+01  8.67788163249E+01  2.78775199262E-06  0.00000000000E+00  1.
       22    1    3    3    0    0 -2.88686660683E+01 -5.14325096550E+01  3.20826023898E+02  3.26202453302E+02  4.21468485109E-06  0.00000000000E+00  1.
</event>
<event>
 6  62   1.0000000E+00   1.2500000E+02   7.8125000E-03   1.2380861E-01
       21   -1    0    0  501  502  0.00000000000E+00  0.00000000000E+00  3.75481421215E+01  3.75481421215E+01  0.00000000000E+00  0.00000000000E+00  1.
       21   -1    0    0  502  503  0.00000000000E+00  0.00000000000E+00 -6.81746136395E+02  6.81746136395E+02  0.00000000000E+00  0.00000000000E+00  1.
       25    2    1    2    0    0 -1.95000738404E+00 -1.65950144749E+01 -6.73693010385E+02  6.85395119093E+02  1.25000000000E+02  0.00000000000E+00  1.
       21    1    1    2  501  503  1.95000738404E+00  1.65950144749E+01  2.94950161116E+01  3.38991594239E+01  0.00000000000E+00  0.00000000000E+00  1.
       22    1    3    3    0    0  1.08551390002E+01 -6.30606873087E+01 -2.19057014789E+02  2.28211437169E+02  2.98023223877E-06  0.00000000000E+00  1.
       22    1    3    3    0    0 -1.28051463842E+01  4.64656728338E+01 -4.54635995596E+02  4.57183681924E+02  1.03238273118E-05  0.00000000000E+00  1.
</event>
<event>
 6  62   1.0000000E+00   1.2500000E+02   7.8125000E-03   1.2380861E-01
       21   -1    0    0  501  502  0.00000000000E+00  0.00000000000E+00  1.74663923585E+03  1.74663923585E+03  0.00000000000E+00  0.00000000000E+00  1.
       21   -1    0    0  502  503  0.00000000000E+00  0.00000000000E+00 -3.62824048864E+01  3.62824048864E+01  0.00000000000E+00  0.00000000000E+00  1.
       25    2    1    2    0    0 -3.90025484422E+00  1.01830810680E+02  1.53222870544E+02  2.22456679039E+02  1.25000000000E+02  0.00000000000E+00  1.
       21    1    1    2  501  503  3.90025484422E+00 -1.01830810680E+02  1.55713396042E+03  1.56046496169E+03  0.00000000000E+00  0.00000000000E+00  1.
       22    1    3    3    0    0  2.70600805762E+01  1.76322242955E-01  1.00023085417E+02  1.03618997615E+02  2.10734242554E-06  0.00000000000E+00  1.
       22    1    3    3    0    0 -3.09603354204E+01  1.01654488437E+02  5.31997851268E+01  1.18837681424E+02  2.35608045769E-06  0.00000000000E+00  1.
</event>
<event>
 6  62   1.0000000E+00   1.2500000E+02   7.8125000E-03   1.2380861E-01
       21   -1    0    0  501  502  0.00000000000E+00  0.00000000000E+00  2.84110334253E+02  2.84110334253E+02  0.00000000000E+00  0.00000000000E+00  1.
       21   -1    0    0  502  503  0.00000000000E+00  0.00000000000E+00 -1.23421984853E+02  1.23421984853E+02  0.00000000000E+00  0.00000000000E+00  1.
       25    2    1    2    0    0  1.86561792911E+01  9.11817074871E+00  2.68945841793E+02  2.97301294785E+02  1.25000000000E+02  0.00000000000E+00  1.
       21    1    1    2  501  503 -1.86561792911E+01 -9.11817074871E+00 -1.08257492393E+02  1.10231024321E+02  0.00000000000E+00  0.00000000000E+00  1.
       22    1    3    3    0    0  2.39404640619E+01  5.05286499469E+01  2.40183811773E+02  2.46606069923E+02  2.98023223877E-06  0.00000000000E+00  1.
       22    1    3    3    0    0 -5.28428477076E+00 -4.14104791982E+01  2.87620300202E+01  5.06952248624E+01  3.72529029846E-07  0.00000000000E+00  1.
</event>
<event>
 6  62   1.0000000E+00   1.2500000E+02   7.8125000E-03   1.2380861E-01
       21   -1    0    0  501  502  0.00000000000E+00  0.00000000000E+00  3.00137539658E+01  3.00137539658E+01  0.00000000000E+00  0.00000000000E+00  1.
       21   -1    0    0  502  503  0.00000000000E+00  0.00000000000E+00 -2.28567355576E+02  2.28567355576E+02  0.00000000000E+00  0.00000000000E+00  1.
       25    2    1    2    0    0 -1.34301413510E+01 -2.21034440311E+01 -1.94137559821E+02  2.32343114958E+02  1.25000000000E+02  0.00000000000E+00  1.
       21    1    1    2  501  503  1.34301413510E+01  2.21034440311E+01 -4.41604178925E+00  2.62379945848E+01  0.00000000000E+00  0.00000000000E+00  1.
       22    1    3    3    0    0 -3.65983742176E+01  3.17739213486E+01 -1.53558387182E+02  1.61025468008E+02  2.98023223877E-06  0.00000000000E+00  1.
       22    1    3    3    0    0  2.31682328666E+01 -5.38773653797E+01 -4.05791726388E+01  7.13176469499E+01  5.26835606386E-07  0.00000000000E+00  1.
</event>
<event>
 6  62   1.0000000E+00   1.2500000E+02   7.8125000E-03   1.2380861E-01
       21   -1    0    0  502  501  0.00000000000E+00  0.00000000000E+00  2.06850150933E+01  2.06850150933E+01  0.00000000000E+00  0.00000000000E+00  1.
       21   -1    0    0  503  502  0.00000000000E+00  0.00000000000E+00 -3.28737687707E+02  3.28737687707E+02  0.00000000000E+00  0.00000000000E+00  1.
       25    2    1    2    0    0  1.99961132491E+00  2.58650930564E+01 -1.92441440885E+02  2.30936592281E+02  1.25000000000E+02  0.00000000000E+00  1.
       21    1    1    2  503  501 -1.99961132491E+00 -2.58650930564E+01 -1.15611231729E+02  1.18486110520E+02  0.00000000000E+00  0.00000000000E+00  1.
       22    1    3    3    0    0 -2.93451511114E+01 -6.76794277171E+00  3.05683856220E+00  3.02702362909E+01  8.58005405063E-07  0.00000000000E+00  1.
       22    1    3    3    0    0  3.13447624363E+01  3.26330358281E+01 -1.95498279447E+02  2.00666355990E+02  2.10734242554E-06  0.00000000000E+00  1.
</event>
<event>
 6  62   1.0000000E+00   1.2500000E+02   7.8125000E-03   1.2380861E-01
       21   -1    0    0  501  502  0.00000000000E+00  0.00000000000E+00  1.94807595161E+01  1.94807595161E+01  0.00000000000E+00  0.00000000000E+00  1.
        2   -1    0    0  502    0  0.00000000000E+00  0.00000000000E+00 -4.46007489238E+02  4.46007489238E+02  0.00000000000E+00  0.00000000000E+00  1.
       25    2    1    2    0    0 -2.34619705006E+01 -3.77202434387E+01 -2.45046150903E+02  2.78650133496E+02  1.25000000000E+02  0.00000000000E+00  1.
        2    1    1    2  501    0  2.34619705006E+01  3.77202434387E+01 -1.81480578819E+02  1.86838115259E+02  0.00000000000E+00  0.00000000000E+00  1.
       22    1    3    3    0    0 -4.27439107582E+01  2.73341709292E+01 -4.64695545204E+01  6.88012958062E+01  9.12506037497E-07  0.00000000000E+00  1.
       22    1    3    3    0    0  1.92819402576E+01 -6.50544143679E+01 -1.98576596383E+02  2.09848837690E+02  2.98023223877E-06  0.00000000000E+00  1.
</event>
<event>
 6  62   1.0000000E+00   1.2500000E+02   7.8125000E-03   1.2380861E-01
       21   -1    0    0  502  501  0.00000000000E+00  0.00000000000E+00  2.23157784607E+01  2.23157784607E+01  0.00000000000E+00  0.00000000000E+00  1.
       21   -1    0    0  503  502  0.00000000000E+00  0.00000000000E+00 -3.75015729334E+02  3.75015729334E+02  0.00000000000E+00  0.00000000000E+00  1.
       25    2    1    2    0    0 -3.68675128450E+01 -4.09404860200E+00 -3.27461327559E+02  3.52465453320E+02  1.25000000000E+02  0.00000000000E+00  1.
       21    1    1    2  503  501  3.68675128450E+01  4.09404860200E+00 -2.52386233143E+01  4.48660544747E+01  0.00000000000E+00  0.00000000000E+00  1.
       22    1    3    3    0    0 -7.89078358519E+01 -2.53696869295E+01 -2.21520512837E+02  2.36519354771E+02  4.21468485109E-06  0.00000000000E+00  1.
       22    1    3    3    0    0  4.20403230069E+01  2.12756383275E+01 -1.05940814722E+02  1.15946098549E+02  1.49011611938E-06  0.00000000000E+00  1.
</event>
<event>
 6  62   1.0000000E+00   1.2500000E+02   7.8125000E-03   1.2380861E-01
       21   -1    0    0  501  502  0.00000000000E+00  0.00000000000E+00  2.89214966785E+01  2.89214966785E+01  0.00000000000E+00  0.00000000000E+00  1.
       21   -1    0    0  502  503  0.00000000000E+00  0.00000000000E+00 -3.03655772748E+02  3.03655772748E+02  0.00000000000E+00  0.00000000000E+00  1.
       25    2    1    2    0    0  5.65673556891E+00 -1.45114292697E+01 -2.86558158814E+02  3.13022616786E+02  1.25000000000E+02  0.00000000000E+00  1.
       21    1    1    2  501  503 -5.65673556891E+00  1.45114292697E+01  1.18238827443E+01  1.95546526407E+01  0.00000000000E+00  0.00000000000E+00  1.
       22    1    3    3    0    0  3.20415061148E+01  3.94380831964E+01 -5.99314048123E+01  7.85734930055E+01  1.49011611938E-06  0.00000000000E+00  1.
       22    1    3    3    0    0 -2.63847705459E+01 -5.39495124661E+01 -2.26626754002E+02  2.34449123781E+02  0.00000000000E+00  0.00000000000E+00  1.
</event>
<event>
 6  62   1.0000000E+00   1.2500000E+02   7.8125000E-03   1.2380861E-01
       21   -1    0    0  502  501  0.00000000000E+00  0.00000000000E+00  8.74129673335E+00  8.74129673335E+00  0.00000000000E+00  0.00000000000E+00  1.
       21   -1    0    0  503  502  0.00000000000E+00  0.00000000000E+00 -7.12257577265E+02  7.12257577265E+02  0.00000000000E+00  0.00000000000E+00  1.
       25    2    1    2    0    0 -1.76744523151E+01 -7.22234515883E-01 -6.79739813018E+02  6.91363957181E+02  1.25000000000E+02  0.00000000000E+00  1.
       21    1    1    2  503  501  1.76744523151E+01  7.22234515883E-01 -2.37764675134E+01  2.96349168170E+01  0.00000000000E+00  0.00000000000E+00  1.
       22    1    3    3    0    0  4.34398335758E+01  2.23627715458E+01 -4.45938705799E+02  4.48607224666E+02  0.00000000000E+00  0.00000000000E+00  1.
       22    1    3    3    0    0 -6.11142858909E+01 -2.30850060617E+01 -2.33801107219E+02  2.42756732515E+02  5.16191365590E-06  0.00000000000E+00  1.
</event>
</LesHouchesEvents>
