<LesHouchesEvents version="1.0">
<!--
Output from the JHUGenerator v7.4.1 described in arXiv:1001.3396 [hep-ph], arXiv:1208.4018 [hep-ph], arXiv:1309.4819 [hep-ph], arXiv:1606.03107 [hep-ph]
   
   Command line: ./JHUGen Seed=765543533 VegasNc0=100000 ReadLHE=compare_to_reference/HJJ.lhe DataFile=compare_to_reference/HJJ_WW DecayMode1=11 DecayMode2=11 ghg2=0.383432074687728,0.918260989345657 ghg3=6294.49296087723,2253.12941717723 ghg4=0.335495485382528,0.17285803562226 ghz1=0.154934976270359,0.453918144016304 ghz2=0.469297059144414,0.745302300947002 ghz3=3947.40921062637,3597.4885961919 ghz4=0.177791270766536,0.920170534486048 ghzgs2=0.0240331049939919,0.232175381101053 ghzgs3=0.331962910170583,0.0450183240308457 ghzgs4=0.808286540247172,0.133184346613754 ghgsgs2=0.530394804029869,0.211218112389125 ghgsgs3=0.914978695198138,0.055650585081425 ghgsgs4=0.694524307167701,0.511424456076726 ghz1_prime=0.143354267833606,0.0910761280837012 ghz1_prime2=7416.7007267243,4861.35525489789 ghz1_prime3=4431.44656075298,4436.48625894176 ghz1_prime4=2441.69123517064,6946.16318931911 ghz1_prime5=78314042.889773,69465359.939181 ghz1_prime6=51233058.8130761,29537873.5850789 ghz1_prime7=47832192.9001564,59559649.9
   
   Input Parameter:
    Collider: P-P, sqrt(s)=13000.00
    Resonance: spin=0, mass= 125.00 width=   0.00407
               (This is ReadLHEFile mode. Resonance mass/width are read from LHE input parameters.)
    DecayMode1:11  DecayMode2:11
    W boson: mass=80.399, width=2.0850
    Random seed:   765543533
    To reproduce results using this seed, JHUGen should be compiled with the same compiler:
      GNU Fortran (GCC) 6.3.0
    Interference: F
    
    Spin-0-VV couplings: 
      generate_as=F
      kappa_top=  0.10000000E+01  0.00000000E+00i
      kappa_bot=  0.10000000E+01  0.00000000E+00i
      ghg2=  0.38343207E+00  0.91826099E+00i
      ghg3=  0.62944930E+04  0.22531294E+04i
      ghg4=  0.33549549E+00  0.17285804E+00i
      ghz1=  0.15493498E+00  0.45391814E+00i
      ghz2=  0.46929706E+00  0.74530230E+00i
      ghz3=  0.39474092E+04  0.35974886E+04i
      ghz4=  0.17779127E+00  0.92017053E+00i
      ghz1_prime=   0.14335427E+00  0.91076128E-01i,    Lambda_z1=  1.0000E+04
      ghz1_prime2=  0.74167007E+04  0.48613553E+04i,    Lambda_z1=  1.0000E+04
      ghz1_prime3=  0.44314466E+04  0.44364863E+04i,    Lambda_z1=  1.0000E+04
      ghz1_prime4=  0.24416912E+04  0.69461632E+04i,    Lambda_z1=  1.0000E+04
      ghz1_prime5=  0.78314043E+08  0.69465360E+08i,    Lambda_z1=  1.0000E+04
      ghz1_prime6=  0.51233059E+08  0.29537874E+08i,    Lambda_z1=  1.0000E+04
      ghz1_prime7=  0.47832193E+08  0.59559650E+08i,    Lambda_z1=  1.0000E+04
      ghz2_prime=   0.57465793E+00  0.41992191E+00i,    Lambda_z2=  1.0000E+04
      ghz2_prime2=  0.43854587E+04  0.61761246E+04i,    Lambda_z2=  1.0000E+04
      ghz2_prime3=  0.45921696E+04  0.75499391E+04i,    Lambda_z2=  1.0000E+04
      ghz2_prime4=  0.84715906E+04  0.71997238E+04i,    Lambda_z2=  1.0000E+04
      ghz2_prime5=  0.19558280E+08  0.94843889E+08i,    Lambda_z2=  1.0000E+04
      ghz2_prime6=  0.23209661E+08  0.67617823E+08i,    Lambda_z2=  1.0000E+04
      ghz2_prime7=  0.70059904E+07  0.53660191E+08i,    Lambda_z2=  1.0000E+04
      ghz3_prime=   0.40457065E+04  0.19693161E+04i,    Lambda_z3=  1.0000E+04
      ghz3_prime2=  0.33402456E+08  0.37615919E+07i,    Lambda_z3=  1.0000E+04
      ghz3_prime3=  0.44855080E+08  0.12184926E+08i,    Lambda_z3=  1.0000E+04
      ghz3_prime4=  0.27878602E+08  0.78237524E+08i,    Lambda_z3=  1.0000E+04
      ghz3_prime5=  0.93246434E+12  0.63158085E+12i,    Lambda_z3=  1.0000E+04
      ghz3_prime6=  0.35811562E+12  0.41077746E+12i,    Lambda_z3=  1.0000E+04
      ghz3_prime7=  0.62298148E+12  0.61827857E+12i,    Lambda_z3=  1.0000E+04
      ghz4_prime=   0.41653395E+00  0.33115593E+00i,    Lambda_z4=  1.0000E+04
      ghz4_prime2=  0.75883756E+04  0.39234327E+04i,    Lambda_z4=  1.0000E+04
      ghz4_prime3=  0.89560755E+04  0.93020315E+04i,    Lambda_z4=  1.0000E+04
      ghz4_prime4=  0.32034411E+04  0.28637675E+04i,    Lambda_z4=  1.0000E+04
      ghz4_prime5=  0.49012574E+08  0.74595801E+08i,    Lambda_z4=  1.0000E+04
      ghz4_prime6=  0.73323810E+08  0.53968832E+08i,    Lambda_z4=  1.0000E+04
      ghz4_prime7=  0.68563876E+08  0.43025214E+08i,    Lambda_z4=  1.0000E+04
      ghzgs2=  0.24033105E-01  0.23217538E+00i
      ghzgs3=  0.33196291E+00  0.45018324E-01i
      ghzgs4=  0.80828654E+00  0.13318435E+00i
      ghzgs1_prime2=  0.56689643E+04  0.70176759E+04i,  Lambda_zgs1=  1.0000E+04
      ghgsgs2=  0.53039480E+00  0.21121811E+00i
      ghgsgs3=  0.91497870E+00  0.55650585E-01i
      ghgsgs4=  0.69452431E+00  0.51142446E+00i
      Lambda=  1000.0
      Lambda_Q=  10000.0
      Lambda_z11=   1.3888E+02
      Lambda_z21=   1.5452E+02
      Lambda_z31=   1.1998E+02
      Lambda_z41=   1.8136E+02
      Lambda_z12=   1.3667E+02
      Lambda_z22=   1.6659E+02
      Lambda_z32=   1.3884E+02
      Lambda_z42=   4.9064E+01
      Lambda_z10=   9.6973E+00
      Lambda_z20=   1.9326E+02
      Lambda_z30=   8.9204E+01
      Lambda_z40=   1.6167E+02
    
    LHE output: compare_to_reference/HJJ_WW.lhe
    Histogram output: compare_to_reference/HJJ_WW.dat
    Log file: compare_to_reference/HJJ_WW.log
    LHE input: compare_to_reference/HJJ.lhe
    

Output from the JHUGenerator v7.4.1 described in arXiv:1001.3396 [hep-ph], arXiv:1208.4018 [hep-ph], arXiv:1309.4819 [hep-ph], arXiv:1606.03107 [hep-ph]

   Command line: ./JHUGen Seed=765543533 PDFSet=3 Process=61 VegasNc0=5000000 VegasNc2=100 DataFile=compare_to_reference/HJJ ghg2=0.383432074687728,0.9182609893

   Input Parameter:
    Collider: P-P, sqrt(s)=13000.00
    Resonance: spin=0, mass= 125.00 width=   0.00407
    Jet cuts:
            pT >=    15.00 GeV
        DeltaR >=     0.30
           mJJ >=     0.00 GeV
    Random seed:   765543533
    To reproduce results using this seed, JHUGen should be compiled with the same compiler:
      GNU Fortran (GCC) 6.3.0

    WidthScheme:   2
    PDFSet:   3
    Unweighted: T

    Spin-0-VV couplings:
      generate_as=F
      kappa_top=  0.10000000E+01  0.00000000E+00i
      kappa_bot=  0.10000000E+01  0.00000000E+00i
      ghg2=  0.38343207E+00  0.91826099E+00i
      ghg3=  0.62944930E+04  0.22531294E+04i
      ghg4=  0.33549549E+00  0.17285804E+00i
      ghz1=  0.15493498E+00  0.45391814E+00i
      ghz2=  0.46929706E+00  0.74530230E+00i
      ghz3=  0.39474092E+04  0.35974886E+04i
      ghz4=  0.17779127E+00  0.92017053E+00i
      ghz1_prime=   0.14335427E+00  0.91076128E-01i,    Lambda_z1=  1.0000E+04
      ghz1_prime2=  0.74167007E+04  0.48613553E+04i,    Lambda_z1=  1.0000E+04
      ghz1_prime3=  0.44314466E+04  0.44364863E+04i,    Lambda_z1=  1.0000E+04
      ghz1_prime4=  0.24416912E+04  0.69461632E+04i,    Lambda_z1=  1.0000E+04
      ghz1_prime5=  0.78314043E+08  0.69465360E+08i,    Lambda_z1=  1.0000E+04
      ghz1_prime6=  0.51233059E+08  0.29537874E+08i,    Lambda_z1=  1.0000E+04
      ghz1_prime7=  0.47832193E+08  0.59559650E+08i,    Lambda_z1=  1.0000E+04
      ghz2_prime=   0.57465793E+00  0.41992191E+00i,    Lambda_z2=  1.0000E+04
      ghz2_prime2=  0.43854587E+04  0.61761246E+04i,    Lambda_z2=  1.0000E+04
      ghz2_prime3=  0.45921696E+04  0.75499391E+04i,    Lambda_z2=  1.0000E+04
      ghz2_prime4=  0.84715906E+04  0.71997238E+04i,    Lambda_z2=  1.0000E+04
      ghz2_prime5=  0.19558280E+08  0.94843889E+08i,    Lambda_z2=  1.0000E+04
      ghz2_prime6=  0.23209661E+08  0.67617823E+08i,    Lambda_z2=  1.0000E+04
      ghz2_prime7=  0.70059904E+07  0.53660191E+08i,    Lambda_z2=  1.0000E+04
      ghz3_prime=   0.40457065E+04  0.19693161E+04i,    Lambda_z3=  1.0000E+04
      ghz3_prime2=  0.33402456E+08  0.37615919E+07i,    Lambda_z3=  1.0000E+04
      ghz3_prime3=  0.44855080E+08  0.12184926E+08i,    Lambda_z3=  1.0000E+04
      ghz3_prime4=  0.27878602E+08  0.78237524E+08i,    Lambda_z3=  1.0000E+04
      ghz3_prime5=  0.93246434E+12  0.63158085E+12i,    Lambda_z3=  1.0000E+04
      ghz3_prime6=  0.35811562E+12  0.41077746E+12i,    Lambda_z3=  1.0000E+04
      ghz3_prime7=  0.62298148E+12  0.61827857E+12i,    Lambda_z3=  1.0000E+04
      ghz4_prime=   0.41653395E+00  0.33115593E+00i,    Lambda_z4=  1.0000E+04
      ghz4_prime2=  0.75883756E+04  0.39234327E+04i,    Lambda_z4=  1.0000E+04
      ghz4_prime3=  0.89560755E+04  0.93020315E+04i,    Lambda_z4=  1.0000E+04
      ghz4_prime4=  0.32034411E+04  0.28637675E+04i,    Lambda_z4=  1.0000E+04
      ghz4_prime5=  0.49012574E+08  0.74595801E+08i,    Lambda_z4=  1.0000E+04
      ghz4_prime6=  0.73323810E+08  0.53968832E+08i,    Lambda_z4=  1.0000E+04
      ghz4_prime7=  0.68563876E+08  0.43025214E+08i,    Lambda_z4=  1.0000E+04
      ghzgs2=  0.24033105E-01  0.23217538E+00i
      ghzgs3=  0.33196291E+00  0.45018324E-01i
      ghzgs4=  0.80828654E+00  0.13318435E+00i
      ghzgs1_prime2=  0.56689643E+04  0.70176759E+04i,  Lambda_zgs1=  1.0000E+04
      ghgsgs2=  0.53039480E+00  0.21121811E+00i
      ghgsgs3=  0.91497870E+00  0.55650585E-01i
      ghgsgs4=  0.69452431E+00  0.51142446E+00i
      Lambda=  1000.0
      Lambda_Q=  10000.0
      Lambda_z11=   1.3888E+02
      Lambda_z21=   1.5452E+02
      Lambda_z31=   1.1998E+02
      Lambda_z41=   1.8136E+02
      Lambda_z12=   1.3667E+02
      Lambda_z22=   1.6659E+02
      Lambda_z32=   1.3884E+02
      Lambda_z42=   4.9064E+01
      Lambda_z10=   9.6973E+00
      Lambda_z20=   1.9326E+02
      Lambda_z30=   8.9204E+01
      Lambda_z40=   1.6167E+02

    LHE output: compare_to_reference/HJJ.lhe
    Histogram output: compare_to_reference/HJJ.dat
    Log file: compare_to_reference/HJJ.log

-->
<init>
2212 2212   6500.0000000000000000    6500.0000000000000000 0 0  263000  263000  3  1
 1.6512063E+04  3.3054895E+01  1.0000000E+00  61
</init>
<event>
11  61   1.0000000E+00   1.2500000E+02   7.8125000E-03   1.2380861E-01
        1   -1    0    0  501    0  0.00000000000E+00  0.00000000000E+00  2.96923155288E+02  2.96923155288E+02  0.00000000000E+00 0.00000000000E+00  1.
       21   -1    0    0  502  501  0.00000000000E+00  0.00000000000E+00 -1.30251710164E+02  1.30251710164E+02  0.00000000000E+00 0.00000000000E+00  1.
       21    1    1    2  502  503 -2.57510470255E+01  1.73843461115E+01 -1.79758783729E+01  3.58951823496E+01  0.00000000000E+00 0.00000000000E+00  1.
        1    1    1    2  503    0 -3.13693879494E+01 -3.63064051296E+01  2.37892849578E+02  2.42683335715E+02  0.00000000000E+00 0.00000000000E+00  1.
       25    2    1    2    0    0  5.71204349749E+01  1.89220590182E+01 -5.32455260811E+01  1.48596347387E+02  1.25000000000E+02 0.00000000000E+00  1.
       24    2    5    5    0    0  3.25953894751E+01  1.57862298787E+00 -5.16598340366E+01  9.44859478899E+01  7.20687479452E+01 0.00000000000E+00  1.
      -24    2    5    5    0    0  2.45250454998E+01  1.73434360303E+01 -1.58569204453E+00  5.41103994971E+01  4.49794206763E+01 0.00000000000E+00  1.
       -1    1    6    6    0  803  3.06866651357E+01 -2.74773628241E+01 -5.07375909343E+01  6.53527353577E+01  1.82501207499E-06 0.00000000000E+00  1.
        2    1    6    6  803    0  1.90872433940E+00  2.90559858119E+01 -9.22243102294E-01  2.91332125322E+01  7.64273459193E-07 0.00000000000E+00  1.
       -2    1    7    7    0  804 -6.55283204365E+00  6.64076865273E+00  1.47134213495E+01  1.74219454682E+01  3.72529029846E-07 0.00000000000E+00  1.
        1    1    7    7  804    0  3.10778775434E+01  1.07026673776E+01 -1.62991133940E+01  3.66884540289E+01  4.92809584563E-07 0.00000000000E+00  1.
</event>
<event>
11  61   1.0000000E+00   1.2500000E+02   7.8125000E-03   1.2380861E-01
       21   -1    0    0  501  502  0.00000000000E+00  0.00000000000E+00  4.16815856665E+01  4.16815856665E+01  0.00000000000E+00 0.00000000000E+00  1.
       21   -1    0    0  503  501  0.00000000000E+00  0.00000000000E+00 -9.15269902428E+02  9.15269902428E+02  0.00000000000E+00 0.00000000000E+00  1.
       21    1    1    2  504  502 -8.35282708366E+00  1.25380393562E+02 -2.41159982081E+02  2.71934090852E+02  0.00000000000E+00 0.00000000000E+00  1.
       21    1    1    2  503  504 -1.42606029036E+00 -5.35465469733E+01 -4.45697724264E+02  4.48905032000E+02  0.00000000000E+00 0.00000000000E+00  1.
       25    2    1    2    0    0  9.77888737402E+00 -7.18338465890E+01 -1.86730610417E+02  2.36112365243E+02  1.25000000000E+02 0.00000000000E+00  1.
      -24    2    5    5    0    0 -1.56225390479E+01 -3.73268533343E+01 -6.35473281937E+01  8.88760066310E+01  4.71521359853E+01 0.00000000000E+00  1.
       24    2    5    5    0    0  2.54014264219E+01 -3.45069932547E+01 -1.23183282223E+02  1.47236358612E+02  6.83261240688E+01 0.00000000000E+00  1.
      -12    1    6    6    0    0 -1.59817225400E+01  6.86013700418E+00 -2.35352009486E+01  2.92640157660E+01  0.00000000000E+00 0.00000000000E+00  1.
       11    1    6    6    0    0  3.59183492094E-01 -4.41869903385E+01 -4.00121272451E+01  5.96119908650E+01  5.11001751521E-04 0.00000000000E+00  1.
      -15    1    7    7    0    0  1.80575677268E+01 -5.15707854284E+01 -5.90715585984E+01  8.04874382459E+01  1.77680000000E+00 0.00000000000E+00  1.
       16    1    7    7    0    0  7.34385869511E+00  1.70637921736E+01 -6.41117236249E+01  6.67489203661E+01  0.00000000000E+00 0.00000000000E+00  1.
</event>
<event>
11  61   1.0000000E+00   1.2500000E+02   7.8125000E-03   1.2380861E-01
       21   -1    0    0  501  502  0.00000000000E+00  0.00000000000E+00  1.31717081563E+02  1.31717081563E+02  0.00000000000E+00 0.00000000000E+00  1.
       21   -1    0    0  503  501  0.00000000000E+00  0.00000000000E+00 -3.11991153178E+02  3.11991153178E+02  0.00000000000E+00 0.00000000000E+00  1.
       21    1    1    2  503  504 -1.55559488768E+01 -2.37937531121E+01  2.76507333117E+01  3.96571971437E+01  0.00000000000E+00 0.00000000000E+00  1.
       21    1    1    2  504  502 -5.89087564034E+00 -4.23245286592E+01  7.54025666182E+01  8.66695747921E+01  0.00000000000E+00 0.00000000000E+00  1.
       25    2    1    2    0    0  2.14468245171E+01  6.61182817713E+01 -2.83327371544E+02  3.17381462805E+02  1.25000000000E+02 0.00000000000E+00  1.
       24    2    5    5    0    0  1.98988907847E+01  2.68764261959E+01 -2.06619854254E+02  2.23769898608E+02  7.91384559584E+01 0.00000000000E+00  1.
      -24    2    5    5    0    0  1.54793373242E+00  3.92418555754E+01 -7.67075172899E+01  9.36115641971E+01  3.65617616480E+01 0.00000000000E+00  1.
       -1    1    6    6    0  804 -2.71301624673E+00  1.94046196169E+01 -1.97132063961E+02  1.98103383013E+02  2.10734242554E-06 0.00000000000E+00  1.
        4    1    6    6  804    0  2.26119070314E+01  7.47180657901E+00 -9.48779029335E+00  2.56665155953E+01  1.27500000000E+00 0.00000000000E+00  1.
      -12    1    7    7    0    0  3.23474406885E+00  3.22559180950E+01 -2.37952107046E+01  4.02134290234E+01  6.45239206988E-07 0.00000000000E+00  1.
       11    1    7    7    0    0 -1.68681033644E+00  6.98593748041E+00 -5.29123065852E+01  5.33981351736E+01  5.10999578876E-04 0.00000000000E+00  1.
</event>
<event>
11  61   1.0000000E+00   1.2500000E+02   7.8125000E-03   1.2380861E-01
       21   -1    0    0  501  502  0.00000000000E+00  0.00000000000E+00  4.06567656023E+01  4.06567656023E+01  0.00000000000E+00 0.00000000000E+00  1.
       21   -1    0    0  503  501  0.00000000000E+00  0.00000000000E+00 -3.84103910472E+02  3.84103910472E+02  0.00000000000E+00 0.00000000000E+00  1.
       21    1    1    2  504  502 -2.22756808048E+01 -3.25858674884E+01 -9.35917692271E+00  4.05664751730E+01  0.00000000000E+00 0.00000000000E+00  1.
       21    1    1    2  503  504 -1.02403684124E+01  2.09613780644E+01  2.52450730284E+00  2.34652435040E+01  0.00000000000E+00 0.00000000000E+00  1.
       25    2    1    2    0    0  3.25160492172E+01  1.16244894240E+01 -3.36612475250E+02  3.60728957398E+02  1.25000000000E+02 0.00000000000E+00  1.
       24    2    5    5    0    0  1.24534474454E+01  2.38279529497E+01 -9.68220483927E+01  1.06340768743E+02  3.47992865868E+01 0.00000000000E+00  1.
      -24    2    5    5    0    0  2.00626017718E+01 -1.22034635257E+01 -2.39790426857E+02  2.54388188655E+02  8.16239499328E+01 0.00000000000E+00  1.
       -3    1    6    6    0  804 -1.07790647364E+01  2.84252239727E+00 -1.47330135961E+01  1.84751146085E+01  2.63417803193E-07 0.00000000000E+00  1.
        4    1    6    6  804    0  2.32325121818E+01  2.09854305525E+01 -8.20890347966E+01  8.78656541350E+01  1.27500000000E+00 0.00000000000E+00  1.
       -4    1    7    7    0  803 -2.13249871625E+01  1.55336320131E+01 -1.44136041994E+02  1.46536251582E+02  1.27500000000E+00 0.00000000000E+00  1.
        1    1    7    7  803    0  4.13875889343E+01 -2.77370955389E+01 -9.56543848636E+01  1.07851937073E+02  1.05367121277E-06 0.00000000000E+00  1.
</event>
<event>
11  61   1.0000000E+00   1.2500000E+02   7.8125000E-03   1.2380861E-01
       21   -1    0    0  501  502  0.00000000000E+00  0.00000000000E+00  1.18384391798E+03  1.18384391798E+03  0.00000000000E+00 0.00000000000E+00  1.
       21   -1    0    0  503  501  0.00000000000E+00  0.00000000000E+00 -8.11527247621E+01  8.11527247621E+01  0.00000000000E+00 0.00000000000E+00  1.
       21    1    1    2  504  502  1.55903102283E+02 -3.37035705740E+01  2.57515013515E+01  1.61569947060E+02  0.00000000000E+00 0.00000000000E+00  1.
       21    1    1    2  503  504 -4.57989888224E+01  4.05108317940E+01  1.56692849269E+02  1.68200249352E+02  0.00000000000E+00 0.00000000000E+00  1.
       25    2    1    2    0    0 -1.10104113461E+02 -6.80726122006E+00  9.20246842595E+02  9.35226446328E+02  1.25000000000E+02 0.00000000000E+00  1.
      -24    2    5    5    0    0 -1.30552480156E+01 -1.57769982865E+00  4.52683895854E+02  4.56168235537E+02  5.47158195618E+01 0.00000000000E+00  1.
       24    2    5    5    0    0 -9.70488654454E+01 -5.22956139141E+00  4.67562946741E+02  4.79058210791E+02  3.78923417607E+01 0.00000000000E+00  1.
       -2    1    6    6    0  804 -4.96065595284E+00 -7.05258639622E+00  9.32064957930E+00  1.26973064442E+01  6.03566011266E-07 0.00000000000E+00  1.
        1    1    6    6  804    0 -8.09459206274E+00  5.47488656756E+00  4.43363246274E+02  4.43470929093E+02  5.96046447754E-06 0.00000000000E+00  1.
       -3    1    7    7    0  803 -3.96578205130E+00 -3.71322024560E+00  9.07843445869E+01  9.09467572481E+01  1.49011611938E-06 0.00000000000E+00  1.
        4    1    7    7  803    0 -9.30830833941E+01 -1.51634114581E+00  3.76778602154E+02  3.88111453543E+02  1.27500000000E+00 0.00000000000E+00  1.
</event>
<event>
11  61   1.0000000E+00   1.2500000E+02   7.8125000E-03   1.2380861E-01
       21   -1    0    0  501  502  0.00000000000E+00  0.00000000000E+00  8.12604980671E+01  8.12604980671E+01  0.00000000000E+00 0.00000000000E+00  1.
       21   -1    0    0  503  501  0.00000000000E+00  0.00000000000E+00 -3.14759718924E+02  3.14759718924E+02  0.00000000000E+00 0.00000000000E+00  1.
       21    1    1    2  503  504  7.47761124212E+01 -7.18041290386E+01 -1.48512233136E+02  1.81116491041E+02  0.00000000000E+00 0.00000000000E+00  1.
       21    1    1    2  504  502 -4.40325680925E+01  1.14355464206E+01 -5.17291782835E+01  6.88879282650E+01  0.00000000000E+00 0.00000000000E+00  1.
       25    2    1    2    0    0 -3.07435443287E+01  6.03685826180E+01 -3.32578094374E+01  1.46015797686E+02  1.25000000000E+02 0.00000000000E+00  1.
       24    2    5    5    0    0 -1.98317894379E+01  1.78200751640E+01 -2.28173441919E+01  8.48947553434E+01  7.73022207811E+01 0.00000000000E+00  1.
      -24    2    5    5    0    0 -1.09117548908E+01  4.25485074540E+01 -1.04404652455E+01  6.11210423426E+01  4.11987453831E+01 0.00000000000E+00  1.
      -13    1    6    6    0    0  2.77579792839E+01  1.33928599972E+01  2.29189870611E+00  3.09053082260E+01  1.05659999996E-01 0.00000000000E+00  1.
       14    1    6    6    0    0 -4.75897687218E+01  4.42721516677E+00 -2.51092428980E+01  5.39894471174E+01  1.17804022885E-06 0.00000000000E+00  1.
       -2    1    7    7    0  803 -6.33618618460E+00 -5.29867546815E-01 -1.62151070171E+01  1.74171671221E+01  2.63417803193E-07 0.00000000000E+00  1.
        1    1    7    7  803    0 -4.57556870617E+00  4.30783750008E+01  5.77464177158E+00  4.37038752205E+01  7.95722356561E-07 0.00000000000E+00  1.
</event>
<event>
11  61   1.0000000E+00   1.2500000E+02   7.8125000E-03   1.2380861E-01
       21   -1    0    0  501  502  0.00000000000E+00  0.00000000000E+00  2.65586519903E+01  2.65586519903E+01  0.00000000000E+00 0.00000000000E+00  1.
       21   -1    0    0  503  501  0.00000000000E+00  0.00000000000E+00 -1.12233024940E+03  1.12233024940E+03  0.00000000000E+00 0.00000000000E+00  1.
       21    1    1    2  504  502  2.02468001053E+01 -1.86596530128E+01 -8.82437050408E+02  8.82866503781E+02  0.00000000000E+00 0.00000000000E+00  1.
       21    1    1    2  503  504 -5.62035874005E+00 -2.26886007421E+01 -5.37994971984E+01  5.86578804152E+01  0.00000000000E+00 0.00000000000E+00  1.
       25    2    1    2    0    0 -1.46264413652E+01  4.13482537549E+01 -1.59535049804E+02  2.07364517195E+02  1.25000000000E+02 0.00000000000E+00  1.
       24    2    5    5    0    0  9.19906068271E+00 -5.06931812793E+00 -6.69727481590E+01  7.47697973420E+01  3.15412887320E+01 0.00000000000E+00  1.
      -24    2    5    5    0    0 -2.38255020479E+01  4.64175718828E+01 -9.25623016450E+01  1.32594719853E+02  7.93179331534E+01 0.00000000000E+00  1.
      -15    1    6    6    0    0 -4.77463852497E+00  5.19184177338E+00 -4.99370227503E+01  5.04640035416E+01  1.77680000000E+00 0.00000000000E+00  1.
       16    1    6    6    0    0  1.39736992077E+01 -1.02611599013E+01 -1.70357254087E+01  2.43057938004E+01  3.22619603494E-07 0.00000000000E+00  1.
      -14    1    7    7    0    0  2.35478103389E+01 -2.84431076371E+00 -1.08913225816E+01  2.61000073382E+01  5.43049713117E-07 0.00000000000E+00  1.
       13    1    7    7    0    0 -4.73733123869E+01  4.92618826465E+01 -8.16709790634E+01  1.06494712515E+02  1.05659999997E-01 0.00000000000E+00  1.
</event>
<event>
11  61   1.0000000E+00   1.2500000E+02   7.8125000E-03   1.2380861E-01
       -1   -1    0    0    0  501  0.00000000000E+00  0.00000000000E+00  3.15532801389E+02  3.15532801389E+02  0.00000000000E+00 0.00000000000E+00  1.
       21   -1    0    0  501  502  0.00000000000E+00  0.00000000000E+00 -1.06277802704E+03  1.06277802704E+03  0.00000000000E+00 0.00000000000E+00  1.
       21    1    1    2  503  502  8.83256118399E+01  4.43144002766E+01 -8.18737210418E+02  8.24679210058E+02  0.00000000000E+00 0.00000000000E+00  1.
       -1    1    1    2    0  503  1.42455611096E+02  1.12295506629E+02 -9.58752592963E+01  2.05172969191E+02  0.00000000000E+00 0.00000000000E+00  1.
       25    2    1    2    0    0 -2.30781222936E+02 -1.56609906905E+02  1.67367244066E+02  3.48458649178E+02  1.25000000000E+02 0.00000000000E+00  1.
       24    2    5    5    0    0 -1.13015937895E+02 -7.23631657938E+01  6.90762145681E+01  1.61390935297E+02  5.71531328528E+01 0.00000000000E+00  1.
      -24    2    5    5    0    0 -1.17765285041E+02 -8.42467411112E+01  9.82910294979E+01  1.87067713881E+02  6.60834877135E+01 0.00000000000E+00  1.
       -3    1    6    6    0  803 -1.13036848867E+01 -1.23944243818E+01  3.44825131138E+01  3.83463004528E+01  3.72529029846E-07 0.00000000000E+00  1.
        4    1    6    6  803    0 -1.01712253008E+02 -5.99687414120E+01  3.45937014543E+01  1.23044634844E+02  1.27500000000E+00 0.00000000000E+00  1.
       -2    1    7    7    0  804 -1.15832411534E+02 -6.07162572865E+01  9.80536004206E+01  1.63456783328E+02  1.49011611938E-06 0.00000000000E+00  1.
        1    1    7    7  804    0 -1.93287350754E+00 -2.35304838247E+01  2.37429077310E-01  2.36109305532E+01  8.90881513770E-08 0.00000000000E+00  1.
</event>
<event>
11  61   1.0000000E+00   1.2500000E+02   7.8125000E-03   1.2380861E-01
       -1   -1    0    0    0  501  0.00000000000E+00  0.00000000000E+00  3.74986236291E+02  3.74986236291E+02  0.00000000000E+00 0.00000000000E+00  1.
       21   -1    0    0  501  502  0.00000000000E+00  0.00000000000E+00 -2.90612478358E+02  2.90612478358E+02  0.00000000000E+00 0.00000000000E+00  1.
       21    1    1    2  503  502  1.14517230748E+01 -1.41155219515E+01 -7.60730788537E+01  7.82144695541E+01  0.00000000000E+00 0.00000000000E+00  1.
       -1    1    1    2    0  503  4.57089692461E+01 -2.21179868937E+02  2.12328704884E+02  3.09989230797E+02  0.00000000000E+00 0.00000000000E+00  1.
       25    2    1    2    0    0 -5.71606923209E+01  2.35295390889E+02 -5.18818680966E+01  2.77395014298E+02  1.25000000000E+02 0.00000000000E+00  1.
       24    2    5    5    0    0 -5.30363581633E+01  1.51695545100E+02 -1.16235031763E+01  1.80003980698E+02  8.02616567892E+01 0.00000000000E+00  1.
      -24    2    5    5    0    0 -4.12433415758E+00  8.35998457889E+01 -4.02583649203E+01  9.73910336001E+01  2.92973229403E+01 0.00000000000E+00  1.
      -11    1    6    6    0    0 -1.84210503623E+00  1.45160963338E+00  1.83270438634E+01  1.84765001698E+01  5.11001004675E-04 0.00000000000E+00  1.
       12    1    6    6    0    0 -5.11942531271E+01  1.50243935467E+02 -2.99505470397E+01  1.61527480528E+02  2.41426404506E-06 0.00000000000E+00  1.
       -4    1    7    7    0  803  1.81792996098E+00  8.08697623304E+01 -3.23482946600E+01  8.71278435469E+01  1.27500000000E+00 0.00000000000E+00  1.
        1    1    7    7  803    0 -5.94226411857E+00  2.73008345846E+00 -7.91007026032E+00  1.02631900532E+01  4.36829008146E-07 0.00000000000E+00  1.
</event>
<event>
11  61   1.0000000E+00   1.2500000E+02   7.8125000E-03   1.2380861E-01
       21   -1    0    0  501  502  0.00000000000E+00  0.00000000000E+00  3.32630863848E+02  3.32630863848E+02  0.00000000000E+00 0.00000000000E+00  1.
       21   -1    0    0  503  501  0.00000000000E+00  0.00000000000E+00 -1.49522438734E+02  1.49522438734E+02  0.00000000000E+00 0.00000000000E+00  1.
       21    1    1    2  504  502  9.79853964263E+01 -1.23177924902E+02  5.88484931983E+01  1.68038936701E+02  0.00000000000E+00 0.00000000000E+00  1.
       21    1    1    2  503  504 -2.64149967282E+01 -4.02809047202E+01 -2.06995392674E+01  5.24287541633E+01  0.00000000000E+00 0.00000000000E+00  1.
       25    2    1    2    0    0 -7.15703996981E+01  1.63458829622E+02  1.44959471183E+02  2.61685611718E+02  1.25000000000E+02 0.00000000000E+00  1.
       24    2    5    5    0    0 -2.64222412487E+01  6.22593467475E+01  5.73829536103E+01  9.88948627112E+01  4.37381917276E+01 0.00000000000E+00  1.
      -24    2    5    5    0    0 -4.51481584494E+01  1.01199482874E+02  8.75765175727E+01  1.62790749007E+02  8.09412749256E+01 0.00000000000E+00  1.
       -3    1    6    6    0  804 -1.14108697559E+01  3.95935595248E+00  3.07800086396E+01  3.30649872222E+01  6.45239206988E-07 0.00000000000E+00  1.
        4    1    6    6  804    0 -1.50113714929E+01  5.82999907950E+01  2.66029449706E+01  6.58298754891E+01  1.27500000000E+00 0.00000000000E+00  1.
       -2    1    7    7    0  803 -2.89366423534E+01  1.12385853741E+02  8.26891738257E+01  1.42497048600E+02  2.10734242554E-06 0.00000000000E+00  1.
        1    1    7    7  803    0 -1.62115160960E+01 -1.11863708665E+01  4.88734374698E+00  2.02937004066E+01  5.99962599889E-07 0.00000000000E+00  1.
</event>
<event>
11  61   1.0000000E+00   1.2500000E+02   7.8125000E-03   1.2380861E-01
       21   -1    0    0  501  502  0.00000000000E+00  0.00000000000E+00  6.48668101853E+02  6.48668101853E+02  0.00000000000E+00 0.00000000000E+00  1.
       -2   -1    0    0    0  501  0.00000000000E+00  0.00000000000E+00 -9.74028752249E+02  9.74028752249E+02  0.00000000000E+00 0.00000000000E+00  1.
       21    1    1    2  503  502  8.10004370152E+01  1.28717142009E+02 -7.70811140465E+01  1.70501236319E+02  0.00000000000E+00 0.00000000000E+00  1.
       -2    1    1    2    0  503 -3.11041126685E+02  2.83355495556E+02 -6.80551426579E+02  8.00116968680E+02  0.00000000000E+00 0.00000000000E+00  1.
       25    2    1    2    0    0  2.30040689670E+02 -4.12072637565E+02  4.32271890229E+02  6.52078649103E+02  1.25000000000E+02 0.00000000000E+00  1.
       24    2    5    5    0    0  7.85646926160E+01 -1.00131306469E+02  1.05063232397E+02  1.68451147313E+02  3.37463593336E+01 0.00000000000E+00  1.
      -24    2    5    5    0    0  1.51475997054E+02 -3.11941331096E+02  3.27208657832E+02  4.83627501790E+02  8.11029160891E+01 0.00000000000E+00  1.
       -3    1    6    6    0  804  6.16767486807E+01 -5.79301564421E+01  8.03926192808E+01  1.16717169209E+02  1.49011611938E-06 0.00000000000E+00  1.
        4    1    6    6  804    0  1.68879439353E+01 -4.22011500274E+01  2.46706131161E+01  5.17339781045E+01  1.27500000000E+00 0.00000000000E+00  1.
       -4    1    7    7    0  803  9.07723196250E+01 -2.38154036087E+02  2.74205802976E+02  3.74362667644E+02  1.27500000000E+00 0.00000000000E+00  1.
        3    1    7    7  803    0  6.07036774291E+01 -7.37872950084E+01  5.30028548558E+01  1.09264834146E+02  7.45058059692E-07 0.00000000000E+00  1.
</event>
<event>
11  61   1.0000000E+00   1.2500000E+02   7.8125000E-03   1.2380861E-01
       21   -1    0    0  501  502  0.00000000000E+00  0.00000000000E+00  4.80007825481E+02  4.80007825481E+02  0.00000000000E+00 0.00000000000E+00  1.
       21   -1    0    0  503  501  0.00000000000E+00  0.00000000000E+00 -4.40526072820E+02  4.40526072820E+02  0.00000000000E+00 0.00000000000E+00  1.
       21    1    1    2  503  504 -2.61817508227E+01  4.35027739330E+01  3.37905028182E+02  3.41698380867E+02  0.00000000000E+00 0.00000000000E+00  1.
       21    1    1    2  504  502 -3.99028033687E+01 -2.42279933481E+01  1.24246202658E+02  1.32726592111E+02  0.00000000000E+00 0.00000000000E+00  1.
       25    2    1    2    0    0  6.60845541913E+01 -1.92747805850E+01 -4.22669478179E+02  4.46108925324E+02  1.25000000000E+02 0.00000000000E+00  1.
      -24    2    5    5    0    0  4.45004031777E+01 -1.75544218553E+00 -3.01566835646E+02  3.14813049898E+02  7.86214510436E+01 0.00000000000E+00  1.
       24    2    5    5    0    0  2.15841510136E+01 -1.75193383995E+01 -1.21102642533E+02  1.31295875426E+02  4.24258657249E+01 0.00000000000E+00  1.
       -4    1    6    6    0  804 -3.15932761561E+00  2.97324632152E+01 -1.47318393544E+02  1.50327427375E+02  1.27500000000E+00 0.00000000000E+00  1.
        3    1    6    6  804    0  4.76597307934E+01 -3.14879054007E+01 -1.54248442102E+02  1.64485622523E+02  0.00000000000E+00 0.00000000000E+00  1.
       -1    1    7    7    0  803  1.57074525536E+01 -3.10600912603E+01 -9.67334346220E+01  1.02804721237E+02  1.49011611938E-06 0.00000000000E+00  1.
        2    1    7    7  803    0  5.87669845992E+00  1.35407528608E+01 -2.43692079108E+01  2.84911541891E+01  6.96937998156E-07 0.00000000000E+00  1.
</event>
<event>
11  61   1.0000000E+00   1.2500000E+02   7.8125000E-03   1.2380861E-01
        2   -1    0    0  501    0  0.00000000000E+00  0.00000000000E+00  3.49854525218E+03  3.49854525218E+03  0.00000000000E+00 0.00000000000E+00  1.
       21   -1    0    0  502  501  0.00000000000E+00  0.00000000000E+00 -8.10332783952E+01  8.10332783952E+01  0.00000000000E+00 0.00000000000E+00  1.
       21    1    1    2  502  503 -3.00029681661E+01  1.15082539454E+01  2.88620060872E+01  4.31929786311E+01  0.00000000000E+00 0.00000000000E+00  1.
        2    1    1    2  503    0  6.79554968729E+01  1.99551956036E+01  3.40073554118E+03  3.40147297218E+03  0.00000000000E+00 0.00000000000E+00  1.
       25    2    1    2    0    0 -3.79525287068E+01 -3.14634495490E+01 -1.20855734858E+01  1.34912579766E+02  1.25000000000E+02 0.00000000000E+00  1.
      -24    2    5    5    0    0  7.87482346165E+00 -2.67846315879E+01 -1.12703215347E+01  4.80642902116E+01  3.74663383879E+01 0.00000000000E+00  1.
       24    2    5    5    0    0 -4.58273521684E+01 -4.67881796113E+00 -8.15251951066E-01  8.68482895544E+01  7.36201278082E+01 0.00000000000E+00  1.
       -4    1    6    6    0  803  1.35270137817E+01 -1.44953574315E+00 -1.66661189821E+01  2.15514826091E+01  1.27500000000E+00 0.00000000000E+00  1.
        3    1    6    6  803    0 -5.65219032009E+00 -2.53350958447E+01  5.39579744739E+00  2.65128076025E+01  1.31708901597E-07 0.00000000000E+00  1.
      -11    1    7    7    0    0  1.10211750088E+01 -1.13864948491E+01  2.03725079452E+01  2.58100299063E+01  5.11000597304E-04 0.00000000000E+00  1.
       12    1    7    7    0    0 -5.68485271772E+01  6.70767688799E+00 -2.11877598963E+01  6.10382596482E+01  8.33000234328E-07 0.00000000000E+00  1.
</event>
<event>
11  61   1.0000000E+00   1.2500000E+02   7.8125000E-03   1.2380861E-01
       21   -1    0    0  501  502  0.00000000000E+00  0.00000000000E+00  3.97293652796E+02  3.97293652796E+02  0.00000000000E+00 0.00000000000E+00  1.
       21   -1    0    0  503  501  0.00000000000E+00  0.00000000000E+00 -2.66088728457E+02  2.66088728457E+02  0.00000000000E+00 0.00000000000E+00  1.
       21    1    1    2  503  504  2.18223190216E+01 -2.63659137601E+01 -4.57057217550E+00  3.45291926621E+01  0.00000000000E+00 0.00000000000E+00  1.
       21    1    1    2  504  502 -5.16149048866E+01 -1.23346648850E+02 -1.99304871020E+02  2.40001928745E+02  0.00000000000E+00 0.00000000000E+00  1.
       25    2    1    2    0    0  2.97925858651E+01  1.49712562610E+02  3.35080367536E+02  3.88851259846E+02  1.25000000000E+02 0.00000000000E+00  1.
       24    2    5    5    0    0 -1.05495443317E+01  1.03664867675E+02  2.12265139248E+02  2.49277232058E+02  7.88983612448E+01 0.00000000000E+00  1.
      -24    2    5    5    0    0  4.03421301968E+01  4.60476949354E+01  1.22815228288E+02  1.39574027788E+02  2.54843335354E+01 0.00000000000E+00  1.
      -13    1    6    6    0    0 -2.82647433831E+01  7.45973101373E+01  1.95875313159E+02  2.11496581219E+02  1.05659999928E-01 0.00000000000E+00  1.
       14    1    6    6    0    0  1.77151990514E+01  2.90675575373E+01  1.63898260892E+01  3.77806508394E+01  6.17769507757E-07 0.00000000000E+00  1.
      -12    1    7    7    0    0  3.22887876623E+01  2.19931565152E+01  5.76001775820E+01  6.95991752802E+01  7.45058059692E-07 0.00000000000E+00  1.
       11    1    7    7    0    0  8.05334253449E+00  2.40545384202E+01  6.52150507063E+01  6.99748525077E+01  5.11001208360E-04 0.00000000000E+00  1.
</event>
<event>
11  61   1.0000000E+00   1.2500000E+02   7.8125000E-03   1.2380861E-01
       21   -1    0    0  501  502  0.00000000000E+00  0.00000000000E+00  1.25713011550E+01  1.25713011550E+01  0.00000000000E+00 0.00000000000E+00  1.
       21   -1    0    0  503  501  0.00000000000E+00  0.00000000000E+00 -1.93159679077E+03  1.93159679077E+03  0.00000000000E+00 0.00000000000E+00  1.
       21    1    1    2  503  504 -2.84559724357E+01  1.30586735353E+01 -7.59308517793E+02  7.59953746300E+02  0.00000000000E+00 0.00000000000E+00  1.
       21    1    1    2  504  502  2.13972595433E+01 -4.36021401674E+00 -4.62102502233E+00  2.23205746900E+01  0.00000000000E+00 0.00000000000E+00  1.
       25    2    1    2    0    0  7.05871289241E+00 -8.69845951861E+00 -1.15509594680E+03  1.16189377094E+03  1.25000000000E+02 0.00000000000E+00  1.
      -24    2    5    5    0    0 -1.04226226241E+01 -2.75225544068E+01 -6.28920649812E+02  6.34754868491E+02  8.06624897324E+01 0.00000000000E+00  1.
       24    2    5    5    0    0  1.74813355165E+01  1.88240948882E+01 -5.26175296988E+02  5.27138902449E+02  1.88423903676E+01 0.00000000000E+00  1.
       -2    1    6    6    0  804 -4.44180481325E+01 -1.79005769344E+01 -2.81734357249E+02  2.85775509288E+02  6.66400187463E-06 0.00000000000E+00  1.
        1    1    6    6  804    0  3.39954255084E+01 -9.62197747236E+00 -3.47186292563E+02  3.48979359203E+02  4.21468485109E-06 0.00000000000E+00  1.
      -15    1    7    7    0    0  6.38944591380E+00 -1.59296478452E-01 -4.77422618488E+01  4.82009437577E+01  1.77680000000E+00 0.00000000000E+00  1.
       16    1    7    7    0    0  1.10918896027E+01  1.89833913666E+01 -4.78433035139E+02  4.78937958691E+02  0.00000000000E+00 0.00000000000E+00  1.
</event>
<event>
11  61   1.0000000E+00   1.2500000E+02   7.8125000E-03   1.2380861E-01
       21   -1    0    0  501  502  0.00000000000E+00  0.00000000000E+00  8.43257500726E+01  8.43257500726E+01  0.00000000000E+00 0.00000000000E+00  1.
       21   -1    0    0  503  501  0.00000000000E+00  0.00000000000E+00 -6.03055688568E+02  6.03055688568E+02  0.00000000000E+00 0.00000000000E+00  1.
       21    1    1    2  504  502 -1.76250592840E+01 -3.10688562329E+01 -4.31505079720E+01  5.60168089115E+01  0.00000000000E+00 0.00000000000E+00  1.
       21    1    1    2  503  504 -3.07545003420E+01  2.99650502925E+01 -4.94178195583E+02  4.96040152125E+02  0.00000000000E+00 0.00000000000E+00  1.
       25    2    1    2    0    0  4.83795596259E+01  1.10380594037E+00  1.85987650596E+01  1.35324477604E+02  1.25000000000E+02 0.00000000000E+00  1.
      -24    2    5    5    0    0  3.04979211012E+00  4.75303168842E+00  1.86055455248E+01  4.32210906071E+01  3.86005674420E+01 0.00000000000E+00  1.
       24    2    5    5    0    0  4.53297675158E+01 -3.64922574805E+00 -6.78046524017E-03  9.21033869969E+01  8.00932530163E+01 0.00000000000E+00  1.
      -14    1    6    6    0    0  1.41494680166E+00  2.01891545005E+01  1.76147730077E+00  2.03151873281E+01  4.60981155588E-07 0.00000000000E+00  1.
       13    1    6    6    0    0  1.63484530845E+00 -1.54361228121E+01  1.68440682241E+01  2.29059032790E+01  1.05660000001E-01 0.00000000000E+00  1.
       -3    1    7    7    0  804  5.19011641489E+01 -2.46668104717E+01 -2.14528321331E+01  6.13384576379E+01  1.05367121277E-06 0.00000000000E+00  1.
        4    1    7    7  804    0 -6.57139663316E+00  2.10175847237E+01  2.14460516678E+01  3.07649293590E+01  1.27500000000E+00 0.00000000000E+00  1.
</event>
<event>
11  61   1.0000000E+00   1.2500000E+02   7.8125000E-03   1.2380861E-01
       21   -1    0    0  501  502  0.00000000000E+00  0.00000000000E+00  1.26908132277E+02  1.26908132277E+02  0.00000000000E+00 0.00000000000E+00  1.
       21   -1    0    0  503  501  0.00000000000E+00  0.00000000000E+00 -1.56737650086E+02  1.56737650086E+02  0.00000000000E+00 0.00000000000E+00  1.
       21    1    1    2  504  502 -6.26452628372E+01 -3.66520507625E+01 -3.01558411025E+01  7.85950159593E+01  0.00000000000E+00 0.00000000000E+00  1.
       21    1    1    2  503  504  2.26230670282E+00  2.68576059687E+01 -5.02155014395E+01  5.69916275851E+01  0.00000000000E+00 0.00000000000E+00  1.
       25    2    1    2    0    0  6.03829561344E+01  9.79444479378E+00  5.05418247336E+01  1.48059138819E+02  1.25000000000E+02 0.00000000000E+00  1.
      -24    2    5    5    0    0  5.11360095639E+01 -7.67016658457E+00  1.89676256418E+01  5.90080105612E+01  2.11766748653E+01 0.00000000000E+00  1.
       24    2    5    5    0    0  9.24694657051E+00  1.74646113783E+01  3.15741990918E+01  8.90511282578E+01  8.08866782865E+01 0.00000000000E+00  1.
       -2    1    6    6    0  804  1.66045766808E+01 -8.93897625234E+00  1.52527775020E+01  2.42541642757E+01  2.63417803193E-07 0.00000000000E+00  1.
        1    1    6    6  804    0  3.45314328831E+01  1.26880966777E+00  3.71484813979E+00  3.47538462855E+01  6.12481797019E-07 0.00000000000E+00  1.
       -1    1    7    7    0  803  1.74085281607E+01  3.92234897312E+01 -7.52408046967E+00  4.35677723361E+01  2.79396772385E-07 0.00000000000E+00  1.
        2    1    7    7  803    0 -8.16158159023E+00 -2.17588783529E+01  3.90982795615E+01  4.54833559217E+01  5.26835606386E-07 0.00000000000E+00  1.
</event>
<event>
11  61   1.0000000E+00   1.2500000E+02   7.8125000E-03   1.2380861E-01
       21   -1    0    0  501  502  0.00000000000E+00  0.00000000000E+00  4.21947202814E+02  4.21947202814E+02  0.00000000000E+00 0.00000000000E+00  1.
       21   -1    0    0  503  501  0.00000000000E+00  0.00000000000E+00 -8.75304355626E+01  8.75304355626E+01  0.00000000000E+00 0.00000000000E+00  1.
       21    1    1    2  504  502 -2.42297084993E+01  1.37085318212E+02  2.77621527994E+01  1.41951401441E+02  0.00000000000E+00 0.00000000000E+00  1.
       21    1    1    2  503  504 -1.12826246207E+01 -1.94777965577E+01  6.65869898527E+01  7.02887572426E+01  0.00000000000E+00 0.00000000000E+00  1.
       25    2    1    2    0    0  3.55123331200E+01 -1.17607521654E+02  2.40067624600E+02  2.97237479693E+02  1.25000000000E+02 0.00000000000E+00  1.
      -24    2    5    5    0    0  1.10141284008E+01 -8.40323856764E+01  1.71991437658E+02  2.06008602855E+02  7.53374870543E+01 0.00000000000E+00  1.
       24    2    5    5    0    0  2.44982047192E+01 -3.35751359776E+01  6.80761869424E+01  9.12288768385E+01  4.42819257736E+01 0.00000000000E+00  1.
      -12    1    6    6    0    0  3.52357404885E+00 -9.76522457032E+01  1.44766351631E+02  1.74658733620E+02  3.65002414999E-06 0.00000000000E+00  1.
       11    1    6    6    0    0  7.49055435197E+00  1.36198600268E+01  2.72250860263E+01  3.13498692349E+01  5.10999714666E-04 0.00000000000E+00  1.
       -3    1    7    7    0  804 -4.82489367137E+00  6.82387193029E+00  2.09984483552E+01  2.26004349602E+01  3.72529029846E-07 0.00000000000E+00  1.
        4    1    7    7  804    0  2.93230983905E+01 -4.03990079079E+01  4.70777385871E+01  6.86284418783E+01  1.27500000000E+00 0.00000000000E+00  1.
</event>
<event>
11  61   1.0000000E+00   1.2500000E+02   7.8125000E-03   1.2380861E-01
       21   -1    0    0  501  502  0.00000000000E+00  0.00000000000E+00  3.01239361520E+01  3.01239361520E+01  0.00000000000E+00 0.00000000000E+00  1.
       21   -1    0    0  503  501  0.00000000000E+00  0.00000000000E+00 -3.76282936393E+02  3.76282936393E+02  0.00000000000E+00 0.00000000000E+00  1.
       21    1    1    2  503  504 -6.07293133800E+00  3.21486109346E+01 -7.41806347712E+00  3.35475982123E+01  0.00000000000E+00 0.00000000000E+00  1.
       21    1    1    2  504  502 -2.09765732132E+01 -1.27206560808E+01 -7.84343172095E+01  8.21813472207E+01  0.00000000000E+00 0.00000000000E+00  1.
       25    2    1    2    0    0  2.70495045512E+01 -1.94279548539E+01 -2.60306619554E+02  2.90677927112E+02  1.25000000000E+02 0.00000000000E+00  1.
       24    2    5    5    0    0  2.41904620831E+01 -2.71859633640E+01 -1.91601068919E+02  2.09861881149E+02  7.75034482376E+01 0.00000000000E+00  1.
      -24    2    5    5    0    0  2.85904246814E+00  7.75800851012E+00 -6.87055506347E+01  8.08160459627E+01  4.17423020105E+01 0.00000000000E+00  1.
      -13    1    6    6    0    0  2.44638205786E+01 -4.71796683711E+01 -1.77782509664E+02  1.85556006455E+02  1.05660000012E-01 0.00000000000E+00  1.
       14    1    6    6    0    0 -2.73358495587E-01  1.99937050071E+01 -1.38185592548E+01  2.43058746943E+01  7.90253409579E-07 0.00000000000E+00  1.
      -14    1    7    7    0    0  9.35488298719E+00  2.21680398879E+01 -2.67370150494E+01  3.59694843156E+01  6.45239206988E-07 0.00000000000E+00  1.
       13    1    7    7    0    0 -6.49584051904E+00 -1.44100313778E+01 -4.19685355853E+01  4.48465616471E+01  1.05659999995E-01 0.00000000000E+00  1.
</event>
<event>
11  61   1.0000000E+00   1.2500000E+02   7.8125000E-03   1.2380861E-01
       21   -1    0    0  501  502  0.00000000000E+00  0.00000000000E+00  9.81117489523E+02  9.81117489523E+02  0.00000000000E+00 0.00000000000E+00  1.
       21   -1    0    0  503  501  0.00000000000E+00  0.00000000000E+00 -1.05106304327E+02  1.05106304327E+02  0.00000000000E+00 0.00000000000E+00  1.
       21    1    1    2  504  502 -6.53281052087E+01  9.06019326838E+01  7.72365866271E+02  7.80400860402E+02  0.00000000000E+00 0.00000000000E+00  1.
       21    1    1    2  503  504 -3.73808305620E+00  2.34423872090E+01  1.20006622849E+02  1.22331959481E+02  0.00000000000E+00 0.00000000000E+00  1.
       25    2    1    2    0    0  6.90661882649E+01 -1.14044319893E+02 -1.63613039231E+01  1.83490973967E+02  1.25000000000E+02 0.00000000000E+00  1.
      -24    2    5    5    0    0  1.36574407602E+01 -2.05245217277E+01 -1.73349955798E+01  4.73211336319E+01  3.64829540496E+01 0.00000000000E+00  1.
       24    2    5    5    0    0  5.54087475047E+01 -9.35197981653E+01  9.73691656682E-01  1.36169840335E+02  8.20072886549E+01 0.00000000000E+00  1.
       -2    1    6    6    0  804  1.68494244652E+01 -2.97721986156E+01 -1.43014315947E+01  3.70785363907E+01  7.45058059692E-07 0.00000000000E+00  1.
        1    1    6    6  804    0 -3.19198370500E+00  9.24767688785E+00 -3.03356398503E+00  1.02425972412E+01  1.50891502816E-07 0.00000000000E+00  1.
       -3    1    7    7    0  803 -7.43224328294E+00 -1.40999065912E+00 -2.11699136766E+01  2.24809154385E+01  3.72529029846E-07 0.00000000000E+00  1.
        4    1    7    7  803    0  6.28409907876E+01 -9.21098075061E+01  2.21436053333E+01  1.13688924897E+02  1.27500000000E+00 0.00000000000E+00  1.
</event>
<event>
11  61   1.0000000E+00   1.2500000E+02   7.8125000E-03   1.2380861E-01
       21   -1    0    0  501  502  0.00000000000E+00  0.00000000000E+00  5.72604814036E+02  5.72604814036E+02  0.00000000000E+00 0.00000000000E+00  1.
       21   -1    0    0  503  501  0.00000000000E+00  0.00000000000E+00 -8.12277302538E+02  8.12277302538E+02  0.00000000000E+00 0.00000000000E+00  1.
       21    1    1    2  504  502  5.08726473923E+01  2.21137700713E+01  3.36862025958E+02  3.41398695973E+02  0.00000000000E+00 0.00000000000E+00  1.
       21    1    1    2  503  504  2.96296784208E+01  4.34164394704E+01  2.22229621363E+02  2.28361357656E+02  0.00000000000E+00 0.00000000000E+00  1.
       25    2    1    2    0    0 -8.05023258130E+01 -6.55302095417E+01 -7.98764135822E+02  8.15122062945E+02  1.25000000000E+02 0.00000000000E+00  1.
      -24    2    5    5    0    0 -5.76001618911E+01 -2.41234744347E+01 -3.41558849228E+02  3.48750929158E+02  3.26349878789E+01 0.00000000000E+00  1.
       24    2    5    5    0    0 -2.29021639219E+01 -4.14067351070E+01 -4.57205286594E+02  4.66371133787E+02  7.89071195510E+01 0.00000000000E+00  1.
       -2    1    6    6    0  804 -5.23020729988E+01 -1.76347196876E+01 -3.29359544376E+02  3.33952391293E+02  4.21468485109E-06 0.00000000000E+00  1.
        1    1    6    6  804    0 -5.29808889225E+00 -6.48875474713E+00 -1.21993048516E+01  1.47985378650E+01  2.28126509374E-07 0.00000000000E+00  1.
       -3    1    7    7    0  803  2.55741954251E+01 -8.89129396276E+00 -7.51155301897E+01  7.98463365199E+01  2.35608045769E-06 0.00000000000E+00  1.
        4    1    7    7  803    0 -4.84763593470E+01 -3.25154411442E+01 -3.82089756404E+02  3.86524797267E+02  1.27500000001E+00 0.00000000000E+00  1.
</event>
<event>
11  61   1.0000000E+00   1.2500000E+02   7.8125000E-03   1.2380861E-01
       21   -1    0    0  501  502  0.00000000000E+00  0.00000000000E+00  1.69413451598E+02  1.69413451598E+02  0.00000000000E+00 0.00000000000E+00  1.
       21   -1    0    0  503  501  0.00000000000E+00  0.00000000000E+00 -4.79145993422E+01  4.79145993422E+01  0.00000000000E+00 0.00000000000E+00  1.
       21    1    1    2  504  502 -1.50228157872E+01  4.46280334969E+00  5.81342045725E+00  1.67151866674E+01  0.00000000000E+00 0.00000000000E+00  1.
       21    1    1    2  503  504 -7.50423321224E-02  1.78740480024E+01  5.73312007168E+01  6.00529249827E+01  0.00000000000E+00 0.00000000000E+00  1.
       25    2    1    2    0    0  1.50978581193E+01 -2.23368513521E+01  5.83542310818E+01  1.40559939290E+02  1.25000000000E+02 0.00000000000E+00  1.
       24    2    5    5    0    0  8.11182038035E+00 -2.82896161271E+01  1.97081659415E+01  8.56011514055E+01  7.79297203041E+01 0.00000000000E+00  1.
      -24    2    5    5    0    0  6.98603773895E+00  5.95276477499E+00  3.86460651403E+01  5.49587878845E+01  3.79830209850E+01 0.00000000000E+00  1.
       -1    1    6    6    0  804  2.82159092734E+01 -3.99924183936E+00  3.92343637555E+01  4.84919247990E+01  7.45058059692E-07 0.00000000000E+00  1.
        4    1    6    6  804    0 -2.01040888930E+01 -2.42903742877E+01 -1.95261978140E+01  3.71092266065E+01  1.27500000000E+00 0.00000000000E+00  1.
      -16    1    7    7    0    0 -1.13355042496E+01 -9.60907594164E+00  1.67837079683E+01  2.24169768303E+01  4.16500117164E-07 0.00000000000E+00  1.
       15    1    7    7    0    0  1.83215419886E+01  1.55618407166E+01  2.18623571720E+01  3.25418110542E+01  1.77680000000E+00 0.00000000000E+00  1.
</event>
<event>
11  61   1.0000000E+00   1.2500000E+02   7.8125000E-03   1.2380861E-01
       21   -1    0    0  501  502  0.00000000000E+00  0.00000000000E+00  9.83546466257E+01  9.83546466257E+01  0.00000000000E+00 0.00000000000E+00  1.
       21   -1    0    0  503  501  0.00000000000E+00  0.00000000000E+00 -1.00906313898E+03  1.00906313898E+03  0.00000000000E+00 0.00000000000E+00  1.
       21    1    1    2  504  502 -2.82949501803E+01 -1.10694604722E+02 -9.15322275667E+02  9.22425481030E+02  0.00000000000E+00 0.00000000000E+00  1.
       21    1    1    2  503  504 -1.12304783134E+01  1.55021748865E+01  1.23702337962E+01  2.27917474875E+01  0.00000000000E+00 0.00000000000E+00  1.
       25    2    1    2    0    0  3.95254284937E+01  9.51924298351E+01 -7.75645048266E+00  1.62200557088E+02  1.25000000000E+02 0.00000000000E+00  1.
       24    2    5    5    0    0  1.21959299649E+01  5.20758686509E+01 -1.60147803289E+01  8.90458609305E+01  6.93689797850E+01 0.00000000000E+00  1.
      -24    2    5    5    0    0  2.73294985288E+01  4.31165611842E+01  8.25832984626E+00  7.31546961575E+01  5.17442771702E+01 0.00000000000E+00  1.
       -1    1    6    6    0  804 -1.13399943659E+01  3.99678172455E+01  1.85604489877E+01  4.55028807243E+01  1.02021276486E-06 0.00000000000E+00  1.
        2    1    6    6  804    0  2.35359243308E+01  1.21080514054E+01 -3.45752293166E+01  4.35429802062E+01  7.45058059692E-07 0.00000000000E+00  1.
       -4    1    7    7    0  803  2.35986546522E+01 -2.54807938772E+00 -7.14050557973E+00  2.48193806308E+01  1.27500000000E+00 0.00000000000E+00  1.
        3    1    7    7  803    0  3.73084387658E+00  4.56646405719E+01  1.53988354260E+01  4.83353155267E+01  1.10195573105E-06 0.00000000000E+00  1.
</event>
<event>
11  61   1.0000000E+00   1.2500000E+02   7.8125000E-03   1.2380861E-01
        1   -1    0    0  501    0  0.00000000000E+00  0.00000000000E+00  2.34487717905E+02  2.34487717905E+02  0.00000000000E+00 0.00000000000E+00  1.
       21   -1    0    0  502  501  0.00000000000E+00  0.00000000000E+00 -7.87982749849E+02  7.87982749849E+02  0.00000000000E+00 0.00000000000E+00  1.
       21    1    1    2  502  503  3.47304993354E+01 -1.31581910251E+01 -6.54990867668E+02  6.56042972910E+02  0.00000000000E+00 0.00000000000E+00  1.
        1    1    1    2  503    0 -7.32404176315E+01  1.15837966235E+01  1.93024988941E+02  2.06777632917E+02  0.00000000000E+00 0.00000000000E+00  1.
       25    2    1    2    0    0  3.85099182961E+01  1.57439440154E+00 -9.15291532160E+01  1.59649861927E+02  1.25000000000E+02 0.00000000000E+00  1.
       24    2    5    5    0    0  4.51662884208E+01  4.00783902873E+00 -5.06411651160E+01  1.06184003318E+02  8.15748648361E+01 0.00000000000E+00  1.
      -24    2    5    5    0    0 -6.65637012472E+00 -2.43344462719E+00 -4.08879881000E+01  5.34658586086E+01  3.37126319040E+01 0.00000000000E+00  1.
       -1    1    6    6    0  803  4.64703131605E+00 -3.39410835592E+01 -5.63661708065E+00  3.47183453716E+01  8.63673025323E-07 0.00000000000E+00  1.
        2    1    6    6  803    0  4.05192571048E+01  3.79489225879E+01 -4.50045480354E+01  7.14656579469E+01  5.26835606386E-07 0.00000000000E+00  1.
       -4    1    7    7    0  804 -2.79336886769E+00 -4.57038864606E+00  4.95706270979E+00  7.40874197930E+00  1.27500000000E+00 0.00000000000E+00  1.
        3    1    7    7  804    0 -3.86300125704E+00  2.13694401887E+00 -4.58450508098E+01  4.60571166293E+01  7.45058059692E-07 0.00000000000E+00  1.
</event>
<event>
11  61   1.0000000E+00   1.2500000E+02   7.8125000E-03   1.2380861E-01
       21   -1    0    0  501  502  0.00000000000E+00  0.00000000000E+00  1.73485636915E+01  1.73485636915E+01  0.00000000000E+00 0.00000000000E+00  1.
       21   -1    0    0  503  501  0.00000000000E+00  0.00000000000E+00 -8.09341042966E+02  8.09341042966E+02  0.00000000000E+00 0.00000000000E+00  1.
       21    1    1    2  503  504  3.32085333133E+01  2.35185017755E+01 -4.69059549765E+01  6.20974655107E+01  0.00000000000E+00 0.00000000000E+00  1.
       21    1    1    2  504  502  5.94243101335E+00  1.82762071494E+01 -2.50905075359E+02  2.51639998957E+02  0.00000000000E+00 0.00000000000E+00  1.
       25    2    1    2    0    0 -3.91509643267E+01 -4.17947089249E+01 -4.94181448939E+02  5.12952142190E+02  1.25000000000E+02 0.00000000000E+00  1.
      -24    2    5    5    0    0  1.65349573769E+01 -7.81318933997E+00 -3.85345713653E+01  4.57944136040E+01  1.66662648457E+01 0.00000000000E+00  1.
       24    2    5    5    0    0 -5.56859217036E+01 -3.39815195849E+01 -4.55646877574E+02  4.67157728586E+02  7.97909818569E+01 0.00000000000E+00  1.
      -12    1    6    6    0    0  1.62512668826E+01  3.70765264920E-01 -2.21200971087E+01  2.74506801058E+01  4.56253018749E-07 0.00000000000E+00  1.
       11    1    6    6    0    0  2.83690494300E-01 -8.18395460489E+00 -1.64144742566E+01  1.83437334982E+01  5.10999986247E-04 0.00000000000E+00  1.
       -1    1    7    7    0  803 -2.99549505512E+01 -5.86191852621E+01 -2.54221674772E+02  2.62606488624E+02  5.96046447754E-06 0.00000000000E+00  1.
        2    1    7    7  803    0 -2.57309711525E+01  2.46376656772E+01 -2.01425202801E+02  2.04551239962E+02  4.21468485109E-06 0.00000000000E+00  1.
</event>
<event>
11  61   1.0000000E+00   1.2500000E+02   7.8125000E-03   1.2380861E-01
       21   -1    0    0  501  502  0.00000000000E+00  0.00000000000E+00  3.24419522108E+02  3.24419522108E+02  0.00000000000E+00 0.00000000000E+00  1.
       21   -1    0    0  503  501  0.00000000000E+00  0.00000000000E+00 -4.58482075493E+02  4.58482075493E+02  0.00000000000E+00 0.00000000000E+00  1.
       21    1    1    2  503  504  7.02883407809E+00 -3.66242119713E+01  1.55798732204E+02  1.60199820123E+02  0.00000000000E+00 0.00000000000E+00  1.
       21    1    1    2  504  502 -1.99524691099E+00  3.41572831407E+01 -4.31989688309E+02  4.33342580191E+02  0.00000000000E+00 0.00000000000E+00  1.
       25    2    1    2    0    0 -5.03358716711E+00  2.46692883062E+00  1.42128402719E+02  1.89359197287E+02  1.25000000000E+02 0.00000000000E+00  1.
       24    2    5    5    0    0  4.14279150100E+00 -9.06402665995E+00  7.11062892504E+01  1.08101386398E+02  8.08114228895E+01 0.00000000000E+00  1.
      -24    2    5    5    0    0 -9.17637866811E+00  1.15309554906E+01  7.10221134686E+01  8.12578108893E+01  3.66267985087E+01 0.00000000000E+00  1.
       -1    1    6    6    0  803 -2.23453593581E+00 -3.96961173553E+01  1.25203965831E+01  4.16837524047E+01  6.71586259355E-07 0.00000000000E+00  1.
        2    1    6    6  803    0  6.37732743681E+00  3.06320906954E+01  5.85858926673E+01  6.64176339930E+01  7.45058059692E-07 0.00000000000E+00  1.
      -14    1    7    7    0    0 -1.92469241638E+00  1.31994582563E+01  4.14543974131E+00  1.39683502894E+01  3.35793129677E-07 0.00000000000E+00  1.
       13    1    7    7    0    0 -7.25168625173E+00 -1.66850276574E+00  6.68766737273E+01  6.72894606000E+01  1.05659999989E-01 0.00000000000E+00  1.
</event>
<event>
11  61   1.0000000E+00   1.2500000E+02   7.8125000E-03   1.2380861E-01
       21   -1    0    0  501  502  0.00000000000E+00  0.00000000000E+00  1.41735402873E+02  1.41735402873E+02  0.00000000000E+00 0.00000000000E+00  1.
       21   -1    0    0  503  501  0.00000000000E+00  0.00000000000E+00 -7.02903128226E+02  7.02903128226E+02  0.00000000000E+00 0.00000000000E+00  1.
       21    1    1    2  503  504 -1.89612518256E+02  4.39842545245E+01 -7.23283364598E+00  1.94781507356E+02  0.00000000000E+00 0.00000000000E+00  1.
       21    1    1    2  504  502  4.15859094780E+00 -1.81096841336E+01  2.35731304017E+01  3.00157794339E+01  0.00000000000E+00 0.00000000000E+00  1.
       25    2    1    2    0    0  1.85453927308E+02 -2.58745703909E+01 -5.77508022108E+02  6.19841244309E+02  1.25000000000E+02 0.00000000000E+00  1.
      -24    2    5    5    0    0  1.54221469384E+02 -7.89607991589E+00 -4.97973462801E+02  5.26712551814E+02  7.48460612689E+01 0.00000000000E+00  1.
       24    2    5    5    0    0  3.12324579242E+01 -1.79784904750E+01 -7.95345593065E+01  9.31286924945E+01  3.23807766107E+01 0.00000000000E+00  1.
       -2    1    6    6    0  804  5.41623609392E+01  1.36021732756E+01 -8.85240395890E+01  1.04666546926E+02  0.00000000000E+00 0.00000000000E+00  1.
        1    1    6    6  804    0  1.00059108445E+02 -2.14982531915E+01 -4.09449423212E+02  4.22046004888E+02  5.96046447754E-06 0.00000000000E+00  1.
       -3    1    7    7    0  803  1.44394395840E+01 -4.32919935633E+00 -6.57118537739E+01  6.74187444927E+01  1.29047841398E-06 0.00000000000E+00  1.
        4    1    7    7  803    0  1.67930183402E+01 -1.36492911187E+01 -1.38227055326E+01  2.57099480018E+01  1.27500000000E+00 0.00000000000E+00  1.
</event>
<event>
11  61   1.0000000E+00   1.2500000E+02   7.8125000E-03   1.2380861E-01
       21   -1    0    0  501  502  0.00000000000E+00  0.00000000000E+00  1.10575344848E+02  1.10575344848E+02  0.00000000000E+00 0.00000000000E+00  1.
       21   -1    0    0  503  501  0.00000000000E+00  0.00000000000E+00 -1.18262477233E+02  1.18262477233E+02  0.00000000000E+00 0.00000000000E+00  1.
       21    1    1    2  503  504  2.94992865797E+01  1.94429005747E+01 -8.29628671790E+00  3.62913579903E+01  0.00000000000E+00 0.00000000000E+00  1.
       21    1    1    2  504  502 -1.49866429290E+01  2.51327172695E+01  4.34103427856E+01  5.23517984829E+01  0.00000000000E+00 0.00000000000E+00  1.
       25    2    1    2    0    0 -1.45126436507E+01 -4.45756178443E+01 -4.28011884521E+01  1.40194665608E+02  1.25000000000E+02 0.00000000000E+00  1.
       24    2    5    5    0    0 -2.50351185613E+01 -1.51518035987E+01 -2.11508336960E+01  5.00369220578E+01  3.46410376477E+01 0.00000000000E+00  1.
      -24    2    5    5    0    0  1.05224749106E+01 -2.94238142456E+01 -2.16503547561E+01  9.01577435502E+01  8.17508259163E+01 0.00000000000E+00  1.
       -3    1    6    6    0  804 -1.87861853850E+01  4.75623590786E+00  1.22212306194E+00  1.94174181113E+01  2.06288475854E-07 0.00000000000E+00  1.
        4    1    6    6  804    0 -6.24893317628E+00 -1.99080395066E+01 -2.23729567579E+01  3.06195039465E+01  1.27500000000E+00 0.00000000000E+00  1.
       -4    1    7    7    0  803  3.87692183400E+01 -4.04809769870E+01 -2.08378322992E+01  5.98130643626E+01  1.27500000000E+00 0.00000000000E+00  1.
        3    1    7    7  803    0 -2.82467434294E+01  1.10571627414E+01 -8.12522456904E-01  3.03446791876E+01  8.66414727007E-07 0.00000000000E+00  1.
</event>
<event>
11  61   1.0000000E+00   1.2500000E+02   7.8125000E-03   1.2380861E-01
       -3   -1    0    0    0  501  0.00000000000E+00  0.00000000000E+00  1.07786460243E+02  1.07786460243E+02  0.00000000000E+00 0.00000000000E+00  1.
       21   -1    0    0  501  502  0.00000000000E+00  0.00000000000E+00 -2.10871516628E+02  2.10871516628E+02  0.00000000000E+00 0.00000000000E+00  1.
       21    1    1    2  503  502  1.23625152697E+01  2.52948938126E+01 -9.04895059772E+01  9.47682126495E+01  0.00000000000E+00 0.00000000000E+00  1.
       -3    1    1    2    0  503 -7.40580132351E+01  2.03297431715E+01 -1.77406852162E+00  7.68181951160E+01  0.00000000000E+00 0.00000000000E+00  1.
       25    2    1    2    0    0  6.16954979654E+01 -4.56246369841E+01 -1.08214818863E+01  1.47071569106E+02  1.25000000000E+02 0.00000000000E+00  1.
       24    2    5    5    0    0  2.90690199797E+01 -2.98975428368E+00 -1.62326949663E+01  8.70199839694E+01  8.03432055056E+01 0.00000000000E+00  1.
      -24    2    5    5    0    0  3.26264779857E+01 -4.26348827004E+01  5.41121307996E+00  6.00515851366E+01  2.63569983455E+01 0.00000000000E+00  1.
       -3    1    6    6    0  804  5.24116678336E+00 -4.03808550198E+01 -1.20591514282E+01  4.24677102579E+01  4.36829008146E-07 0.00000000000E+00  1.
        4    1    6    6  804    0  2.38278531963E+01  3.73911007361E+01 -4.17354353809E+00  4.45522737115E+01  1.27500000000E+00 0.00000000000E+00  1.
      -14    1    7    7    0    0  8.83517005716E+00 -3.32871389562E+00 -7.79728278660E+00  1.22449248667E+01  2.08250058582E-07 0.00000000000E+00  1.
       13    1    7    7    0    0  2.37913079286E+01 -3.93061688048E+01  1.32084958666E+01  4.78066602698E+01  1.05660000001E-01 0.00000000000E+00  1.
</event>
<event>
11  61   1.0000000E+00   1.2500000E+02   7.8125000E-03   1.2380861E-01
       21   -1    0    0  501  502  0.00000000000E+00  0.00000000000E+00  6.88933304445E+01  6.88933304445E+01  0.00000000000E+00 0.00000000000E+00  1.
       21   -1    0    0  503  501  0.00000000000E+00  0.00000000000E+00 -4.62349954829E+02  4.62349954829E+02  0.00000000000E+00 0.00000000000E+00  1.
       21    1    1    2  503  504  9.13610390362E+00 -1.61022367366E+01 -3.68250398596E+02  3.68715481759E+02  0.00000000000E+00 0.00000000000E+00  1.
       21    1    1    2  504  502  2.07124766382E+01 -1.63591383763E+01 -1.29849906316E+01  2.94149295190E+01  0.00000000000E+00 0.00000000000E+00  1.
       25    2    1    2    0    0 -2.98485805419E+01  3.24613751129E+01 -1.22212351565E+01  1.33112873995E+02  1.25000000000E+02 0.00000000000E+00  1.
       24    2    5    5    0    0 -8.97112989410E+00  7.80553526594E+00 -6.90143585894E+00  5.36052962012E+01  5.18120682036E+01 0.00000000000E+00  1.
      -24    2    5    5    0    0 -2.08774506478E+01  2.46558398470E+01 -5.31979929756E+00  7.95075777938E+01  7.24525795122E+01 0.00000000000E+00  1.
      -15    1    6    6    0    0 -6.58427614868E+00  2.85098355937E+01  4.79861293187E+00  2.97043283427E+01  1.77680000000E+00 0.00000000000E+00  1.
       16    1    6    6    0    0 -2.38685374542E+00 -2.07043003278E+01 -1.17000487908E+01  2.39009678585E+01  3.48468999078E-07 0.00000000000E+00  1.
       -2    1    7    7    0  803 -2.21371304782E+01 -2.15000380351E+01  7.15698085865E+00  3.16784872797E+01  9.54321656931E-07 0.00000000000E+00  1.
        1    1    7    7  803    0  1.25967983041E+00  4.61558778821E+01 -1.24767801562E+01  4.78290905141E+01  6.96937998156E-07 0.00000000000E+00  1.
</event>
<event>
11  61   1.0000000E+00   1.2500000E+02   7.8125000E-03   1.2380861E-01
       21   -1    0    0  501  502  0.00000000000E+00  0.00000000000E+00  1.09463870489E+03  1.09463870489E+03  0.00000000000E+00 0.00000000000E+00  1.
       21   -1    0    0  503  501  0.00000000000E+00  0.00000000000E+00 -2.49836864552E+02  2.49836864552E+02  0.00000000000E+00 0.00000000000E+00  1.
       21    1    1    2  504  502  3.56420589332E+01 -5.97575922159E+00 -2.41871895248E+02  2.44556904982E+02  0.00000000000E+00 0.00000000000E+00  1.
       21    1    1    2  503  504 -2.72440419466E+01  3.14521452399E+01  2.25519987639E+02  2.29326710364E+02  0.00000000000E+00 0.00000000000E+00  1.
       25    2    1    2    0    0 -8.39801698656E+00 -2.54763860183E+01  8.61153747945E+02  8.70591954095E+02  1.25000000000E+02 0.00000000000E+00  1.
       24    2    5    5    0    0 -3.86539793758E+00 -5.31028584148E+00  4.67290591839E+02  4.74221455101E+02  8.05130475143E+01 0.00000000000E+00  1.
      -24    2    5    5    0    0 -4.53261904898E+00 -2.01661001768E+01  3.93863156106E+02  3.96370498994E+02  3.94229692325E+01 0.00000000000E+00  1.
      -15    1    6    6    0    0 -2.58762168480E+01  2.75794525452E+01  2.96402500140E+02  2.98810648921E+02  1.77680000001E+00 0.00000000000E+00  1.
       16    1    6    6    0    0  2.20108189105E+01 -3.28897383867E+01  1.70888091699E+02  1.75410806180E+02  2.10734242554E-06 0.00000000000E+00  1.
       -4    1    7    7    0  804 -1.71659771227E+01 -2.17516941934E+01  3.34978219233E+02  3.36124738685E+02  1.27500000001E+00 0.00000000000E+00  1.
        3    1    7    7  804    0  1.26333580737E+01  1.58559401662E+00  5.88849368733E+01  6.02457603087E+01  1.49011611938E-06 0.00000000000E+00  1.
</event>
<event>
11  61   1.0000000E+00   1.2500000E+02   7.8125000E-03   1.2380861E-01
       21   -1    0    0  501  502  0.00000000000E+00  0.00000000000E+00  5.52140324672E+02  5.52140324672E+02  0.00000000000E+00 0.00000000000E+00  1.
       21   -1    0    0  503  501  0.00000000000E+00  0.00000000000E+00 -1.54903573255E+01  1.54903573255E+01  0.00000000000E+00 0.00000000000E+00  1.
        1    1    1    2  503    0  2.15132238391E+01 -1.67413119413E+01  5.40921528040E+01  6.05726945120E+01  0.00000000000E+00 0.00000000000E+00  1.
       -1    1    1    2    0  502  1.38393159429E+01 -1.65849609826E+01  6.70694032800E+01  7.04619929672E+01  0.00000000000E+00 0.00000000000E+00  1.
       25    2    1    2    0    0 -3.53525397821E+01  3.33262729239E+01  4.15488411263E+02  4.36595994519E+02  1.25000000000E+02 0.00000000000E+00  1.
       24    2    5    5    0    0 -1.97229302460E+01  1.74474742859E+01  1.18138238191E+02  1.27376392415E+02  3.96824102756E+01 0.00000000000E+00  1.
      -24    2    5    5    0    0 -1.56296095361E+01  1.58787986380E+01  2.97350173072E+02  3.09219602104E+02  8.18731699588E+01 0.00000000000E+00  1.
       -3    1    6    6    0  804 -2.18265106269E+01  2.70201650555E+01  6.89483888125E+01  7.72034079923E+01  7.45058059692E-07 0.00000000000E+00  1.
        4    1    6    6  804    0  2.10358038084E+00 -9.57269076957E+00  4.91898493784E+01  5.01729844225E+01  1.27500000000E+00 0.00000000000E+00  1.
      -16    1    7    7    0    0  2.04403225416E+01 -2.36988785830E+00  2.28013931338E+02  2.28940551319E+02  4.21468485109E-06 0.00000000000E+00  1.
       15    1    7    7    0    0 -3.60699320776E+01  1.82486864963E+01  6.93362417337E+01  8.02790507849E+01  1.77680000000E+00 0.00000000000E+00  1.
</event>
<event>
11  61   1.0000000E+00   1.2500000E+02   7.8125000E-03   1.2380861E-01
       21   -1    0    0  501  502  0.00000000000E+00  0.00000000000E+00  1.69837979725E+03  1.69837979725E+03  0.00000000000E+00 0.00000000000E+00  1.
       21   -1    0    0  503  501  0.00000000000E+00  0.00000000000E+00 -1.52004412588E+02  1.52004412588E+02  0.00000000000E+00 0.00000000000E+00  1.
       21    1    1    2  504  502 -4.64908501278E+01 -1.45334697343E+02  3.39359837808E+01  1.56317703388E+02  0.00000000000E+00 0.00000000000E+00  1.
       21    1    1    2  503  504  6.49064831941E+00 -1.69675267372E+01  1.48318844991E+03  1.48329970115E+03  0.00000000000E+00 0.00000000000E+00  1.
       25    2    1    2    0    0  4.00002018084E+01  1.62302224080E+02  2.92509509762E+01  2.10766805306E+02  1.25000000000E+02 0.00000000000E+00  1.
       24    2    5    5    0    0  5.17469865814E+01  9.96225206954E+01  3.12925158905E+01  1.41807712640E+02  8.07948548076E+01 0.00000000000E+00  1.
      -24    2    5    5    0    0 -1.17467847730E+01  6.26797033846E+01 -2.04156491430E+00  6.89590926664E+01  2.61621158392E+01 0.00000000000E+00  1.
       -3    1    6    6    0  804  1.53522721515E+01  1.00003006602E+02  2.93109064673E+01  1.05334812990E+02  1.97123833825E-06 0.00000000000E+00  1.
        4    1    6    6  804    0  3.63947144298E+01 -3.80485906777E-01  1.98160942319E+00  3.64728996497E+01  1.27500000000E+00 0.00000000000E+00  1.
       -4    1    7    7    0  803 -1.27554946659E+01  6.00719787516E+01 -8.41601920616E+00  6.19983893306E+01  1.27500000000E+00 0.00000000000E+00  1.
        3    1    7    7  803    0  1.00870989297E+00  2.60772463302E+00  6.37445429186E+00  6.96070333579E+00  0.00000000000E+00 0.00000000000E+00  1.
</event>
<event>
11  61   1.0000000E+00   1.2500000E+02   7.8125000E-03   1.2380861E-01
       21   -1    0    0  501  502  0.00000000000E+00  0.00000000000E+00  7.77614886640E+01  7.77614886640E+01  0.00000000000E+00 0.00000000000E+00  1.
       21   -1    0    0  503  501  0.00000000000E+00  0.00000000000E+00 -9.29590795305E+02  9.29590795305E+02  0.00000000000E+00 0.00000000000E+00  1.
       21    1    1    2  504  502 -6.85592162880E+01 -1.34422768818E+02 -3.59318469489E+01  1.55115906792E+02  0.00000000000E+00 0.00000000000E+00  1.
       21    1    1    2  503  504 -2.35807553843E+01 -1.33602333427E+01 -4.96339408076E+01  5.65515334854E+01  0.00000000000E+00 0.00000000000E+00  1.
       25    2    1    2    0    0  9.21399716723E+01  1.47783002161E+02 -7.66263518885E+02  7.95684843692E+02  1.25000000000E+02 0.00000000000E+00  1.
      -24    2    5    5    0    0  4.58043925888E+01  5.82059063403E+01 -3.49432893033E+02  3.60009708010E+02  4.49185175025E+01 0.00000000000E+00  1.
       24    2    5    5    0    0  4.63355790835E+01  8.95770958207E+01 -4.16830625852E+02  4.35675135682E+02  7.67724639359E+01 0.00000000000E+00  1.
      -12    1    6    6    0    0  4.30155881200E+01  2.21681252866E+01 -2.37694902472E+02  2.42570882963E+02  4.21468485109E-06 0.00000000000E+00  1.
       11    1    6    6    0    0  2.78880446879E+00  3.60377810537E+01 -1.11737990561E+02  1.17438825047E+02  5.10994690391E-04 0.00000000000E+00  1.
       -1    1    7    7    0  803  5.02427421768E+01  5.44285897469E+01 -1.58728993693E+02  1.75161919269E+02  3.65002414999E-06 0.00000000000E+00  1.
        2    1    7    7  803    0 -3.90716309329E+00  3.51485060738E+01 -2.58101632159E+02  2.60513216413E+02  2.98023223877E-06 0.00000000000E+00  1.
</event>
<event>
11  61   1.0000000E+00   1.2500000E+02   7.8125000E-03   1.2380861E-01
       21   -1    0    0  502  501  0.00000000000E+00  0.00000000000E+00  3.11990276821E+01  3.11990276821E+01  0.00000000000E+00 0.00000000000E+00  1.
        2   -1    0    0  501    0  0.00000000000E+00  0.00000000000E+00 -1.84650159481E+03  1.84650159481E+03  0.00000000000E+00 0.00000000000E+00  1.
       21    1    1    2  502  503  1.56443342897E+01  1.18305590799E+01  4.78394446466E+00  2.01889437106E+01  0.00000000000E+00 0.00000000000E+00  1.
        2    1    1    2  503    0 -1.35742359612E+01 -7.05662200326E+00 -1.62924944015E+03  1.62932126790E+03  0.00000000000E+00 0.00000000000E+00  1.
       25    2    1    2    0    0 -2.07009832845E+00 -4.77393707664E+00 -1.90837071443E+02  2.28190410883E+02  1.25000000000E+02 0.00000000000E+00  1.
      -24    2    5    5    0    0 -1.51233729887E+01 -1.03406034330E+01 -6.05033428531E+01  7.51039307177E+01  4.05499867194E+01 0.00000000000E+00  1.
       24    2    5    5    0    0  1.30532746602E+01  5.56666635635E+00 -1.30333728590E+02  1.53086480165E+02  7.90393183647E+01 0.00000000000E+00  1.
      -14    1    6    6    0    0 -1.69414718587E+00  4.84232487663E+00 -5.33689523424E+01  5.36149542481E+01  1.05367121277E-06 0.00000000000E+00  1.
       13    1    6    6    0    0 -1.34292258028E+01 -1.51829283096E+01 -7.13439051063E+00  2.14889764696E+01  1.05660000000E-01 0.00000000000E+00  1.
      -13    1    7    7    0    0  1.30294519559E+01 -1.02213270592E+01  4.63539042499E+00  1.71970972420E+01  1.05660000000E-01 0.00000000000E+00  1.
       14    1    7    7    0    0  2.38227042988E-02  1.57879934155E+01 -1.34969119015E+02  1.35889382923E+02  0.00000000000E+00 0.00000000000E+00  1.
</event>
<event>
11  61   1.0000000E+00   1.2500000E+02   7.8125000E-03   1.2380861E-01
       21   -1    0    0  501  502  0.00000000000E+00  0.00000000000E+00  2.52221121189E+02  2.52221121189E+02  0.00000000000E+00 0.00000000000E+00  1.
       21   -1    0    0  503  501  0.00000000000E+00  0.00000000000E+00 -6.69707934233E+01  6.69707934233E+01  0.00000000000E+00 0.00000000000E+00  1.
       21    1    1    2  504  502 -1.86862053274E+01 -5.78258157990E+00  2.15472431195E+00  1.96788047433E+01  0.00000000000E+00 0.00000000000E+00  1.
       21    1    1    2  503  504  2.54901327522E+01  3.82840009346E+00  1.71890517476E+02  1.73812408974E+02  0.00000000000E+00 0.00000000000E+00  1.
       25    2    1    2    0    0 -6.80392742485E+00  1.95418148644E+00  1.12050859771E+01  1.25700700895E+02  1.25000000000E+02 0.00000000000E+00  1.
      -24    2    5    5    0    0  3.98409713065E-01  1.13623770139E+00  1.98927011732E+01  4.47466959569E+01  4.00636677387E+01 0.00000000000E+00  1.
       24    2    5    5    0    0 -7.20233713792E+00  8.17943785052E-01 -8.68761519607E+00  8.09540049381E+01  8.01594259301E+01 0.00000000000E+00  1.
       -2    1    6    6    0  804  1.48851182191E+01  1.37139405606E+01  6.17011019322E+00  2.11591391577E+01  3.29272253991E-07 0.00000000000E+00  1.
        1    1    6    6  804    0 -1.44867085060E+01 -1.25777028592E+01  1.37225909800E+01  2.35875567992E+01  2.63417803193E-07 0.00000000000E+00  1.
       -3    1    7    7    0  803 -1.99224993723E+01 -1.96282945579E+01 -3.53035386112E+01  4.50390471365E+01  6.45239206988E-07 0.00000000000E+00  1.
        4    1    7    7  803    0  1.27201622344E+01  2.04462383430E+01  2.66159234151E+01  3.59149578016E+01  1.27500000000E+00 0.00000000000E+00  1.
</event>
<event>
11  61   1.0000000E+00   1.2500000E+02   7.8125000E-03   1.2380861E-01
       -5   -1    0    0    0  501  0.00000000000E+00  0.00000000000E+00  1.77141907482E+02  1.77141907482E+02  0.00000000000E+00 0.00000000000E+00  1.
       21   -1    0    0  501  502  0.00000000000E+00  0.00000000000E+00 -1.40338622348E+03  1.40338622348E+03  0.00000000000E+00 0.00000000000E+00  1.
       21    1    1    2  503  502 -3.26486635481E+02 -5.40402279672E-01 -7.87732792588E+02  8.52711421115E+02  0.00000000000E+00 0.00000000000E+00  1.
       -5    1    1    2    0  503  6.07598604699E+00  2.13993857788E+01  9.23198026733E+01  9.49620834006E+01  0.00000000000E+00 0.00000000000E+00  1.
       25    2    1    2    0    0  3.20410649434E+02 -2.08589834992E+01 -5.30831326084E+02  6.32854626447E+02  1.25000000000E+02 0.00000000000E+00  1.
      -24    2    5    5    0    0  1.45756311674E+02  1.15752769917E+01 -2.15245332779E+02  2.62149981177E+02  3.18303301592E+01 0.00000000000E+00  1.
       24    2    5    5    0    0  1.74654337760E+02 -3.24342604909E+01 -3.15585993305E+02  3.70704645270E+02  7.91915140783E+01 0.00000000000E+00  1.
      -12    1    6    6    0    0  7.97766817937E+01 -6.26731237860E+00 -1.32920134265E+02  1.55149477136E+02  2.10734242554E-06 0.00000000000E+00  1.
       11    1    6    6    0    0  6.59796298802E+01  1.78425893703E+01 -8.23251985134E+01  1.07000504041E+02  5.11004467314E-04 0.00000000000E+00  1.
       -1    1    7    7    0  804  1.42897948362E+01 -2.72723559760E+01 -2.91881135340E+01  4.24255301513E+01  7.45058059692E-07 0.00000000000E+00  1.
        2    1    7    7  804    0  1.60364542924E+02 -5.16190451490E+00 -2.86397879771E+02  3.28279115118E+02  5.96046447754E-06 0.00000000000E+00  1.
</event>
<event>
11  61   1.0000000E+00   1.2500000E+02   7.8125000E-03   1.2380861E-01
       21   -1    0    0  501  502  0.00000000000E+00  0.00000000000E+00  1.06640714657E+03  1.06640714657E+03  0.00000000000E+00 0.00000000000E+00  1.
       21   -1    0    0  503  501  0.00000000000E+00  0.00000000000E+00 -1.24970088799E+01  1.24970088799E+01  0.00000000000E+00 0.00000000000E+00  1.
       21    1    1    2  503  504 -3.62877831012E-02 -1.59868131256E+01  1.02473044533E+02  1.03712604666E+02  0.00000000000E+00 0.00000000000E+00  1.
       21    1    1    2  504  502 -7.51155015538E+00  1.74267064410E+01  6.29017028886E+02  6.29303214764E+02  0.00000000000E+00 0.00000000000E+00  1.
       25    2    1    2    0    0  7.54783793848E+00 -1.43989331539E+00  3.22420064268E+02  3.45888336018E+02  1.25000000000E+02 0.00000000000E+00  1.
       24    2    5    5    0    0 -1.03877350835E+00  2.95941358830E+01  2.37644893153E+02  2.52820680382E+02  8.10327665723E+01 0.00000000000E+00  1.
      -24    2    5    5    0    0  8.58661144683E+00 -3.10340291984E+01  8.47751711152E+01  9.30676556356E+01  2.09264909496E+01 0.00000000000E+00  1.
       -1    1    6    6    0  803  2.05080782546E+01  4.33619289131E+01  2.08954760144E+02  2.14389668454E+02  0.00000000000E+00 0.00000000000E+00  1.
        2    1    6    6  803    0 -2.15468517629E+01 -1.37677930301E+01  2.86901330084E+01  3.84310119286E+01  6.45239206988E-07 0.00000000000E+00  1.
      -12    1    7    7    0    0 -5.05198841896E+00 -7.01896691583E+00  3.59230996250E+01  3.69493920142E+01  5.26835606386E-07 0.00000000000E+00  1.
       11    1    7    7    0    0  1.36385998658E+01 -2.40150622826E+01  4.88520714902E+01  5.61182636214E+01  5.10999307295E-04 0.00000000000E+00  1.
</event>
<event>
11  61   1.0000000E+00   1.2500000E+02   7.8125000E-03   1.2380861E-01
       21   -1    0    0  501  502  0.00000000000E+00  0.00000000000E+00  9.60085260663E+01  9.60085260663E+01  0.00000000000E+00 0.00000000000E+00  1.
       21   -1    0    0  503  501  0.00000000000E+00  0.00000000000E+00 -3.32773830121E+02  3.32773830121E+02  0.00000000000E+00 0.00000000000E+00  1.
       21    1    1    2  503  504 -6.68966729389E+01  1.25758372685E+01 -1.12247322442E+01  6.89877608511E+01  0.00000000000E+00 0.00000000000E+00  1.
       21    1    1    2  504  502 -2.96886581441E+00 -2.19670619554E+01 -2.14740240606E+02  2.15881302828E+02  0.00000000000E+00 0.00000000000E+00  1.
       25    2    1    2    0    0  6.98655387533E+01  9.39122468686E+00 -1.08003312045E+01  1.43913292508E+02  1.25000000000E+02 0.00000000000E+00  1.
      -24    2    5    5    0    0  4.44748813382E+01 -9.89750013801E-02 -1.00410928816E+01  9.21243613416E+01  8.00502938174E+01 0.00000000000E+00  1.
       24    2    5    5    0    0  2.53906574151E+01  9.49019968824E+00 -7.59238322889E-01  5.17889311664E+01  4.41221891391E+01 0.00000000000E+00  1.
       -2    1    6    6    0  803  4.33491831832E+01  1.06991438490E+01 -4.01940351925E+01  6.00764831428E+01  0.00000000000E+00 0.00000000000E+00  1.
        1    1    6    6  803    0  1.12569815496E+00 -1.07981188504E+01  3.01529423109E+01  3.20478781988E+01  6.45239206988E-07 0.00000000000E+00  1.
       -1    1    7    7    0  804  3.92350920508E+00  2.21255344568E+00  2.03332053595E+01  2.08261508067E+01  3.72529029846E-07 0.00000000000E+00  1.
        2    1    7    7  804    0  2.14671482100E+01  7.27764624256E+00 -2.10924436824E+01  3.09627803596E+01  3.72529029846E-07 0.00000000000E+00  1.
</event>
<event>
11  61   1.0000000E+00   1.2500000E+02   7.8125000E-03   1.2380861E-01
       21   -1    0    0  501  502  0.00000000000E+00  0.00000000000E+00  3.47466192629E+02  3.47466192629E+02  0.00000000000E+00 0.00000000000E+00  1.
       21   -1    0    0  503  501  0.00000000000E+00  0.00000000000E+00 -1.35917825044E+02  1.35917825044E+02  0.00000000000E+00 0.00000000000E+00  1.
       21    1    1    2  503  504  2.24771084513E+01  4.95498365975E-01  3.97694174677E+00  2.28316006583E+01  0.00000000000E+00 0.00000000000E+00  1.
       21    1    1    2  504  502  5.00711511825E+01 -1.56558712861E+02  1.47516485146E+00  1.64377391587E+02  0.00000000000E+00 0.00000000000E+00  1.
       25    2    1    2    0    0 -7.25482596338E+01  1.56063214495E+02  2.06096260986E+02  2.96175025428E+02  1.25000000000E+02 0.00000000000E+00  1.
       24    2    5    5    0    0 -4.17671060481E+01  9.56843032289E+01  1.66280683201E+02  2.11564280286E+02  7.88048352253E+01 0.00000000000E+00  1.
      -24    2    5    5    0    0 -3.07811535857E+01  6.03789112661E+01  3.98155777848E+01  8.46107451423E+01  3.13146230611E+01 0.00000000000E+00  1.
       -1    1    6    6    0  803 -3.25943409238E+01  5.18571140644E+00  1.79655398400E+01  3.75771644060E+01  2.63417803193E-07 0.00000000000E+00  1.
        2    1    6    6  803    0 -9.17276512424E+00  9.04985918225E+01  1.48315143361E+02  1.73987115880E+02  2.98023223877E-06 0.00000000000E+00  1.
      -14    1    7    7    0    0 -2.38593344987E+01  6.06494144890E+01  4.17726490432E+01  7.74117144150E+01  1.05367121277E-06 0.00000000000E+00  1.
       13    1    7    7    0    0 -6.92181908699E+00 -2.70503222964E-01 -1.95707125842E+00  7.19903072732E+00  1.05660000000E-01 0.00000000000E+00  1.
</event>
<event>
11  61   1.0000000E+00   1.2500000E+02   7.8125000E-03   1.2380861E-01
       21   -1    0    0  501  502  0.00000000000E+00  0.00000000000E+00  9.03668958880E+01  9.03668958880E+01  0.00000000000E+00 0.00000000000E+00  1.
       21   -1    0    0  503  501  0.00000000000E+00  0.00000000000E+00 -7.99694667879E+02  7.99694667879E+02  0.00000000000E+00 0.00000000000E+00  1.
       21    1    1    2  504  502  1.39916657124E+02  3.25820880530E+01 -6.24052389618E+02  6.40374615667E+02  0.00000000000E+00 0.00000000000E+00  1.
       21    1    1    2  503  504  1.66380861947E+01  7.57259118620E+00  1.35180158338E+01  2.27355844785E+01  0.00000000000E+00 0.00000000000E+00  1.
       25    2    1    2    0    0 -1.56554743319E+02 -4.01546792392E+01 -9.87933982073E+01  2.26951363622E+02  1.25000000000E+02 0.00000000000E+00  1.
       24    2    5    5    0    0 -9.79510671540E+01 -2.14299388832E+01 -1.01438582188E+02  1.58395673487E+02  6.88894011135E+01 0.00000000000E+00  1.
      -24    2    5    5    0    0 -5.86036761650E+01 -1.87247403560E+01  2.64518398080E+00  6.85556901355E+01  3.01310286948E+01 0.00000000000E+00  1.
       -3    1    6    6    0  804 -5.44162073321E+01  1.43697885680E+01 -2.07806040646E+01  5.99953994002E+01  1.29047841398E-06 0.00000000000E+00  1.
        2    1    6    6  804    0 -4.35348598219E+01 -3.57997274512E+01 -8.06579781235E+01  9.84002740863E+01  2.10734242554E-06 0.00000000000E+00  1.
       -4    1    7    7    0  803 -3.99448431752E+01  2.71864342372E+00  6.85926686326E-01  4.00634202082E+01  1.27500000000E+00 0.00000000000E+00  1.
        3    1    7    7  803    0 -1.86588329898E+01 -2.14433837797E+01  1.95925729447E+00  2.84922699273E+01  5.44047050436E-07 0.00000000000E+00  1.
</event>
<event>
11  61   1.0000000E+00   1.2500000E+02   7.8125000E-03   1.2380861E-01
       -2   -1    0    0    0  501  0.00000000000E+00  0.00000000000E+00  9.09111651823E+02  9.09111651823E+02  0.00000000000E+00 0.00000000000E+00  1.
       21   -1    0    0  501  502  0.00000000000E+00  0.00000000000E+00 -2.51971244125E+02  2.51971244125E+02  0.00000000000E+00 0.00000000000E+00  1.
       21    1    1    2  503  502  3.28605656233E+01 -1.36815031385E+01  4.93040434105E+02  4.94323649003E+02  0.00000000000E+00 0.00000000000E+00  1.
       -2    1    1    2    0  503  4.81028256572E+01 -4.58432339381E+00  3.91416163268E+02  3.94387513398E+02  0.00000000000E+00 0.00000000000E+00  1.
       25    2    1    2    0    0 -8.09633912805E+01  1.82658265324E+01 -2.27316189675E+02  2.72371733546E+02  1.25000000000E+02 0.00000000000E+00  1.
       24    2    5    5    0    0 -4.36981952287E+01 -1.28314430114E+01 -1.57073049827E+02  1.82195803608E+02  8.03068469970E+01 0.00000000000E+00  1.
      -24    2    5    5    0    0 -3.72651960518E+01  3.10972695438E+01 -7.02431398483E+01  9.01759299377E+01  2.90149036622E+01 0.00000000000E+00  1.
       -3    1    6    6    0  803 -6.05413752481E+01 -6.56204404259E+00 -1.51587644513E+02  1.63361967752E+02  2.10734242554E-06 0.00000000000E+00  1.
        4    1    6    6  803    0  1.68431800193E+01 -6.26939896883E+00 -5.48540531386E+00  1.88338358560E+01  1.27500000000E+00 0.00000000000E+00  1.
       -2    1    7    7    0  804 -3.14611213695E+01  3.46694867422E+01 -4.85840231960E+01  6.74698657084E+01  1.05367121277E-06 0.00000000000E+00  1.
        1    1    7    7  804    0 -5.80407468227E+00 -3.57221719838E+00 -2.16591166523E+01  2.27060642293E+01  2.63417803193E-07 0.00000000000E+00  1.
</event>
<event>
11  61   1.0000000E+00   1.2500000E+02   7.8125000E-03   1.2380861E-01
       21   -1    0    0  501  502  0.00000000000E+00  0.00000000000E+00  9.61825934076E+01  9.61825934076E+01  0.00000000000E+00 0.00000000000E+00  1.
       21   -1    0    0  503  501  0.00000000000E+00  0.00000000000E+00 -2.98259760299E+02  2.98259760299E+02  0.00000000000E+00 0.00000000000E+00  1.
       21    1    1    2  504  502 -3.30670218162E+00  8.18939883871E+01 -1.23148271884E+02  1.47929227948E+02  0.00000000000E+00 0.00000000000E+00  1.
       21    1    1    2  503  504 -1.24589408020E+01  1.84895200362E+01  4.03288953034E+01  4.60815294176E+01  0.00000000000E+00 0.00000000000E+00  1.
       25    2    1    2    0    0  1.57656429836E+01 -1.00383508423E+02 -1.19257790312E+02  2.00431596342E+02  1.25000000000E+02 0.00000000000E+00  1.
      -24    2    5    5    0    0 -1.22546473380E+01 -5.29725156545E+01 -7.19619240609E+01  9.24031333710E+01  2.00887218630E+01 0.00000000000E+00  1.
       24    2    5    5    0    0  2.80202903216E+01 -4.74109927685E+01 -4.72958662511E+01  1.08028462971E+02  8.00019433666E+01 0.00000000000E+00  1.
       -2    1    6    6    0  804 -4.90930623279E+00 -8.07910017395E+00 -3.24874215651E+00  9.99637298761E+00  1.14063254687E-07 0.00000000000E+00  1.
        1    1    6    6  804    0 -7.34534110522E+00 -4.48934154806E+01 -6.87131819044E+01  8.24067603834E+01  7.45058059692E-07 0.00000000000E+00  1.
      -15    1    7    7    0    0 -1.36006731209E+01 -8.46371956637E-01 -4.33200227561E+01  4.54475086739E+01  1.77680000000E+00 0.00000000000E+00  1.
       16    1    7    7    0    0  4.16209634426E+01 -4.65646208118E+01 -3.97584349497E+00  6.25809542971E+01  8.63673025323E-07 0.00000000000E+00  1.
</event>
<event>
11  61   1.0000000E+00   1.2500000E+02   7.8125000E-03   1.2380861E-01
       21   -1    0    0  501  502  0.00000000000E+00  0.00000000000E+00  6.47642843629E+01  6.47642843629E+01  0.00000000000E+00 0.00000000000E+00  1.
       21   -1    0    0  503  501  0.00000000000E+00  0.00000000000E+00 -2.21115708755E+02  2.21115708755E+02  0.00000000000E+00 0.00000000000E+00  1.
       21    1    1    2  503  504  9.34734218860E+00  2.06500717656E+01  1.47199647376E+00  2.27148639339E+01  0.00000000000E+00 0.00000000000E+00  1.
       21    1    1    2  504  502  5.21735269806E+01 -3.22350106258E+01 -1.46404641143E+01  6.30516932138E+01  0.00000000000E+00 0.00000000000E+00  1.
       25    2    1    2    0    0 -6.15208691692E+01  1.15849388602E+01 -1.43182956752E+02  2.00113435971E+02  1.25000000000E+02 0.00000000000E+00  1.
      -24    2    5    5    0    0 -6.27196435611E+00  1.87627010619E+01 -2.51432446798E+01  4.70051391718E+01  3.44372453531E+01 0.00000000000E+00  1.
       24    2    5    5    0    0 -5.52489048131E+01 -7.17776220165E+00 -1.18039712072E+02  1.53108296799E+02  8.00300891503E+01 0.00000000000E+00  1.
      -16    1    6    6    0    0 -3.61769556046E-01  5.79610205484E+00  8.57488618491E+00  1.03563675739E+01  4.92809584563E-07 0.00000000000E+00  1.
       15    1    6    6    0    0 -5.91019480006E+00  1.29665990070E+01 -3.37181308647E+01  3.66487715979E+01  1.77680000000E+00 0.00000000000E+00  1.
      -11    1    7    7    0    0 -3.70274781142E+01  2.18088868376E+01 -1.09775563425E+02  1.17886962833E+02  5.10996863057E-04 0.00000000000E+00  1.
       12    1    7    7    0    0 -1.82214266989E+01 -2.89866490393E+01 -8.26414864755E+00  3.52213339660E+01  2.08250058582E-07 0.00000000000E+00  1.
</event>
<event>
11  61   1.0000000E+00   1.2500000E+02   7.8125000E-03   1.2380861E-01
        5   -1    0    0  501    0  0.00000000000E+00  0.00000000000E+00  6.72989213435E+01  6.72989213435E+01  0.00000000000E+00 0.00000000000E+00  1.
       21   -1    0    0  502  501  0.00000000000E+00  0.00000000000E+00 -3.08645188783E+02  3.08645188783E+02  0.00000000000E+00 0.00000000000E+00  1.
       21    1    1    2  502  503 -1.46974500718E+01 -4.27340204664E+00 -5.54383416952E+01  5.75124919785E+01  0.00000000000E+00 0.00000000000E+00  1.
        5    1    1    2  503    0 -4.50562448057E+01  3.29612465754E+01  2.76178833478E+01  6.22836772551E+01  0.00000000000E+00 0.00000000000E+00  1.
       25    2    1    2    0    0  5.97536948775E+01 -2.86878445288E+01 -2.13525809092E+02  2.56147940893E+02  1.25000000000E+02 0.00000000000E+00  1.
       24    2    5    5    0    0  5.29165305795E+00 -1.79321513667E+01 -8.64624929354E+01  9.46823198479E+01  3.37552271872E+01 0.00000000000E+00  1.
      -24    2    5    5    0    0  5.44620418196E+01 -1.07556931621E+01 -1.27063316157E+02  1.61465621045E+02  8.27300521710E+01 0.00000000000E+00  1.
       -1    1    6    6    0  803  7.62971728019E+00 -1.66501550395E+01 -1.64816674754E+01  2.46391073577E+01  0.00000000000E+00 0.00000000000E+00  1.
        4    1    6    6  803    0 -2.33806422224E+00 -1.28199632721E+00 -6.99808254600E+01  7.00432124902E+01  1.27500000000E+00 0.00000000000E+00  1.
      -16    1    7    7    0    0  3.05891804684E+01 -1.63885134550E+01 -1.31911288256E+02  1.36399667537E+02  0.00000000000E+00 0.00000000000E+00  1.
       15    1    7    7    0    0  2.38728613511E+01  5.63282029292E+00  4.84797209909E+00  2.50659535078E+01  1.77680000000E+00 0.00000000000E+00  1.
</event>
<event>
11  61   1.0000000E+00   1.2500000E+02   7.8125000E-03   1.2380861E-01
       21   -1    0    0  501  502  0.00000000000E+00  0.00000000000E+00  8.17544909154E+01  8.17544909154E+01  0.00000000000E+00 0.00000000000E+00  1.
       21   -1    0    0  503  501  0.00000000000E+00  0.00000000000E+00 -4.21286865154E+02  4.21286865154E+02  0.00000000000E+00 0.00000000000E+00  1.
        1    1    1    2  503    0 -8.13672063139E+01  1.71128450683E+01 -1.92789712381E+02  2.09955578468E+02  0.00000000000E+00 0.00000000000E+00  1.
       -1    1    1    2    0  502 -1.23843519613E+01  6.65635422528E+01 -8.36555339844E+00  6.82206699938E+01  0.00000000000E+00 0.00000000000E+00  1.
       25    2    1    2    0    0  9.37515582753E+01 -8.36763873211E+01 -1.38377108459E+02  2.24865107608E+02  1.25000000000E+02 0.00000000000E+00  1.
       24    2    5    5    0    0  6.92462413542E+01 -5.70648152473E+01 -9.41934517181E+01  1.52475561015E+02  7.95295874456E+01 0.00000000000E+00  1.
      -24    2    5    5    0    0  2.45053169211E+01 -2.66115720738E+01 -4.41836567409E+01  7.23895465934E+01  4.44900506558E+01 0.00000000000E+00  1.
       -1    1    6    6    0  803  6.61965335370E+01 -3.48320384970E+01 -1.03900068717E+02  1.28025295303E+02  0.00000000000E+00 0.00000000000E+00  1.
        2    1    6    6  803    0  3.04970781720E+00 -2.22327767503E+01  9.70661699856E+00  2.44502657113E+01  2.63417803193E-07 0.00000000000E+00  1.
       -2    1    7    7    0  804  2.10721895231E+01 -2.38242689710E+01 -4.10768031259E+00  3.20703289795E+01  5.39041911382E-07 0.00000000000E+00  1.
        1    1    7    7  804    0  3.43312739804E+00 -2.78730310284E+00 -4.00759764283E+01  4.03192176139E+01  9.12506037497E-07 0.00000000000E+00  1.
</event>
<event>
11  61   1.0000000E+00   1.2500000E+02   7.8125000E-03   1.2380861E-01
       21   -1    0    0  501  502  0.00000000000E+00  0.00000000000E+00  7.26517509487E+01  7.26517509487E+01  0.00000000000E+00 0.00000000000E+00  1.
       21   -1    0    0  503  501  0.00000000000E+00  0.00000000000E+00 -4.97011664667E+02  4.97011664667E+02  0.00000000000E+00 0.00000000000E+00  1.
       21    1    1    2  504  502  2.15069556205E+01 -1.37285153991E+00  4.47044936813E+01  4.96278713700E+01  0.00000000000E+00 0.00000000000E+00  1.
       21    1    1    2  503  504 -5.56770328880E+00 -3.29650947725E+01 -3.17768035248E-01  3.34334827650E+01  0.00000000000E+00 0.00000000000E+00  1.
       25    2    1    2    0    0 -1.59392523317E+01  3.43379463125E+01 -4.68746639365E+02  4.86602061481E+02  1.25000000000E+02 0.00000000000E+00  1.
       24    2    5    5    0    0  1.46382680203E+01  8.80285889936E+00 -2.75165239361E+02  2.87423294749E+02  8.12679038495E+01 0.00000000000E+00  1.
      -24    2    5    5    0    0 -3.05775203520E+01  2.55350874131E+01 -1.93581400004E+02  1.99178766732E+02  2.47264483795E+01 0.00000000000E+00  1.
       -3    1    6    6    0  803 -2.32745492046E+01  3.07702496291E+01 -1.11357243425E+02  1.17851383386E+02  2.58095682795E-06 0.00000000000E+00  1.
        4    1    6    6  803    0  3.79128172249E+01 -2.19673907297E+01 -1.63807995936E+02  1.69571911362E+02  1.27500000000E+00 0.00000000000E+00  1.
       -2    1    7    7    0  804 -8.90359149171E-01 -2.37835596811E+00 -4.61437346964E+01  4.62135647646E+01  5.26835606386E-07 0.00000000000E+00  1.
        1    1    7    7  804    0 -2.96871612029E+01  2.79134433812E+01 -1.47437665308E+02  1.52965201968E+02  0.00000000000E+00 0.00000000000E+00  1.
</event>
<event>
11  61   1.0000000E+00   1.2500000E+02   7.8125000E-03   1.2380861E-01
       21   -1    0    0  501  502  0.00000000000E+00  0.00000000000E+00  1.90816458469E+01  1.90816458469E+01  0.00000000000E+00 0.00000000000E+00  1.
       21   -1    0    0  503  501  0.00000000000E+00  0.00000000000E+00 -6.58288477400E+02  6.58288477400E+02  0.00000000000E+00 0.00000000000E+00  1.
       21    1    1    2  503  504 -1.69808689207E+01 -2.18004038765E+01 -7.15675202037E+01  7.67171262926E+01  0.00000000000E+00 0.00000000000E+00  1.
       21    1    1    2  504  502  6.12635218354E+01 -8.99960598921E-02 -2.02369897628E+02  2.11439832276E+02  0.00000000000E+00 0.00000000000E+00  1.
       25    2    1    2    0    0 -4.42826529147E+01  2.18903999364E+01 -3.65269413721E+02  3.89213164678E+02  1.25000000000E+02 0.00000000000E+00  1.
      -24    2    5    5    0    0  1.84956249845E+00  2.27798796917E+01 -1.24695535572E+02  1.38291212161E+02  5.52552166689E+01 0.00000000000E+00  1.
       24    2    5    5    0    0 -4.61322154131E+01 -8.89479755267E-01 -2.40573878149E+02  2.50921952517E+02  5.43788831645E+01 0.00000000000E+00  1.
       -4    1    6    6    0  803 -2.37820860177E+01  1.26501628947E+01 -3.34086456871E+01  4.29345719469E+01  1.27500000000E+00 0.00000000000E+00  1.
        3    1    6    6  803    0  2.56316485161E+01  1.01297167970E+01 -9.12868898853E+01  9.53566402143E+01  2.10734242554E-06 0.00000000000E+00  1.
       -1    1    7    7    0  804 -1.70483287371E+01 -2.44468220311E+01 -1.49775859640E+02  1.52712477392E+02  2.10734242554E-06 0.00000000000E+00  1.
        2    1    7    7  804    0 -2.90838866761E+01  2.35573422759E+01 -9.07980185082E+01  9.82094751248E+01  1.49011611938E-06 0.00000000000E+00  1.
</event>
<event>
11  61   1.0000000E+00   1.2500000E+02   7.8125000E-03   1.2380861E-01
       21   -1    0    0  501  502  0.00000000000E+00  0.00000000000E+00  1.72650299868E+02  1.72650299868E+02  0.00000000000E+00 0.00000000000E+00  1.
       21   -1    0    0  503  501  0.00000000000E+00  0.00000000000E+00 -3.14734483288E+02  3.14734483288E+02  0.00000000000E+00 0.00000000000E+00  1.
       21    1    1    2  503  504  1.15145684123E+01 -1.26055766083E+01 -1.14363975598E+02  1.15631331230E+02  0.00000000000E+00 0.00000000000E+00  1.
       21    1    1    2  504  502 -1.76923569824E+00 -3.91752550629E+01 -1.70415791869E+02  1.74869588330E+02  0.00000000000E+00 0.00000000000E+00  1.
       25    2    1    2    0    0 -9.74533271410E+00  5.17808316712E+01  1.42695584047E+02  1.96883863597E+02  1.25000000000E+02 0.00000000000E+00  1.
       24    2    5    5    0    0 -2.39809443130E+01  2.35975951655E+01  5.74535173550E+01  7.74091236248E+01  3.94883979944E+01 0.00000000000E+00  1.
      -24    2    5    5    0    0  1.42356115989E+01  2.81832365057E+01  8.52420666920E+01  1.19474739972E+02  7.75310008962E+01 0.00000000000E+00  1.
       -1    1    6    6    0  804 -2.84077056968E+01  1.35855809333E+00  3.84401899521E+01  4.78172733079E+01  5.26835606386E-07 0.00000000000E+00  1.
        2    1    6    6  804    0  4.42676138385E+00  2.22390370722E+01  1.90133274029E+01  2.95918503169E+01  5.89020114423E-07 0.00000000000E+00  1.
       -4    1    7    7    0  803  3.81507907981E+01  3.69841304727E+01  7.51945594614E+01  9.20823335007E+01  1.27500000000E+00 0.00000000000E+00  1.
        3    1    7    7  803    0 -2.39151791992E+01 -8.80089396703E+00  1.00475072306E+01  2.73924064715E+01  6.45239206988E-07 0.00000000000E+00  1.
</event>
<event>
11  61   1.0000000E+00   1.2500000E+02   7.8125000E-03   1.2380861E-01
       -3   -1    0    0    0  501  0.00000000000E+00  0.00000000000E+00  3.78925897836E+02  3.78925897836E+02  0.00000000000E+00 0.00000000000E+00  1.
       21   -1    0    0  501  502  0.00000000000E+00  0.00000000000E+00 -2.50536298531E+02  2.50536298531E+02  0.00000000000E+00 0.00000000000E+00  1.
       21    1    1    2  503  502  1.68697037443E+01  1.60069516586E+00  1.39103962908E+01  2.19236916235E+01  0.00000000000E+00 0.00000000000E+00  1.
       -3    1    1    2    0  503  2.56774620662E+02  8.42562804127E+01  1.17465819362E+02  2.94670231485E+02  0.00000000000E+00 0.00000000000E+00  1.
       25    2    1    2    0    0 -2.73644324406E+02 -8.58569755786E+01 -2.98661634820E+00  3.12868273259E+02  1.25000000000E+02 0.00000000000E+00  1.
       24    2    5    5    0    0 -7.26369127261E+01 -6.44462366438E+00 -2.54132653719E+01  8.16348280658E+01  2.64718120256E+01 0.00000000000E+00  1.
      -24    2    5    5    0    0 -2.01007411680E+02 -7.94123519142E+01  2.24266490237E+01  2.31233445193E+02  7.90926697152E+01 0.00000000000E+00  1.
      -15    1    6    6    0    0 -5.49326063989E+01 -1.30192613707E+01 -1.02269203801E+01  5.74006910335E+01  1.77680000000E+00 0.00000000000E+00  1.
       16    1    6    6    0    0 -1.77043063271E+01  6.57463770628E+00 -1.51863449917E+01  2.42341370323E+01  4.92809584563E-07 0.00000000000E+00  1.
       -2    1    7    7    0  803 -2.71823565058E+01 -3.78275147390E+01 -1.43852001385E+01  4.87517728863E+01  8.11908197317E-07 0.00000000000E+00  1.
        1    1    7    7  803    0 -1.73825055174E+02 -4.15848371753E+01  3.68118491621E+01  1.82481672307E+02  2.35608045769E-06 0.00000000000E+00  1.
</event>
<event>
11  61   1.0000000E+00   1.2500000E+02   7.8125000E-03   1.2380861E-01
       21   -1    0    0  501  502  0.00000000000E+00  0.00000000000E+00  2.64309941964E+02  2.64309941964E+02  0.00000000000E+00 0.00000000000E+00  1.
       21   -1    0    0  503  501  0.00000000000E+00  0.00000000000E+00 -5.63656420767E+02  5.63656420767E+02  0.00000000000E+00 0.00000000000E+00  1.
       21    1    1    2  504  502  5.88243943219E+01 -7.57186846860E+01 -1.40160396647E+02  1.69819213772E+02  0.00000000000E+00 0.00000000000E+00  1.
       21    1    1    2  503  504  1.68150946043E+01  3.05925676384E+01  2.33835055339E+02  2.36426491127E+02  0.00000000000E+00 0.00000000000E+00  1.
       25    2    1    2    0    0 -7.56394889262E+01  4.51261170476E+01 -3.93021137495E+02  4.21720657832E+02  1.25000000000E+02 0.00000000000E+00  1.
       24    2    5    5    0    0 -4.87420965241E+01  3.44394059264E+01 -2.86979958347E+02  3.03851631500E+02  8.00403199556E+01 0.00000000000E+00  1.
      -24    2    5    5    0    0 -2.68973924021E+01  1.06867111212E+01 -1.06041179148E+02  1.17869026332E+02  4.25523228578E+01 0.00000000000E+00  1.
       -1    1    6    6    0  804  1.04069339554E+00 -2.33868145286E+01 -6.10432613685E+01  6.53781759844E+01  1.29047841398E-06 0.00000000000E+00  1.
        2    1    6    6  804    0 -4.97827899196E+01  5.78262204550E+01 -2.25936696978E+02  2.38473455516E+02  4.21468485109E-06 0.00000000000E+00  1.
      -16    1    7    7    0    0 -2.39238285625E+01  2.59010883975E+01 -8.13240054223E+01  8.86386473903E+01  0.00000000000E+00 0.00000000000E+00  1.
       15    1    7    7    0    0 -2.97356383962E+00 -1.52143772763E+01 -2.47171737258E+01  2.92303789412E+01  1.77680000000E+00 0.00000000000E+00  1.
</event>
<event>
11  61   1.0000000E+00   1.2500000E+02   7.8125000E-03   1.2380861E-01
       21   -1    0    0  501  502  0.00000000000E+00  0.00000000000E+00  6.97128310572E+02  6.97128310572E+02  0.00000000000E+00 0.00000000000E+00  1.
       21   -1    0    0  503  501  0.00000000000E+00  0.00000000000E+00 -2.73038440325E+01  2.73038440325E+01  0.00000000000E+00 0.00000000000E+00  1.
       21    1    1    2  504  502  8.35261410624E+00  3.31431558860E+01  2.51834083506E+02  2.54142953001E+02  0.00000000000E+00 0.00000000000E+00  1.
       21    1    1    2  503  504  2.33380234578E+01  1.66927830073E+01 -1.37217742226E+00  2.87262112769E+01  0.00000000000E+00 0.00000000000E+00  1.
       25    2    1    2    0    0 -3.16906375641E+01 -4.98359388933E+01  4.19362560456E+02  4.41562990327E+02  1.25000000000E+02 0.00000000000E+00  1.
      -24    2    5    5    0    0  1.28611337876E+00 -1.88192618624E+01  2.04085097917E+02  2.19906110064E+02  7.97003848618E+01 0.00000000000E+00  1.
       24    2    5    5    0    0 -3.29767509429E+01 -3.10166770309E+01  2.15277462539E+02  2.21656880263E+02  2.71640632787E+01 0.00000000000E+00  1.
       -2    1    6    6    0  804 -1.48685721317E+01  2.37702576536E+01  3.52845827229E+01  4.50677419457E+01  6.45239206988E-07 0.00000000000E+00  1.
        1    1    6    6  804    0  1.61546855105E+01 -4.25895195160E+01  1.68800515194E+02  1.74838368118E+02  2.98023223877E-06 0.00000000000E+00  1.
       -3    1    7    7    0  803 -1.27100426399E+01 -2.66648415907E+01  1.57837324709E+02  1.60577644871E+02  2.98023223877E-06 0.00000000000E+00  1.
        4    1    7    7  803    0 -2.02667083030E+01 -4.35183544021E+00  5.74401378303E+01  6.10792353922E+01  1.27500000000E+00 0.00000000000E+00  1.
</event>
<event>
11  61   1.0000000E+00   1.2500000E+02   7.8125000E-03   1.2380861E-01
       21   -1    0    0  501  502  0.00000000000E+00  0.00000000000E+00  4.16017424001E+02  4.16017424001E+02  0.00000000000E+00 0.00000000000E+00  1.
       21   -1    0    0  503  501  0.00000000000E+00  0.00000000000E+00 -3.12359399671E+02  3.12359399671E+02  0.00000000000E+00 0.00000000000E+00  1.
       21    1    1    2  503  504  2.76674476337E+01 -6.71594184854E+00  3.91198683894E+02  3.92233351226E+02  0.00000000000E+00 0.00000000000E+00  1.
       21    1    1    2  504  502 -8.03560535207E+00 -2.17503501047E+01 -2.92541163262E+00  2.33710657923E+01  0.00000000000E+00 0.00000000000E+00  1.
       25    2    1    2    0    0 -1.96318422816E+01  2.84662919532E+01 -2.84615247932E+02  3.12772406654E+02  1.25000000000E+02 0.00000000000E+00  1.
       24    2    5    5    0    0 -9.30660898457E+00  8.70134716054E+00 -8.62695503178E+01  9.77539389748E+01  4.41709277676E+01 0.00000000000E+00  1.
      -24    2    5    5    0    0 -1.03252332970E+01  1.97649447927E+01 -1.98345697614E+02  2.15018467679E+02  7.99666317645E+01 0.00000000000E+00  1.
       -3    1    6    6    0  803 -2.41233234085E+01  1.03339186146E+01 -3.16118205935E+01  4.10856642570E+01  6.45239206988E-07 0.00000000000E+00  1.
        4    1    6    6  803    0  1.48167144239E+01 -1.63257145403E+00 -5.46577297243E+01  5.66682747178E+01  1.27500000000E+00 0.00000000000E+00  1.
       -2    1    7    7    0  804 -1.86033894168E+01 -2.44183960598E+01 -1.27276259592E+02  1.30925896673E+02  1.49011611938E-06 0.00000000000E+00  1.
        1    1    7    7  804    0  8.27815611973E+00  4.41833408524E+01 -7.10694380220E+01  8.40925710060E+01  1.05367121277E-06 0.00000000000E+00  1.
</event>
<event>
11  61   1.0000000E+00   1.2500000E+02   7.8125000E-03   1.2380861E-01
       21   -1    0    0  501  502  0.00000000000E+00  0.00000000000E+00  3.98816184312E+02  3.98816184312E+02  0.00000000000E+00 0.00000000000E+00  1.
       21   -1    0    0  503  501  0.00000000000E+00  0.00000000000E+00 -1.45048187988E+02  1.45048187988E+02  0.00000000000E+00 0.00000000000E+00  1.
       21    1    1    2  504  502  4.49926496419E+01 -6.01113577594E+01  2.46128486277E+01  7.90158602500E+01  0.00000000000E+00 0.00000000000E+00  1.
       21    1    1    2  503  504  5.00036201538E+01 -5.72135931423E+01 -7.25577424382E+01  1.05063710464E+02  0.00000000000E+00 0.00000000000E+00  1.
       25    2    1    2    0    0 -9.49962697957E+01  1.17324950902E+02  3.01712890135E+02  3.59784801586E+02  1.25000000000E+02 0.00000000000E+00  1.
       24    2    5    5    0    0 -1.92731151213E+01  3.61043515482E+01  1.21626042796E+02  1.34706659486E+02  4.09635527811E+01 0.00000000000E+00  1.
      -24    2    5    5    0    0 -7.57231546744E+01  8.12205993538E+01  1.80086847339E+02  2.25078142100E+02  7.67991897971E+01 0.00000000000E+00  1.
       -3    1    6    6    0  803 -2.96725017089E+01  3.69321378425E+01  9.81663886561E+01  1.09000367087E+02  1.49011611938E-06 0.00000000000E+00  1.
        4    1    6    6  803    0  1.03993865876E+01 -8.27786294247E-01  2.34596541397E+01  2.57062923989E+01  1.27500000000E+00 0.00000000000E+00  1.
      -12    1    7    7    0    0  8.23938140425E+00  3.14652080557E+01  2.19188391772E+01  3.92222160872E+01  5.26835606386E-07 0.00000000000E+00  1.
       11    1    7    7    0    0 -8.39625360786E+01  4.97553912981E+01  1.58168008162E+02  1.85855926013E+02  5.11003380998E-04 0.00000000000E+00  1.
</event>
<event>
11  61   1.0000000E+00   1.2500000E+02   7.8125000E-03   1.2380861E-01
       21   -1    0    0  501  502  0.00000000000E+00  0.00000000000E+00  1.42671937799E+03  1.42671937799E+03  0.00000000000E+00 0.00000000000E+00  1.
       21   -1    0    0  503  501  0.00000000000E+00  0.00000000000E+00 -3.07932846297E+02  3.07932846297E+02  0.00000000000E+00 0.00000000000E+00  1.
       21    1    1    2  504  502 -5.43630699384E+00  2.45402015563E+01  2.57579471243E+01  3.59895368991E+01  0.00000000000E+00 0.00000000000E+00  1.
       21    1    1    2  503  504  3.92912910969E+00  1.07616329460E+02 -2.87081773940E+02  3.06614835503E+02  0.00000000000E+00 0.00000000000E+00  1.
       25    2    1    2    0    0  1.50717788415E+00 -1.32156531017E+02  1.38011035851E+03  1.39204785188E+03  1.25000000000E+02 0.00000000000E+00  1.
       24    2    5    5    0    0 -1.90614360254E+01 -3.15818153297E+01  4.46135138886E+02  4.49188680251E+02  3.70561589269E+01 0.00000000000E+00  1.
      -24    2    5    5    0    0  2.05686139096E+01 -1.00574715687E+02  9.33975219624E+02  9.42859171629E+02  7.83285729379E+01 0.00000000000E+00  1.
       -1    1    6    6    0  803  5.18798915769E+00 -4.68032833874E+00  1.51406972440E+01  1.66751736990E+01  4.92809584563E-07 0.00000000000E+00  1.
        2    1    6    6  803    0 -2.42494251831E+01 -2.69014869910E+01  4.30994441642E+02  4.32513506552E+02  0.00000000000E+00 0.00000000000E+00  1.
       -2    1    7    7    0  804 -8.55052244394E+00 -1.52514211944E+01  4.63155303437E+02  4.63485223480E+02  5.96046447754E-06 0.00000000000E+00  1.
        1    1    7    7  804    0  2.91191363535E+01 -8.53232944928E+01  4.70819916187E+02  4.79373948149E+02  5.96046447754E-06 0.00000000000E+00  1.
</event>
<event>
11  61   1.0000000E+00   1.2500000E+02   7.8125000E-03   1.2380861E-01
       21   -1    0    0  501  502  0.00000000000E+00  0.00000000000E+00  6.67772823560E+02  6.67772823560E+02  0.00000000000E+00 0.00000000000E+00  1.
       21   -1    0    0  503  501  0.00000000000E+00  0.00000000000E+00 -5.04141186336E+01  5.04141186336E+01  0.00000000000E+00 0.00000000000E+00  1.
       21    1    1    2  503  504 -5.70831116130E+00  2.10910121848E+01  1.29586988238E+02  1.31416144868E+02  0.00000000000E+00 0.00000000000E+00  1.
       21    1    1    2  504  502 -9.75335738067E+01  3.35999038481E+01  3.56471835515E+02  3.71098263367E+02  0.00000000000E+00 0.00000000000E+00  1.
       25    2    1    2    0    0  1.03241884968E+02 -5.46909160330E+01  1.31299881173E+02  2.15672533959E+02  1.25000000000E+02 0.00000000000E+00  1.
       24    2    5    5    0    0  2.83255072716E+01 -2.89348878856E+00  6.40308355194E+01  7.44066969716E+01  2.50140364066E+01 0.00000000000E+00  1.
      -24    2    5    5    0    0  7.49163776964E+01 -5.17974272444E+01  6.72690456536E+01  1.41265836987E+02  8.44717413122E+01 0.00000000000E+00  1.
       -1    1    6    6    0  804  3.00303316018E+00  8.84729515224E+00  2.25547085780E+01  2.44132693163E+01  6.45239206988E-07 0.00000000000E+00  1.
        2    1    6    6  804    0  2.53224741115E+01 -1.17407839408E+01  4.14761269414E+01  4.99934276553E+01  5.26835606386E-07 0.00000000000E+00  1.
       -2    1    7    7    0  803  3.74602914173E+01 -1.39233532748E+01  7.73396957811E+01  8.70549352019E+01  1.05367121277E-06 0.00000000000E+00  1.
        1    1    7    7  803    0  3.74560862791E+01 -3.78740739697E+01 -1.00706501275E+01  5.42109017855E+01  4.74883198141E-07 0.00000000000E+00  1.
</event>
<event>
11  61   1.0000000E+00   1.2500000E+02   7.8125000E-03   1.2380861E-01
       21   -1    0    0  501  502  0.00000000000E+00  0.00000000000E+00  3.50714341069E+01  3.50714341069E+01  0.00000000000E+00 0.00000000000E+00  1.
       21   -1    0    0  503  501  0.00000000000E+00  0.00000000000E+00 -1.01982895057E+03  1.01982895057E+03  0.00000000000E+00 0.00000000000E+00  1.
       21    1    1    2  503  504 -1.80758343858E+01  3.59930622097E+01  1.30165744302E+01  4.23280938133E+01  0.00000000000E+00 0.00000000000E+00  1.
       21    1    1    2  504  502 -1.85191790250E+01  1.33814999201E+01 -5.48940989476E+01  5.94591173088E+01  0.00000000000E+00 0.00000000000E+00  1.
       25    2    1    2    0    0  3.65950134109E+01 -4.93745621298E+01 -9.42879991944E+02  9.53113173553E+02  1.25000000000E+02 0.00000000000E+00  1.
       24    2    5    5    0    0 -5.00963422987E+00 -2.90866220801E+01 -3.16868283695E+02  3.20139041790E+02  3.48190873944E+01 0.00000000000E+00  1.
      -24    2    5    5    0    0  4.16046476408E+01 -2.02879400497E+01 -6.26011708249E+02  6.32974131763E+02  8.13820950828E+01 0.00000000000E+00  1.
       -1    1    6    6    0  804  2.63044531252E+00 -3.34229365177E+01 -2.88504570470E+02  2.90446034764E+02  7.30004829998E-06 0.00000000000E+00  1.
        2    1    6    6  804    0 -7.64007954240E+00  4.33631443753E+00 -2.83637132252E+01  2.96930070259E+01  7.45058059692E-07 0.00000000000E+00  1.
       -2    1    7    7    0  803  2.48350124983E+01  1.62463500427E+01 -7.74439132668E+01  8.29354052114E+01  2.10734242554E-06 0.00000000000E+00  1.
        1    1    7    7  803    0  1.67696351425E+01 -3.65342900924E+01 -5.48567794982E+02  5.50038726552E+02  0.00000000000E+00 0.00000000000E+00  1.
</event>
<event>
11  61   1.0000000E+00   1.2500000E+02   7.8125000E-03   1.2380861E-01
        1   -1    0    0  501    0  0.00000000000E+00  0.00000000000E+00  1.44798362122E+03  1.44798362122E+03  0.00000000000E+00 0.00000000000E+00  1.
       21   -1    0    0  502  501  0.00000000000E+00  0.00000000000E+00 -8.06419098790E+01  8.06419098790E+01  0.00000000000E+00 0.00000000000E+00  1.
       21    1    1    2  502  503 -2.37506710465E+00  1.78762541498E+01  3.77548512626E+02  3.77978942260E+02  0.00000000000E+00 0.00000000000E+00  1.
        1    1    1    2  503    0  1.68109309290E+01  1.41856801236E+02  9.26838112867E+02  9.37781875981E+02  0.00000000000E+00 0.00000000000E+00  1.
       25    2    1    2    0    0 -1.44358638244E+01 -1.59733055386E+02  6.29550858529E+01  2.12864712862E+02  1.25000000000E+02 0.00000000000E+00  1.
       24    2    5    5    0    0  6.52173208192E+00 -5.10652492749E+01  4.00248427653E+01  7.41546891041E+01  3.53091660180E+01 0.00000000000E+00  1.
      -24    2    5    5    0    0 -2.09575959063E+01 -1.08667806111E+02  2.29302430876E+01  1.38710023758E+02  8.04161782956E+01 0.00000000000E+00  1.
      -15    1    6    6    0    0  1.12902231241E+01 -4.91584680546E+01  4.45429051276E+01  6.73145714917E+01  1.77680000000E+00 0.00000000000E+00  1.
       16    1    6    6    0    0 -4.76849104223E+00 -1.90678122030E+00 -4.51806236231E+00  6.84011761241E+00  3.01783005633E-07 0.00000000000E+00  1.
      -16    1    7    7    0    0 -4.84496595960E+01 -5.87842933193E+01  2.87639028173E+01  8.14268061593E+01  9.85619169125E-07 0.00000000000E+00  1.
       15    1    7    7    0    0  2.74920636897E+01 -4.98835127918E+01 -5.83365972966E+00  5.72832175986E+01  1.77680000000E+00 0.00000000000E+00  1.
</event>
<event>
11  61   1.0000000E+00   1.2500000E+02   7.8125000E-03   1.2380861E-01
       21   -1    0    0  501  502  0.00000000000E+00  0.00000000000E+00  1.47417734052E+02  1.47417734052E+02  0.00000000000E+00 0.00000000000E+00  1.
       21   -1    0    0  503  501  0.00000000000E+00  0.00000000000E+00 -1.21550251562E+02  1.21550251562E+02  0.00000000000E+00 0.00000000000E+00  1.
       21    1    1    2  503  504  1.08132451450E+01 -1.25938106272E+01  1.64757825358E+01  2.33876408996E+01  0.00000000000E+00 0.00000000000E+00  1.
       21    1    1    2  504  502  2.18875606887E+01  1.87309474069E+01  8.91000074695E+01  9.36414706993E+01  0.00000000000E+00 0.00000000000E+00  1.
       25    2    1    2    0    0 -3.27008058338E+01 -6.13713677969E+00 -7.97083075153E+01  1.51938874015E+02  1.25000000000E+02 0.00000000000E+00  1.
       24    2    5    5    0    0 -1.56830565089E+00  1.71171512304E+01 -6.14978158371E+01  1.02391303819E+02  8.00408726603E+01 0.00000000000E+00  1.
      -24    2    5    5    0    0 -3.11325001829E+01 -2.32542880101E+01 -1.82104916782E+01  4.95475701957E+01  2.47658076113E+01 0.00000000000E+00  1.
      -13    1    6    6    0    0  1.40930547305E+01  4.38831859232E+00 -7.60761563577E+01  7.74949305562E+01  1.05659999997E-01 0.00000000000E+00  1.
       14    1    6    6    0    0 -1.56613603813E+01  1.27288326381E+01  1.45783405206E+01  2.48963732631E+01  1.86264514923E-07 0.00000000000E+00  1.
      -16    1    7    7    0    0 -3.14463628216E+01 -1.45038637772E+01 -7.20421546758E+00  3.53714082230E+01  7.90253409579E-07 0.00000000000E+00  1.
       15    1    7    7    0    0  3.13862638671E-01 -8.75042423293E+00 -1.10062762106E+01  1.41761619727E+01  1.77680000000E+00 0.00000000000E+00  1.
</event>
<event>
11  61   1.0000000E+00   1.2500000E+02   7.8125000E-03   1.2380861E-01
       21   -1    0    0  501  502  0.00000000000E+00  0.00000000000E+00  6.01306445571E+01  6.01306445571E+01  0.00000000000E+00 0.00000000000E+00  1.
       -2   -1    0    0    0  501  0.00000000000E+00  0.00000000000E+00 -1.46655371880E+02  1.46655371880E+02  0.00000000000E+00 0.00000000000E+00  1.
       21    1    1    2  503  502  1.97897472797E+01  5.80418601809E+00 -2.55313001922E+00  2.07807878970E+01  0.00000000000E+00 0.00000000000E+00  1.
       -2    1    1    2    0  503 -1.14002577231E+01  1.44636679138E+01 -5.19498939036E+01  5.51176472853E+01  0.00000000000E+00 0.00000000000E+00  1.
       25    2    1    2    0    0 -8.38948955656E+00 -2.02678539319E+01 -3.20217033999E+01  1.30887581255E+02  1.25000000000E+02 0.00000000000E+00  1.
      -24    2    5    5    0    0 -2.05556564589E+01 -1.89022851407E+01 -2.64421716114E+01  8.68736277260E+01  7.78974156103E+01 0.00000000000E+00  1.
       24    2    5    5    0    0  1.21661669023E+01 -1.36556879124E+00 -5.57953178846E+00  4.40139535290E+01  4.19072372634E+01 0.00000000000E+00  1.
       -2    1    6    6    0  804  2.67278045130E+01  5.67312290392E+00  1.38453593218E-01  2.73235983532E+01  3.44957132982E-07 0.00000000000E+00  1.
        1    1    6    6  804    0 -4.72834609719E+01 -2.45754080446E+01 -2.65806252047E+01  5.95500293728E+01  1.29047841398E-06 0.00000000000E+00  1.
      -13    1    7    7    0    0 -1.80643868776E+00 -1.77362796452E+01 -1.20745650745E+01  2.15324202578E+01  1.05659999999E-01 0.00000000000E+00  1.
       14    1    7    7    0    0  1.39726055901E+01  1.63707108539E+01  6.49503328599E+00  2.24815332712E+01  2.94510057212E-07 0.00000000000E+00  1.
</event>
<event>
11  61   1.0000000E+00   1.2500000E+02   7.8125000E-03   1.2380861E-01
       21   -1    0    0  501  502  0.00000000000E+00  0.00000000000E+00  1.56924392523E+02  1.56924392523E+02  0.00000000000E+00 0.00000000000E+00  1.
       21   -1    0    0  503  501  0.00000000000E+00  0.00000000000E+00 -1.43971314899E+02  1.43971314899E+02  0.00000000000E+00 0.00000000000E+00  1.
       21    1    1    2  503  504  4.60065810134E+01  2.34315635413E+01  3.32723037440E+01  6.14222261316E+01  0.00000000000E+00 0.00000000000E+00  1.
       21    1    1    2  504  502  1.76622196143E+01 -8.63003931137E+00  6.95124125960E+01  7.22385429333E+01  0.00000000000E+00 0.00000000000E+00  1.
       25    2    1    2    0    0 -6.36688006276E+01 -1.48015242299E+01 -8.98316387163E+01  1.67234938357E+02  1.25000000000E+02 0.00000000000E+00  1.
      -24    2    5    5    0    0 -4.49509933465E+01 -1.88323853648E+01 -9.19665549521E+01  1.32838442935E+02  8.25406212135E+01 0.00000000000E+00  1.
       24    2    5    5    0    0 -1.87178072811E+01  4.03086113492E+00  2.13491623583E+00  3.43964954218E+01  2.84948570635E+01 0.00000000000E+00  1.
       -4    1    6    6    0  804  2.34897144344E+01 -1.36760084943E+01 -2.69650624066E+01  3.83084861113E+01  1.27500000000E+00 0.00000000000E+00  1.
        3    1    6    6  804    0 -6.84407077809E+01 -5.15637687048E+00 -6.50014925455E+01  9.45299568239E+01  1.05367121277E-06 0.00000000000E+00  1.
      -11    1    7    7    0    0 -2.22754850980E+01  5.04106537624E+00 -7.53005315512E+00  2.40481034025E+01  5.10999816509E-04 0.00000000000E+00  1.
       12    1    7    7    0    0  3.55767781688E+00 -1.01020424133E+00  9.66496939094E+00  1.03483920193E+01  6.17769507757E-07 0.00000000000E+00  1.
</event>
<event>
11  61   1.0000000E+00   1.2500000E+02   7.8125000E-03   1.2380861E-01
       21   -1    0    0  501  502  0.00000000000E+00  0.00000000000E+00  7.29588550669E+01  7.29588550669E+01  0.00000000000E+00 0.00000000000E+00  1.
       21   -1    0    0  503  501  0.00000000000E+00  0.00000000000E+00 -5.13295891684E+02  5.13295891684E+02  0.00000000000E+00 0.00000000000E+00  1.
       21    1    1    2  503  504  1.50814550290E+01 -1.26530051868E+01 -2.78871625975E+01  3.41356509208E+01  0.00000000000E+00 0.00000000000E+00  1.
       21    1    1    2  504  502 -2.09304335659E+01 -5.76326961929E+00  5.95929443799E+01  6.34241069770E+01  0.00000000000E+00 0.00000000000E+00  1.
       25    2    1    2    0    0  5.84897853695E+00  1.84162748061E+01 -4.72042818400E+02  4.88694988854E+02  1.25000000000E+02 0.00000000000E+00  1.
      -24    2    5    5    0    0  1.67991922423E+01  3.18480710567E+01 -1.58639412899E+02  1.65209029121E+02  2.88278942725E+01 0.00000000000E+00  1.
       24    2    5    5    0    0 -1.09502137054E+01 -1.34317962506E+01 -3.13403405501E+02  3.23485959733E+02  7.82377864842E+01 0.00000000000E+00  1.
       -4    1    6    6    0  803  1.82581976751E+01  1.18959521322E+01 -4.73978499878E+01  5.21829212285E+01  1.27500000000E+00 0.00000000000E+00  1.
        3    1    6    6  803    0 -1.45900543280E+00  1.99521189246E+01 -1.11241562911E+02  1.13026107893E+02  1.49011611938E-06 0.00000000000E+00  1.
      -11    1    7    7    0    0 -4.01142665683E+01  4.67524711988E+00 -1.09438255560E+02  1.16652235719E+02  5.10990345032E-04 0.00000000000E+00  1.
       12    1    7    7    0    0  2.91640528630E+01 -1.81070433705E+01 -2.03965149941E+02  2.06833724014E+02  0.00000000000E+00 0.00000000000E+00  1.
</event>
<event>
11  61   1.0000000E+00   1.2500000E+02   7.8125000E-03   1.2380861E-01
       21   -1    0    0  501  502  0.00000000000E+00  0.00000000000E+00  9.86862582118E+01  9.86862582118E+01  0.00000000000E+00 0.00000000000E+00  1.
       21   -1    0    0  503  501  0.00000000000E+00  0.00000000000E+00 -1.14770816719E+02  1.14770816719E+02  0.00000000000E+00 0.00000000000E+00  1.
       21    1    1    2  503  504 -2.44195548583E+01  1.46367167091E+01 -2.22317935733E+00  2.85567971235E+01  0.00000000000E+00 0.00000000000E+00  1.
       21    1    1    2  504  502 -2.68718805623E+01  3.00823450742E+01  7.36618768391E+00  4.10037336240E+01  0.00000000000E+00 0.00000000000E+00  1.
       25    2    1    2    0    0  5.12914354205E+01 -4.47190617833E+01 -2.12275668341E+01  1.43896544184E+02  1.25000000000E+02 0.00000000000E+00  1.
       24    2    5    5    0    0  3.60264004249E+00  2.06952657510E+01 -2.08145708621E+01  3.58622461055E+01  2.02874664703E+01 0.00000000000E+00  1.
      -24    2    5    5    0    0  4.76887953780E+01 -6.54143275343E+01 -4.12995972000E-01  1.08034298078E+02  7.15400834796E+01 0.00000000000E+00  1.
       -1    1    6    6    0  803 -3.43812804518E+00  1.90556592355E+01 -7.60369556331E+00  2.08027656713E+01  3.60699682143E-07 0.00000000000E+00  1.
        2    1    6    6  803    0  7.04076808767E+00  1.63960651546E+00 -1.32108752988E+01  1.50594804343E+01  0.00000000000E+00 0.00000000000E+00  1.
       -2    1    7    7    0  804  2.97272823960E+01 -7.86007273508E+01  7.54775924595E+00  8.43727108037E+01  8.93293232343E-07 0.00000000000E+00  1.
        1    1    7    7  804    0  1.79615129820E+01  1.31863998165E+01 -7.96075521795E+00  2.36615872748E+01  6.51925802231E-07 0.00000000000E+00  1.
</event>
<event>
11  61   1.0000000E+00   1.2500000E+02   7.8125000E-03   1.2380861E-01
       21   -1    0    0  501  502  0.00000000000E+00  0.00000000000E+00  6.50664852363E+02  6.50664852363E+02  0.00000000000E+00 0.00000000000E+00  1.
       21   -1    0    0  503  501  0.00000000000E+00  0.00000000000E+00 -5.88686272052E+01  5.88686272052E+01  0.00000000000E+00 0.00000000000E+00  1.
       21    1    1    2  504  502 -2.09740499570E+01  3.80733754358E+01  1.95604108163E+02  2.00375796490E+02  0.00000000000E+00 0.00000000000E+00  1.
       21    1    1    2  503  504 -1.50910593131E+01 -3.46138742369E+00  3.72066854317E+02  3.72388863093E+02  0.00000000000E+00 0.00000000000E+00  1.
       25    2    1    2    0    0  3.60651092701E+01 -3.46119880121E+01  2.41252626770E+01  1.36768819985E+02  1.25000000000E+02 0.00000000000E+00  1.
      -24    2    5    5    0    0 -5.37368601939E-03 -3.51534121038E+01  1.64309957800E+01  8.86034624097E+01  7.96544632600E+01 0.00000000000E+00  1.
       24    2    5    5    0    0  3.60704829561E+01  5.41424091728E-01  7.69426689702E+00  4.81653575753E+01  3.09730051261E+01 0.00000000000E+00  1.
       -4    1    6    6    0  803 -2.95487299803E+01  1.05842215921E+01  1.31526872771E+01  3.40554253793E+01  1.27500000000E+00 0.00000000000E+00  1.
        3    1    6    6  803    0  2.95433562942E+01 -4.57376336959E+01  3.27830850290E+00  5.45480370304E+01  1.34559192479E-06 0.00000000000E+00  1.
       -1    1    7    7    0  804  3.25571201393E+01 -1.15950556477E+01  8.20265734457E+00  3.55203459266E+01  4.36829008146E-07 0.00000000000E+00  1.
        2    1    7    7  804    0  3.51336281685E+00  1.21364797394E+01 -5.08390447552E-01  1.26450116487E+01  2.31955885482E-07 0.00000000000E+00  1.
</event>
<event>
11  61   1.0000000E+00   1.2500000E+02   7.8125000E-03   1.2380861E-01
       21   -1    0    0  501  502  0.00000000000E+00  0.00000000000E+00  6.54683419305E+02  6.54683419305E+02  0.00000000000E+00 0.00000000000E+00  1.
       21   -1    0    0  503  501  0.00000000000E+00  0.00000000000E+00 -1.69366607064E+02  1.69366607064E+02  0.00000000000E+00 0.00000000000E+00  1.
       21    1    1    2  503  504  3.42621640454E+01  1.15059658721E+02  1.09332449519E+02  1.62376739307E+02  0.00000000000E+00 0.00000000000E+00  1.
       21    1    1    2  504  502 -2.82889145501E+01  1.29970505839E+02 -6.01687370228E+01  1.45989287242E+02  0.00000000000E+00 0.00000000000E+00  1.
       25    2    1    2    0    0 -5.97324949530E+00 -2.45030164560E+02  4.36153099744E+02  5.15683999820E+02  1.25000000000E+02 0.00000000000E+00  1.
       24    2    5    5    0    0  8.54089409773E+00 -1.48642619219E+02  2.62022731266E+02  3.12256570172E+02  8.17354194650E+01 0.00000000000E+00  1.
      -24    2    5    5    0    0 -1.45141435930E+01 -9.63875453412E+01  1.74130368478E+02  2.03427429648E+02  3.94982866194E+01 0.00000000000E+00  1.
       -3    1    6    6    0  803  2.11765912532E+01 -1.50517125285E+02  2.56768423856E+02  2.98385449562E+02  4.21468485109E-06 0.00000000000E+00  1.
        4    1    6    6  803    0 -1.26356971555E+01  1.87450606605E+00  5.25430740994E+00  1.38711206092E+01  1.27500000000E+00 0.00000000000E+00  1.
       -4    1    7    7    0  804  1.54239260880E-01 -4.66658677516E+00 -1.22263444355E+00  4.99212197990E+00  1.27500000000E+00 0.00000000000E+00  1.
        3    1    7    7  804    0 -1.46683828539E+01 -9.17209585660E+01  1.75353002922E+02  1.98435307669E+02  3.65002414999E-06 0.00000000000E+00  1.
</event>
<event>
11  61   1.0000000E+00   1.2500000E+02   7.8125000E-03   1.2380861E-01
       21   -1    0    0  501  502  0.00000000000E+00  0.00000000000E+00  6.21168750894E+01  6.21168750894E+01  0.00000000000E+00 0.00000000000E+00  1.
       21   -1    0    0  503  501  0.00000000000E+00  0.00000000000E+00 -1.73122749963E+02  1.73122749963E+02  0.00000000000E+00 0.00000000000E+00  1.
       21    1    1    2  504  502  9.74692395060E+00 -1.70787287846E+01 -1.84228185676E+01  2.69459783153E+01  0.00000000000E+00 0.00000000000E+00  1.
       21    1    1    2  503  504 -1.15082667925E+01 -3.14917918591E+01  1.46391119116E+01  3.65851986003E+01  0.00000000000E+00 0.00000000000E+00  1.
       25    2    1    2    0    0  1.76134284193E+00  4.85705206436E+01 -1.07222168217E+02  1.71708448136E+02  1.25000000000E+02 0.00000000000E+00  1.
       24    2    5    5    0    0 -4.30613055838E+00  1.19628583787E+01 -2.42360137974E+01  5.03844584871E+01  4.23031506070E+01 0.00000000000E+00  1.
      -24    2    5    5    0    0  6.06747340031E+00  3.66076622649E+01 -8.29861544196E+01  1.21323989649E+02  8.03484503211E+01 0.00000000000E+00  1.
      -11    1    6    6    0    0 -6.60209096431E+00  2.55908501254E+01 -5.32181208618E+00  2.69592451561E+01  5.11000219637E-04 0.00000000000E+00  1.
       12    1    6    6    0    0  2.29596040594E+00 -1.36279917467E+01 -1.89142017112E+01  2.34252133311E+01  2.63417803193E-07 0.00000000000E+00  1.
       -4    1    7    7    0  804  2.47608269000E+01 -6.07324174991E+00 -6.75923772263E+01  7.22519058449E+01  1.27500000000E+00 0.00000000000E+00  1.
        1    1    7    7  804    0 -1.86933534997E+01  4.26809040148E+01 -1.53937771934E+01  4.90720838039E+01  1.27696517862E-06 0.00000000000E+00  1.
</event>
<event>
11  61   1.0000000E+00   1.2500000E+02   7.8125000E-03   1.2380861E-01
       21   -1    0    0  501  502  0.00000000000E+00  0.00000000000E+00  2.86114964633E+02  2.86114964633E+02  0.00000000000E+00 0.00000000000E+00  1.
       21   -1    0    0  503  501  0.00000000000E+00  0.00000000000E+00 -2.29614532213E+02  2.29614532213E+02  0.00000000000E+00 0.00000000000E+00  1.
        5    1    1    2  503    0  1.59112395014E+01 -5.13035117314E+01 -1.43455357223E+02  1.53181778859E+02  0.00000000000E+00 0.00000000000E+00  1.
       -5    1    1    2    0  502 -9.25836063486E+00 -3.42840407113E+01 -5.52567365759E+01  6.56842418405E+01  0.00000000000E+00 0.00000000000E+00  1.
       25    2    1    2    0    0 -6.65287886654E+00  8.55875524427E+01  2.55212526219E+02  2.96863476146E+02  1.25000000000E+02 0.00000000000E+00  1.
      -24    2    5    5    0    0 -1.96183905695E+01  6.91932316968E+01  1.99276088238E+02  2.20766670157E+02  6.20836431590E+01 0.00000000000E+00  1.
       24    2    5    5    0    0  1.29655117029E+01  1.63943207459E+01  5.59364379815E+01  7.60968059887E+01  4.71694873959E+01 0.00000000000E+00  1.
      -16    1    6    6    0    0  1.62400537821E+01  6.43103583155E+00  1.57831059120E+01  2.35415377778E+01  4.16500117164E-07 0.00000000000E+00  1.
       15    1    6    6    0    0 -3.58584443516E+01  6.27621958652E+01  1.83492982326E+02  1.97225132380E+02  1.77680000000E+00 0.00000000000E+00  1.
       -1    1    7    7    0  803  3.73339394534E+00  3.21549470773E+01  4.24876845091E+01  5.34142507842E+01  9.12506037497E-07 0.00000000000E+00  1.
        2    1    7    7  803    0  9.23211775757E+00 -1.57606263313E+01  1.34487534724E+01  2.26825552045E+01  7.45058059692E-07 0.00000000000E+00  1.
</event>
<event>
11  61   1.0000000E+00   1.2500000E+02   7.8125000E-03   1.2380861E-01
       21   -1    0    0  501  502  0.00000000000E+00  0.00000000000E+00  3.56725989870E+02  3.56725989870E+02  0.00000000000E+00 0.00000000000E+00  1.
       21   -1    0    0  503  501  0.00000000000E+00  0.00000000000E+00 -3.43957118527E+01  3.43957118527E+01  0.00000000000E+00 0.00000000000E+00  1.
       21    1    1    2  503  504  3.16143897829E+01  1.33726168273E+00  7.93546894191E+01  8.54308178759E+01  0.00000000000E+00 0.00000000000E+00  1.
       21    1    1    2  504  502  1.89179346904E+01 -6.55231695950E-01  1.25328824055E+02  1.26750273059E+02  0.00000000000E+00 0.00000000000E+00  1.
       25    2    1    2    0    0 -5.05323244734E+01 -6.82029986779E-01  1.17646764543E+02  1.78940610788E+02  1.25000000000E+02 0.00000000000E+00  1.
      -24    2    5    5    0    0 -3.83216988705E+01 -2.42355770531E+01  1.70503552094E+01  6.17843213802E+01  3.83493410142E+01 0.00000000000E+00  1.
       24    2    5    5    0    0 -1.22106256029E+01  2.35535470664E+01  1.00596409334E+02  1.17156289408E+02  5.38710462119E+01 0.00000000000E+00  1.
       -4    1    6    6    0  803 -3.65069969772E+00  6.91283494918E+00 -5.85706134552E+00  9.85117698160E+00  1.27500000000E+00 0.00000000000E+00  1.
        3    1    6    6  803    0 -3.46709991728E+01 -3.11484120023E+01  2.29074165549E+01  5.19331443986E+01  9.49766396283E-07 0.00000000000E+00  1.
       -3    1    7    7    0  804 -4.49618129452E+00 -1.07614159237E-01  8.99422576917E+01  9.00546331164E+01  0.00000000000E+00 0.00000000000E+00  1.
        4    1    7    7  804    0 -7.71444430839E+00  2.36611612256E+01  1.06541516419E+01  2.71016562914E+01  1.27500000000E+00 0.00000000000E+00  1.
</event>
<event>
11  61   1.0000000E+00   1.2500000E+02   7.8125000E-03   1.2380861E-01
       21   -1    0    0  501  502  0.00000000000E+00  0.00000000000E+00  1.13436638502E+02  1.13436638502E+02  0.00000000000E+00 0.00000000000E+00  1.
       21   -1    0    0  503  501  0.00000000000E+00  0.00000000000E+00 -5.95503361623E+02  5.95503361623E+02  0.00000000000E+00 0.00000000000E+00  1.
       21    1    1    2  503  504  1.33149086520E+01  1.57575068563E+01 -4.24245622046E+02  4.24746905392E+02  0.00000000000E+00 0.00000000000E+00  1.
       21    1    1    2  504  502  1.90309749088E+01  7.16436940371E+00 -1.31982105810E+02  1.33539441548E+02  0.00000000000E+00 0.00000000000E+00  1.
       25    2    1    2    0    0 -3.23458835608E+01 -2.29218762600E+01  7.41610047355E+01  1.50653653185E+02  1.25000000000E+02 0.00000000000E+00  1.
       24    2    5    5    0    0 -1.08319308820E+01 -1.41639432067E+01  6.32002620653E+01  1.02139160126E+02  7.82316233517E+01 0.00000000000E+00  1.
      -24    2    5    5    0    0 -2.15139526788E+01 -8.75793305330E+00  1.09607426702E+01  4.85144930594E+01  4.11578255705E+01 0.00000000000E+00  1.
       -1    1    6    6    0  803  1.32656644573E+01  2.74486887751E+01  3.49112458022E+01  4.63487157581E+01  6.45239206988E-07 0.00000000000E+00  1.
        2    1    6    6  803    0 -2.40975953393E+01 -4.16126319818E+01  2.82890162632E+01  5.57904443675E+01  5.26835606386E-07 0.00000000000E+00  1.
       -2    1    7    7    0  804 -2.82324159077E+01 -8.62352252484E+00 -6.13029047787E+00  3.01498741302E+01  5.35004087401E-07 0.00000000000E+00  1.
        1    1    7    7  804    0  6.71846322887E+00 -1.34410528460E-01  1.70910331480E+01  1.83646189292E+01  4.56253018749E-07 0.00000000000E+00  1.
</event>
<event>
11  61   1.0000000E+00   1.2500000E+02   7.8125000E-03   1.2380861E-01
       21   -1    0    0  501  502  0.00000000000E+00  0.00000000000E+00  6.25705897614E+01  6.25705897614E+01  0.00000000000E+00 0.00000000000E+00  1.
       21   -1    0    0  503  501  0.00000000000E+00  0.00000000000E+00 -3.62760977596E+02  3.62760977596E+02  0.00000000000E+00 0.00000000000E+00  1.
       21    1    1    2  503  504 -1.48948354118E+01 -8.02692472571E+00 -2.59481305962E+01  3.09773001395E+01  0.00000000000E+00 0.00000000000E+00  1.
       21    1    1    2  504  502 -2.38963546405E+01 -4.00548243185E+01  3.28777444671E+01  5.70646194900E+01  0.00000000000E+00 0.00000000000E+00  1.
       25    2    1    2    0    0  3.87911900524E+01  4.80817490442E+01 -3.07120001705E+02  3.37289647728E+02  1.25000000000E+02 0.00000000000E+00  1.
      -24    2    5    5    0    0  7.25094413961E+00  2.80957078620E+01 -8.82786945154E+01  1.01091738153E+02  3.98053592654E+01 0.00000000000E+00  1.
       24    2    5    5    0    0  3.15402459128E+01  1.99860411822E+01 -2.18841307190E+02  2.36197909575E+02  8.06455566093E+01 0.00000000000E+00  1.
       -4    1    6    6    0  803  8.08634795674E-01  2.17566335182E+01 -1.32454706545E+01  2.55161343103E+01  1.27500000000E+00 0.00000000000E+00  1.
        3    1    6    6  803    0  6.44230934394E+00  6.33907434373E+00 -7.50332238609E+01  7.55756038426E+01  1.49011611938E-06 0.00000000000E+00  1.
       -1    1    7    7    0  804  3.14717347506E+01 -5.67644885952E+00 -2.04125619380E+02  2.06615489853E+02  2.98023223877E-06 0.00000000000E+00  1.
        2    1    7    7  804    0  6.85111621819E-02  2.56624900418E+01 -1.47156878099E+01  2.95824197225E+01  6.17769507757E-07 0.00000000000E+00  1.
</event>
<event>
11  61   1.0000000E+00   1.2500000E+02   7.8125000E-03   1.2380861E-01
       21   -1    0    0  501  502  0.00000000000E+00  0.00000000000E+00  9.76304697291E+02  9.76304697291E+02  0.00000000000E+00 0.00000000000E+00  1.
       21   -1    0    0  503  501  0.00000000000E+00  0.00000000000E+00 -9.45527676266E+01  9.45527676266E+01  0.00000000000E+00 0.00000000000E+00  1.
       21    1    1    2  504  502  2.10524553330E+02 -2.79737707969E+01  6.50886084487E+02  6.84657443095E+02  0.00000000000E+00 0.00000000000E+00  1.
       21    1    1    2  503  504 -4.36203217132E+01  6.65958363176E+01  1.03881136978E+01  8.02848104401E+01  0.00000000000E+00 0.00000000000E+00  1.
       25    2    1    2    0    0 -1.66904231616E+02 -3.86220655208E+01  2.20477731480E+02  3.05915211383E+02  1.25000000000E+02 0.00000000000E+00  1.
       24    2    5    5    0    0 -9.69683763869E+01 -1.62851424819E+01  1.01440644654E+02  1.44328608523E+02  2.95376194958E+01 0.00000000000E+00  1.
      -24    2    5    5    0    0 -6.99358552291E+01 -2.23369230389E+01  1.19037086826E+02  1.61586602860E+02  8.09347898402E+01 0.00000000000E+00  1.
       -3    1    6    6    0  804 -3.73406127424E+01  5.87480424865E+00  4.89477033054E+01  6.18442587781E+01  7.45058059692E-07 0.00000000000E+00  1.
        4    1    6    6  804    0 -5.96277636445E+01 -2.21599467306E+01  5.24929413485E+01  8.24843497444E+01  1.27500000000E+00 0.00000000000E+00  1.
      -16    1    7    7    0    0 -1.42543064567E+01 -5.08423841849E+00 -1.12399862910E+01  1.88513136062E+01  3.48468999078E-07 0.00000000000E+00  1.
       15    1    7    7    0    0 -5.56815487724E+01 -1.72526846204E+01  1.30277073117E+02  1.42735289254E+02  1.77680000000E+00 0.00000000000E+00  1.
</event>
<event>
11  61   1.0000000E+00   1.2500000E+02   7.8125000E-03   1.2380861E-01
       21   -1    0    0  502  501  0.00000000000E+00  0.00000000000E+00  1.28819356235E+02  1.28819356235E+02  0.00000000000E+00 0.00000000000E+00  1.
        1   -1    0    0  501    0  0.00000000000E+00  0.00000000000E+00 -3.50025024298E+02  3.50025024298E+02  0.00000000000E+00 0.00000000000E+00  1.
       21    1    1    2  502  503 -1.66800019593E+01  6.16017659377E+01 -3.93574300609E+01  7.49800462324E+01  0.00000000000E+00 0.00000000000E+00  1.
        1    1    1    2  503    0 -2.76876863917E+01 -3.51885484773E+01 -2.48910548488E+02  2.52905719727E+02  0.00000000000E+00 0.00000000000E+00  1.
       25    2    1    2    0    0  4.43676883510E+01 -2.64132174604E+01  6.70623104859E+01  1.50958614573E+02  1.25000000000E+02 0.00000000000E+00  1.
       24    2    5    5    0    0  4.79489196736E+01 -4.05233775794E+00  3.76599238253E+01  1.01619346744E+02  8.11954520339E+01 0.00000000000E+00  1.
      -24    2    5    5    0    0 -3.58123132259E+00 -2.23608797025E+01  2.94023866606E+01  4.93392678289E+01  3.25119800951E+01 0.00000000000E+00  1.
       -3    1    6    6    0  804  5.05559256526E+01  2.61665127354E+01  4.22829630827E+01  7.09114727979E+01  0.00000000000E+00 0.00000000000E+00  1.
        4    1    6    6  804    0 -2.60700597900E+00 -3.02188504934E+01 -4.62303925734E+00  3.07078739461E+01  1.27500000000E+00 0.00000000000E+00  1.
       -2    1    7    7    0  803 -8.38859936432E+00 -1.50332653591E+01 -1.44045806886E+00  1.72754909077E+01  2.66994930366E-07 0.00000000000E+00  1.
        1    1    7    7  803    0  4.80736804173E+00 -7.32761434336E+00  3.08428447294E+01  3.20637769213E+01  5.26835606386E-07 0.00000000000E+00  1.
</event>
<event>
11  61   1.0000000E+00   1.2500000E+02   7.8125000E-03   1.2380861E-01
       21   -1    0    0  502  501  0.00000000000E+00  0.00000000000E+00  1.95202112442E+02  1.95202112442E+02  0.00000000000E+00 0.00000000000E+00  1.
        1   -1    0    0  501    0  0.00000000000E+00  0.00000000000E+00 -2.16231078173E+03  2.16231078173E+03  0.00000000000E+00 0.00000000000E+00  1.
       21    1    1    2  502  503  1.61187944482E+01  2.10727646399E+01 -1.41516807693E+02  1.43982234334E+02  0.00000000000E+00 0.00000000000E+00  1.
        1    1    1    2  503    0  3.33237139440E+01 -1.69784783828E+01 -1.99605422069E+03  1.99640456586E+03  0.00000000000E+00 0.00000000000E+00  1.
       25    2    1    2    0    0 -4.94425083922E+01 -4.09428625711E+00  1.70462359100E+02  2.17126093977E+02  1.25000000000E+02 0.00000000000E+00  1.
      -24    2    5    5    0    0  1.10898970797E+01 -1.23088536389E+01  2.52671801140E+01  4.05631381630E+01  2.70637043210E+01 0.00000000000E+00  1.
       24    2    5    5    0    0 -6.05324054719E+01  8.21456738181E+00  1.45195178986E+02  1.76562955814E+02  7.97570444256E+01 0.00000000000E+00  1.
      -16    1    6    6    0    0 -7.34465230355E+00  2.75994954682E+00  6.69940514474E+00  1.03171346921E+01  0.00000000000E+00 0.00000000000E+00  1.
       15    1    6    6    0    0  1.84345493833E+01 -1.50688031857E+01  1.85677749693E+01  3.02460034710E+01  1.77680000000E+00 0.00000000000E+00  1.
       -1    1    7    7    0  804 -2.06310255638E+01 -3.04850003673E+01  9.41700918102E+01  1.01108756568E+02  2.58095682795E-06 0.00000000000E+00  1.
        2    1    7    7  804    0 -3.99013799081E+01  3.86995677491E+01  5.10250871758E+01  7.54541992459E+01  7.45058059692E-07 0.00000000000E+00  1.
</event>
<event>
11  61   1.0000000E+00   1.2500000E+02   7.8125000E-03   1.2380861E-01
       21   -1    0    0  501  502  0.00000000000E+00  0.00000000000E+00  2.12629233122E+03  2.12629233122E+03  0.00000000000E+00 0.00000000000E+00  1.
       21   -1    0    0  503  501  0.00000000000E+00  0.00000000000E+00 -2.32757992418E+02  2.32757992418E+02  0.00000000000E+00 0.00000000000E+00  1.
       21    1    1    2  504  502  1.50350878045E+01  1.56840825107E+01 -7.55519900255E+00  2.30027246529E+01  0.00000000000E+00 0.00000000000E+00  1.
       21    1    1    2  503  504  4.72612949574E+01 -1.61544561605E+01 -2.12275733254E+02  2.18072426922E+02  0.00000000000E+00 0.00000000000E+00  1.
       25    2    1    2    0    0 -6.22963827619E+01  4.70373649851E-01  2.11336527106E+03  2.11797517207E+03  1.25000000000E+02 0.00000000000E+00  1.
      -24    2    5    5    0    0 -1.03556728221E+01 -3.33822313563E+01  8.35881609727E+02  8.36844722761E+02  1.97335045525E+01 0.00000000000E+00  1.
       24    2    5    5    0    0 -5.19407099398E+01  3.38526050062E+01  1.27748366133E+03  1.28113044931E+03  7.40735240226E+01 0.00000000000E+00  1.
       -2    1    6    6    0  803 -1.04102962511E+01 -1.71006809235E+01  2.75421090893E+02  2.76147759115E+02  2.98023223877E-06 0.00000000000E+00  1.
        1    1    6    6  803    0  5.46234289967E-02 -1.62815504328E+01  5.60460518835E+02  5.60696963645E+02  0.00000000000E+00 0.00000000000E+00  1.
       -3    1    7    7    0  804  9.61838739336E+00  2.94004154688E+00  6.13634821980E+02  6.13717241054E+02  8.42936970218E-06 0.00000000000E+00  1.
        2    1    7    7  804    0 -6.15590973332E+01  3.09125634593E+01  6.63848839352E+02  6.67413208255E+02  1.19209289551E-05 0.00000000000E+00  1.
</event>
<event>
11  61   1.0000000E+00   1.2500000E+02   7.8125000E-03   1.2380861E-01
       21   -1    0    0  501  502  0.00000000000E+00  0.00000000000E+00  3.21758727229E+01  3.21758727229E+01  0.00000000000E+00 0.00000000000E+00  1.
       21   -1    0    0  503  501  0.00000000000E+00  0.00000000000E+00 -6.95969012747E+02  6.95969012747E+02  0.00000000000E+00 0.00000000000E+00  1.
       21    1    1    2  504  502  3.48891165594E+01 -7.04628345003E+00 -4.91386898006E+02  4.92674318487E+02  0.00000000000E+00 0.00000000000E+00  1.
       21    1    1    2  503  504 -2.52426840348E+01  2.18861380100E+01 -4.56539554641E+01  5.65727830656E+01  0.00000000000E+00 0.00000000000E+00  1.
       25    2    1    2    0    0 -9.64643252456E+00 -1.48398545600E+01 -1.26752286554E+02  1.78897783917E+02  1.25000000000E+02 0.00000000000E+00  1.
      -24    2    5    5    0    0  6.50152971582E+00  2.20953619251E+01 -9.36039472031E+01  1.25249806685E+02  7.99708711684E+01 0.00000000000E+00  1.
       24    2    5    5    0    0 -1.61479622404E+01 -3.69352164851E+01 -3.31483393509E+01  5.36479772318E+01  1.24228079764E+01 0.00000000000E+00  1.
       -2    1    6    6    0  803  3.16467070278E+00 -3.00526261944E+01 -4.25996818517E+01  5.22293823026E+01  0.00000000000E+00 0.00000000000E+00  1.
        1    1    6    6  803    0  3.33685901304E+00  5.21479881195E+01 -5.10042653514E+01  7.30204243827E+01  1.05367121277E-06 0.00000000000E+00  1.
       -1    1    7    7    0  804 -8.32029563087E+00 -1.99608674666E+01 -9.80931265787E+00  2.37462873777E+01  1.31708901597E-07 0.00000000000E+00  1.
        2    1    7    7  804    0 -7.82766660951E+00 -1.69743490185E+01 -2.33390266930E+01  2.99016898541E+01  4.56253018749E-07 0.00000000000E+00  1.
</event>
<event>
11  61   1.0000000E+00   1.2500000E+02   7.8125000E-03   1.2380861E-01
       21   -1    0    0  501  502  0.00000000000E+00  0.00000000000E+00  1.72032019311E+02  1.72032019311E+02  0.00000000000E+00 0.00000000000E+00  1.
       21   -1    0    0  503  501  0.00000000000E+00  0.00000000000E+00 -5.80856662050E+02  5.80856662050E+02  0.00000000000E+00 0.00000000000E+00  1.
       21    1    1    2  504  502  4.19629133150E+01 -7.25514246439E+01 -1.39307986823E+02  1.62577090958E+02  0.00000000000E+00 0.00000000000E+00  1.
       21    1    1    2  503  504  1.17178050727E+01  3.53280149648E+01  1.46438843933E+02  1.51095038335E+02  0.00000000000E+00 0.00000000000E+00  1.
       25    2    1    2    0    0 -5.36807183877E+01  3.72234096792E+01 -4.15955499849E+02  4.39216552067E+02  1.25000000000E+02 0.00000000000E+00  1.
      -24    2    5    5    0    0 -4.49155076304E+01  1.84634994340E+01 -1.95311480817E+02  2.16228205823E+02  7.90554161155E+01 0.00000000000E+00  1.
       24    2    5    5    0    0 -8.76521075731E+00  1.87599102452E+01 -2.20644019032E+02  2.22988346244E+02  2.47235975196E+01 0.00000000000E+00  1.
       -2    1    6    6    0  804  9.44421169710E-01  8.90249523672E+00 -1.52512675641E+02  1.52775202779E+02  0.00000000000E+00 0.00000000000E+00  1.
        1    1    6    6  804    0 -4.58599288001E+01  9.56100419726E+00 -4.27988051761E+01  6.34530030441E+01  1.82501207499E-06 0.00000000000E+00  1.
       -3    1    7    7    0  803 -1.24807281453E+01 -9.64240398911E-02 -1.06746442413E+02  1.07473628581E+02  2.10734242554E-06 0.00000000000E+00  1.
        4    1    7    7  803    0  3.71551738797E+00  1.88563342851E+01 -1.13897576619E+02  1.15514717663E+02  1.27500000000E+00 0.00000000000E+00  1.
</event>
<event>
11  61   1.0000000E+00   1.2500000E+02   7.8125000E-03   1.2380861E-01
       21   -1    0    0  501  502  0.00000000000E+00  0.00000000000E+00  3.84807929833E+02  3.84807929833E+02  0.00000000000E+00 0.00000000000E+00  1.
       21   -1    0    0  503  501  0.00000000000E+00  0.00000000000E+00 -1.07994968521E+02  1.07994968521E+02  0.00000000000E+00 0.00000000000E+00  1.
       21    1    1    2  504  502 -1.03473778286E+01 -1.91721518029E+01 -6.00114806171E+00  2.25976417075E+01  0.00000000000E+00 0.00000000000E+00  1.
       21    1    1    2  503  504 -1.51206760911E+01  1.61058184092E+01  3.32525935899E+02  3.33258953785E+02  0.00000000000E+00 0.00000000000E+00  1.
       25    2    1    2    0    0  2.54680539197E+01  3.06633339372E+00 -4.97118265256E+01  1.36946302862E+02  1.25000000000E+02 0.00000000000E+00  1.
      -24    2    5    5    0    0  4.84420691583E+01  1.04118457081E+01 -5.51277952009E+01  1.07001751886E+02  7.71703343758E+01 0.00000000000E+00  1.
       24    2    5    5    0    0 -2.29740152386E+01 -7.34551231439E+00  5.41596867533E+00  2.99445509755E+01  1.68991564609E+01 0.00000000000E+00  1.
      -14    1    6    6    0    0  6.16533872192E+01 -1.39260923372E+01 -3.16090222791E+01  7.06696999627E+01  9.12506037497E-07 0.00000000000E+00  1.
       13    1    6    6    0    0 -1.32113180609E+01  2.43379380453E+01 -2.35187729218E+01  3.63320519237E+01  1.05659999995E-01 0.00000000000E+00  1.
      -15    1    7    7    0    0 -2.04926038143E+01 -4.53294769078E+00  1.05730276713E+01  2.35677822087E+01  1.77680000000E+00 0.00000000000E+00  1.
       16    1    7    7    0    0 -2.48141142422E+00 -2.81256462361E+00 -5.15705899594E+00  6.37676876684E+00  1.14063254687E-07 0.00000000000E+00  1.
</event>
<event>
11  61   1.0000000E+00   1.2500000E+02   7.8125000E-03   1.2380861E-01
       21   -1    0    0  501  502  0.00000000000E+00  0.00000000000E+00  1.27813720770E+03  1.27813720770E+03  0.00000000000E+00 0.00000000000E+00  1.
       21   -1    0    0  503  501  0.00000000000E+00  0.00000000000E+00 -4.89398700345E+01  4.89398700345E+01  0.00000000000E+00 0.00000000000E+00  1.
       21    1    1    2  504  502 -9.92064040075E+00  1.59517730470E+01  4.40197629954E+02  4.40598265528E+02  0.00000000000E+00 0.00000000000E+00  1.
       21    1    1    2  503  504  1.29880857887E+02 -1.20399734732E+02  2.19026783537E+02  2.81669780551E+02  0.00000000000E+00 0.00000000000E+00  1.
       25    2    1    2    0    0 -1.19960217486E+02  1.04447961685E+02  5.69972924172E+02  6.04809031653E+02  1.25000000000E+02 0.00000000000E+00  1.
       24    2    5    5    0    0 -1.07207948722E+02  1.03912795943E+02  5.11351785972E+02  5.37931178715E+02  7.48190522996E+01 0.00000000000E+00  1.
      -24    2    5    5    0    0 -1.27522687644E+01  5.35165742212E-01  5.86211382001E+01  6.68778529383E+01  2.95516938389E+01 0.00000000000E+00  1.
       -1    1    6    6    0  804 -2.00337190907E+01  4.13654927552E+01  7.01107776268E+01  8.38330187392E+01  0.00000000000E+00 0.00000000000E+00  1.
        2    1    6    6  804    0 -8.71742296309E+01  6.25473031876E+01  4.41241008345E+02  4.54098159976E+02  8.42936970218E-06 0.00000000000E+00  1.
      -16    1    7    7    0    0 -1.55168501885E+01 -1.17529923759E+01  3.48931490581E+01  3.99554416914E+01  8.33000234328E-07 0.00000000000E+00  1.
       15    1    7    7    0    0  2.76458142413E+00  1.22881581181E+01  2.37279891420E+01  2.69224112469E+01  1.77680000000E+00 0.00000000000E+00  1.
</event>
<event>
11  61   1.0000000E+00   1.2500000E+02   7.8125000E-03   1.2380861E-01
       21   -1    0    0  501  502  0.00000000000E+00  0.00000000000E+00  6.75691093351E+02  6.75691093351E+02  0.00000000000E+00 0.00000000000E+00  1.
       21   -1    0    0  503  501  0.00000000000E+00  0.00000000000E+00 -4.86059969730E+01  4.86059969730E+01  0.00000000000E+00 0.00000000000E+00  1.
       21    1    1    2  503  504 -4.14694112328E+01 -6.75884214309E+00  2.43747796719E+01  4.85749307685E+01  0.00000000000E+00 0.00000000000E+00  1.
       21    1    1    2  504  502 -7.75091625192E+01 -3.87511944146E+01  6.26364802922E+01  1.06923589569E+02  0.00000000000E+00 0.00000000000E+00  1.
       25    2    1    2    0    0  1.18978573752E+02  4.55100365577E+01  5.40073836414E+02  5.68798569987E+02  1.25000000000E+02 0.00000000000E+00  1.
       24    2    5    5    0    0  9.56449952947E+01  3.76537218659E+01  3.62572577781E+02  3.85334749295E+02  8.03630945151E+01 0.00000000000E+00  1.
      -24    2    5    5    0    0  2.33335784573E+01  7.85631469183E+00  1.77501258633E+02  1.83463820692E+02  3.93204669673E+01 0.00000000000E+00  1.
      -11    1    6    6    0    0  4.71121940119E+01  1.08260026035E+01  2.89996049757E+02  2.93997398002E+02  5.10985999635E-04 0.00000000000E+00  1.
       12    1    6    6    0    0  4.85328012828E+01  2.68277192624E+01  7.25765280240E+01  9.13373512928E+01  1.49011611938E-06 0.00000000000E+00  1.
       -2    1    7    7    0  803 -8.66101707743E+00  1.12475858858E+01  5.17132697233E+01  5.36263337414E+01  0.00000000000E+00 0.00000000000E+00  1.
        1    1    7    7  803    0  3.19945955348E+01 -3.39127119398E+00  1.25787988910E+02  1.29837486951E+02  2.58095682795E-06 0.00000000000E+00  1.
</event>
<event>
11  61   1.0000000E+00   1.2500000E+02   7.8125000E-03   1.2380861E-01
       21   -1    0    0  501  502  0.00000000000E+00  0.00000000000E+00  5.60588089598E+02  5.60588089598E+02  0.00000000000E+00 0.00000000000E+00  1.
       21   -1    0    0  503  501  0.00000000000E+00  0.00000000000E+00 -4.12967740175E+02  4.12967740175E+02  0.00000000000E+00 0.00000000000E+00  1.
       21    1    1    2  503  504  1.72200802296E+01 -3.02550657265E+01  1.05825990859E+01  3.63853207852E+01  0.00000000000E+00 0.00000000000E+00  1.
       21    1    1    2  504  502 -3.96052736445E+01 -4.30923969762E+02  1.51818977896E+02  4.58599005086E+02  0.00000000000E+00 0.00000000000E+00  1.
       25    2    1    2    0    0  2.23851934149E+01  4.61179035489E+02 -1.47812275592E+01  4.78571503902E+02  1.25000000000E+02 0.00000000000E+00  1.
       24    2    5    5    0    0  1.65747001810E+01  1.20066302529E+02 -7.64256511540E+00  1.27953255881E+02  4.02863401160E+01 0.00000000000E+00  1.
      -24    2    5    5    0    0  5.81049323390E+00  3.41112732960E+02 -7.13866244380E+00  3.50618248021E+02  8.05638686059E+01 0.00000000000E+00  1.
       -3    1    6    6    0  803  1.44548595830E+01  2.34107685514E+01  1.07371822375E+01  2.95346259860E+01  7.56610036328E-07 0.00000000000E+00  1.
        4    1    6    6  803    0  2.11984059798E+00  9.66555339779E+01 -1.83797473529E+01  9.84186298953E+01  1.27500000000E+00 0.00000000000E+00  1.
       -4    1    7    7    0  804 -4.79315784639E+00  2.99590092965E+02 -3.15674233360E+01  3.01289438922E+02  1.27500000000E+00 0.00000000000E+00  1.
        3    1    7    7  804    0  1.06036510803E+01  4.15226399951E+01  2.44287608922E+01  4.93288090990E+01  1.11758708954E-06 0.00000000000E+00  1.
</event>
<event>
11  61   1.0000000E+00   1.2500000E+02   7.8125000E-03   1.2380861E-01
       21   -1    0    0  501  502  0.00000000000E+00  0.00000000000E+00  9.41282722104E+01  9.41282722104E+01  0.00000000000E+00 0.00000000000E+00  1.
       21   -1    0    0  503  501  0.00000000000E+00  0.00000000000E+00 -3.47850662069E+02  3.47850662069E+02  0.00000000000E+00 0.00000000000E+00  1.
       21    1    1    2  504  502 -1.61353814126E+01 -1.40592162062E+01  4.10828424653E+01  4.63229105162E+01  0.00000000000E+00 0.00000000000E+00  1.
       21    1    1    2  503  504  1.52464475104E+01  9.84682569937E+00  3.69172601008E+01  4.11375525693E+01  0.00000000000E+00 0.00000000000E+00  1.
       25    2    1    2    0    0  8.88933902205E-01  4.21239050679E+00 -3.31722492425E+02  3.54518471194E+02  1.25000000000E+02 0.00000000000E+00  1.
      -24    2    5    5    0    0  6.88390753935E+00 -1.12889775646E+01 -9.21143304987E+01  1.07312736240E+02  5.34429067186E+01 0.00000000000E+00  1.
       24    2    5    5    0    0 -5.99497363714E+00  1.55013680714E+01 -2.39608161926E+02  2.47205734954E+02  5.85010428255E+01 0.00000000000E+00  1.
       -2    1    6    6    0  803 -6.13946151349E+00  2.11939765127E+00 -8.79152500050E+01  8.81548411463E+01  0.00000000000E+00 0.00000000000E+00  1.
        1    1    6    6  803    0  1.30233690528E+01 -1.34083752158E+01 -4.19908049374E+00  1.91578950934E+01  9.04150672208E-07 0.00000000000E+00  1.
       -1    1    7    7    0  804 -3.26968313619E+00 -1.33892926712E+01 -1.36718973118E+01  1.94135200865E+01  6.71586259355E-07 0.00000000000E+00  1.
        2    1    7    7  804    0 -2.72529050095E+00  2.88906607426E+01 -2.25936264614E+02  2.27792214868E+02  2.98023223877E-06 0.00000000000E+00  1.
</event>
<event>
11  61   1.0000000E+00   1.2500000E+02   7.8125000E-03   1.2380861E-01
       21   -1    0    0  501  502  0.00000000000E+00  0.00000000000E+00  8.60349583698E+02  8.60349583698E+02  0.00000000000E+00 0.00000000000E+00  1.
       21   -1    0    0  503  501  0.00000000000E+00  0.00000000000E+00 -6.65253686138E+01  6.65253686138E+01  0.00000000000E+00 0.00000000000E+00  1.
       21    1    1    2  504  502 -2.22113295142E+01  7.75328025147E+00  7.52826554874E+02  7.53194050851E+02  0.00000000000E+00 0.00000000000E+00  1.
       21    1    1    2  503  504 -1.31467198710E+01  1.50083956384E+01  3.66460224682E+01  4.17255215155E+01  0.00000000000E+00 0.00000000000E+00  1.
       25    2    1    2    0    0  3.53580493852E+01 -2.27616758899E+01  4.35163774235E+00  1.31955379946E+02  1.25000000000E+02 0.00000000000E+00  1.
       24    2    5    5    0    0  1.79512652435E+01 -1.36569015786E+01 -2.42287994237E+01  5.15131985779E+01  3.94691781222E+01 0.00000000000E+00  1.
      -24    2    5    5    0    0  1.74067841417E+01 -9.10477431125E+00  2.85804371660E+01  8.04421813681E+01  7.25824366169E+01 0.00000000000E+00  1.
      -11    1    6    6    0    0 -1.19565793911E+01 -2.38302577853E+00 -1.47836934481E+00  1.22810495797E+01  5.10999903765E-04 0.00000000000E+00  1.
       12    1    6    6    0    0  2.99078446347E+01 -1.12738758001E+01 -2.27504300789E+01  3.92321489983E+01  5.26835606386E-07 0.00000000000E+00  1.
      -16    1    7    7    0    0  2.83258827074E+01 -3.52612607257E+01  9.46725226525E+00  4.62097501029E+01  6.03566011266E-07 0.00000000000E+00  1.
       15    1    7    7    0    0 -1.09190985657E+01  2.61564864144E+01  1.91131849008E+01  3.42324312652E+01  1.77680000000E+00 0.00000000000E+00  1.
</event>
<event>
11  61   1.0000000E+00   1.2500000E+02   7.8125000E-03   1.2380861E-01
       21   -1    0    0  502  501  0.00000000000E+00  0.00000000000E+00  4.01121385896E+02  4.01121385896E+02  0.00000000000E+00 0.00000000000E+00  1.
        1   -1    0    0  501    0  0.00000000000E+00  0.00000000000E+00 -6.98699838917E+02  6.98699838917E+02  0.00000000000E+00 0.00000000000E+00  1.
       21    1    1    2  502  503 -1.51008249289E+02  3.65613309809E+01 -1.36875546785E+02  2.07063124636E+02  0.00000000000E+00 0.00000000000E+00  1.
        1    1    1    2  503    0 -1.97658798690E+02  7.70352997298E+01 -3.88990616330E+02  4.43076898175E+02  0.00000000000E+00 0.00000000000E+00  1.
       25    2    1    2    0    0  3.48667047978E+02 -1.13596630711E+02  2.28287710094E+02  4.49681202003E+02  1.25000000000E+02 0.00000000000E+00  1.
      -24    2    5    5    0    0  1.30639596657E+02 -5.89242698577E+01  7.03756181911E+01  1.64406485919E+02  3.92172306949E+01 0.00000000000E+00  1.
       24    2    5    5    0    0  2.18027451321E+02 -5.46723608533E+01  1.57912091903E+02  2.85274716084E+02  7.69441245128E+01 0.00000000000E+00  1.
       -2    1    6    6    0  803  3.01067629689E+01  4.63438330761E-01  2.49997102175E+01  3.91358845883E+01  5.26835606386E-07 0.00000000000E+00  1.
        1    1    6    6  803    0  1.00532833688E+02 -5.93877081885E+01  4.53759079736E+01  1.25270601330E+02  7.45058059692E-07 0.00000000000E+00  1.
      -11    1    7    7    0    0  1.92004853314E+02 -6.02675319432E+01  1.07226944949E+02  2.28025561782E+02  5.10983826924E-04 0.00000000000E+00  1.
       12    1    7    7    0    0  2.60225980067E+01  5.59517108994E+00  5.06851469543E+01  5.72491543023E+01  7.45058059692E-07 0.00000000000E+00  1.
</event>
<event>
11  61   1.0000000E+00   1.2500000E+02   7.8125000E-03   1.2380861E-01
        1   -1    0    0  501    0  0.00000000000E+00  0.00000000000E+00  1.00182027457E+03  1.00182027457E+03  0.00000000000E+00 0.00000000000E+00  1.
       21   -1    0    0  502  501  0.00000000000E+00  0.00000000000E+00 -9.70103731023E+00  9.70103731023E+00  0.00000000000E+00 0.00000000000E+00  1.
       21    1    1    2  502  503 -1.42288520426E+01  7.37003828765E+00  4.12729261190E+01  4.42745087521E+01  0.00000000000E+00 0.00000000000E+00  1.
        1    1    1    2  503    0  1.74127313825E+01  1.11154549645E+01  4.57478497286E+02  4.57944682284E+02  0.00000000000E+00 0.00000000000E+00  1.
       25    2    1    2    0    0 -3.18387933993E+00 -1.84854932521E+01  4.93367813856E+02  5.09302120846E+02  1.25000000000E+02 0.00000000000E+00  1.
      -24    2    5    5    0    0  1.69133081436E-01 -1.11146616473E+01  2.24037775457E+02  2.28621780299E+02  4.41749848393E+01 0.00000000000E+00  1.
       24    2    5    5    0    0 -3.35301242137E+00 -7.37083160484E+00  2.69330038399E+02  2.80680340547E+02  7.85952424455E+01 0.00000000000E+00  1.
       -4    1    6    6    0  804  4.51228476816E+00  1.27468989969E+01  1.52106220211E+02  1.52711401015E+02  1.27500000000E+00 0.00000000000E+00  1.
        3    1    6    6  804    0 -4.34315168673E+00 -2.38615606442E+01  7.19315552461E+01  7.59103792842E+01  1.49011611938E-06 0.00000000000E+00  1.
       -3    1    7    7    0  803 -3.98006217061E+01  1.40397477068E+00  1.67260047133E+02  1.71935988089E+02  2.10734242554E-06 0.00000000000E+00  1.
        4    1    7    7  803    0  3.64476092848E+01 -8.77480637551E+00  1.02069991266E+02  1.08744352458E+02  1.27500000000E+00 0.00000000000E+00  1.
</event>
<event>
11  61   1.0000000E+00   1.2500000E+02   7.8125000E-03   1.2380861E-01
       21   -1    0    0  502  501  0.00000000000E+00  0.00000000000E+00  6.92327842133E+02  6.92327842133E+02  0.00000000000E+00 0.00000000000E+00  1.
        1   -1    0    0  501    0  0.00000000000E+00  0.00000000000E+00 -1.20068672293E+02  1.20068672293E+02  0.00000000000E+00 0.00000000000E+00  1.
       21    1    1    2  502  503 -5.49426567497E+01  5.08838318655E+00  3.73905527065E+02  3.77954931631E+02  0.00000000000E+00 0.00000000000E+00  1.
        1    1    1    2  503    0  2.00684547815E+01  3.61284581286E+00 -1.03641604373E+02  1.05628489004E+02  0.00000000000E+00 0.00000000000E+00  1.
       25    2    1    2    0    0  3.48742019682E+01 -8.70122899941E+00  3.01995247148E+02  3.28813093791E+02  1.25000000000E+02 0.00000000000E+00  1.
       24    2    5    5    0    0  1.39616892920E+01  1.72128442074E+01  2.34563224708E+02  2.49237377757E+02  8.12905487245E+01 0.00000000000E+00  1.
      -24    2    5    5    0    0  2.09125126762E+01 -2.59140732068E+01  6.74320224397E+01  7.95757160342E+01  2.60066252222E+01 0.00000000000E+00  1.
      -15    1    6    6    0    0 -8.51330699088E+00  3.19532615465E+01  2.10726012961E+02  2.13312205173E+02  1.77680000000E+00 0.00000000000E+00  1.
       16    1    6    6    0    0  2.24749962829E+01 -1.47404173391E+01  2.38372117475E+01  3.59251725833E+01  4.56253018749E-07 0.00000000000E+00  1.
      -14    1    7    7    0    0  1.55709324853E+01 -5.24725099453E+00  1.25109286744E+01  2.06521407548E+01  3.22619603494E-07 0.00000000000E+00  1.
       13    1    7    7    0    0  5.34158019090E+00 -2.06668222123E+01  5.49210937653E+01  5.89235752794E+01  1.05660000002E-01 0.00000000000E+00  1.
</event>
<event>
11  61   1.0000000E+00   1.2500000E+02   7.8125000E-03   1.2380861E-01
       21   -1    0    0  502  501  0.00000000000E+00  0.00000000000E+00  3.14960055858E+03  3.14960055858E+03  0.00000000000E+00 0.00000000000E+00  1.
        2   -1    0    0  501    0  0.00000000000E+00  0.00000000000E+00 -1.25047663715E+03  1.25047663715E+03  0.00000000000E+00 0.00000000000E+00  1.
       21    1    1    2  502  503  2.08888803375E+01 -2.96987993678E+02 -4.31218361429E+02  5.24010962618E+02  0.00000000000E+00 0.00000000000E+00  1.
        2    1    1    2  503    0  8.14639395206E+01 -2.62071608147E+02 -7.20093476440E+02  7.70618268698E+02  0.00000000000E+00 0.00000000000E+00  1.
       25    2    1    2    0    0 -1.02352819858E+02  5.59059601825E+02  3.05043575929E+03  3.10544796441E+03  1.25000000000E+02 0.00000000000E+00  1.
       24    2    5    5    0    0 -5.60907015214E+01  2.68031908463E+02  1.44119904281E+03  1.46911557241E+03  7.91113982024E+01 0.00000000000E+00  1.
      -24    2    5    5    0    0 -4.62621183366E+01  2.91027693362E+02  1.60923671648E+03  1.63633239200E+03  3.32202584484E+01 0.00000000000E+00  1.
       -1    1    6    6    0  804  7.62073384955E+00  7.47792558556E+01  2.65404096054E+02  2.75842975065E+02  5.96046447754E-06 0.00000000000E+00  1.
        2    1    6    6  804    0 -6.37114353710E+01  1.93252652607E+02  1.17579494676E+03  1.19327259734E+03  1.68587394044E-05 0.00000000000E+00  1.
       -2    1    7    7    0  803 -3.48743421191E+01  2.40749814743E+02  1.38915187521E+03  1.41029061737E+03  2.92001931999E-05 0.00000000000E+00  1.
        1    1    7    7  803    0 -1.13877762175E+01  5.02778786189E+01  2.20084841268E+02  2.26041774639E+02  5.16191365590E-06 0.00000000000E+00  1.
</event>
<event>
11  61   1.0000000E+00   1.2500000E+02   7.8125000E-03   1.2380861E-01
        2   -1    0    0  501    0  0.00000000000E+00  0.00000000000E+00  2.59856700285E+03  2.59856700285E+03  0.00000000000E+00 0.00000000000E+00  1.
       21   -1    0    0  502  501  0.00000000000E+00  0.00000000000E+00 -3.00133065895E+01  3.00133065895E+01  0.00000000000E+00 0.00000000000E+00  1.
       21    1    1    2  502  503 -9.49263519550E+00  2.17531273265E+01  3.65972602677E+01  4.36195842546E+01  0.00000000000E+00 0.00000000000E+00  1.
        2    1    1    2  503    0 -9.97120949512E+01  1.63273001280E+02  4.60715342422E+02  4.98857897171E+02  0.00000000000E+00 0.00000000000E+00  1.
       25    2    1    2    0    0  1.09204730147E+02 -1.85026128606E+02  2.07124109357E+03  2.08610282802E+03  1.25000000000E+02 0.00000000000E+00  1.
       24    2    5    5    0    0  9.41393098303E+01 -1.36566749054E+02  1.51853653075E+03  1.52985844485E+03  8.36718557833E+01 0.00000000000E+00  1.
      -24    2    5    5    0    0  1.50654203167E+01 -4.84593795524E+01  5.52704562816E+02  5.56244383167E+02  3.67450907151E+01 0.00000000000E+00  1.
       -1    1    6    6    0  804  4.57781877508E+01 -6.66526749029E+01  1.08854542776E+03  1.09154448826E+03  1.68587394044E-05 0.00000000000E+00  1.
        2    1    6    6  804    0  4.83611220795E+01 -6.99140741507E+01  4.29991102991E+02  4.38313956593E+02  5.96046447754E-06 0.00000000000E+00  1.
      -16    1    7    7    0    0  2.71999319845E+01 -3.57740684751E+01  4.08377666125E+02  4.10842960831E+02  0.00000000000E+00 0.00000000000E+00  1.
       15    1    7    7    0    0 -1.21345116678E+01 -1.26853110773E+01  1.44326896691E+02  1.45401422336E+02  1.77680000000E+00 0.00000000000E+00  1.
</event>
<event>
11  61   1.0000000E+00   1.2500000E+02   7.8125000E-03   1.2380861E-01
        2   -1    0    0  501    0  0.00000000000E+00  0.00000000000E+00  1.98364524294E+03  1.98364524294E+03  0.00000000000E+00 0.00000000000E+00  1.
       21   -1    0    0  502  501  0.00000000000E+00  0.00000000000E+00 -1.18069946012E+02  1.18069946012E+02  0.00000000000E+00 0.00000000000E+00  1.
       21    1    1    2  502  503  3.11269613916E+01 -1.01476752879E+01  1.75986839939E+03  1.76017290236E+03  0.00000000000E+00 0.00000000000E+00  1.
        2    1    1    2  503    0 -2.45394965124E+00 -5.76043148649E+01  1.72484150448E+02  1.81865502820E+02  0.00000000000E+00 0.00000000000E+00  1.
       25    2    1    2    0    0 -2.86730117403E+01  6.77519901528E+01 -6.67772529037E+01  1.59676783777E+02  1.25000000000E+02 0.00000000000E+00  1.
      -24    2    5    5    0    0 -1.19218869993E+01  5.96066403919E+01 -2.00554610342E+01  1.03203296438E+02  8.09544063651E+01 0.00000000000E+00  1.
       24    2    5    5    0    0 -1.67511247410E+01  8.14534976093E+00 -4.67217918695E+01  5.64734873391E+01  2.56784351924E+01 0.00000000000E+00  1.
       -4    1    6    6    0  804 -5.77213956280E+00 -2.02073974917E+01 -2.05907814611E+00  2.11547142815E+01  1.27500000000E+00 0.00000000000E+00  1.
        3    1    6    6  804    0 -6.14974743653E+00  7.98140378836E+01 -1.79963828881E+01  8.20485821564E+01  0.00000000000E+00 0.00000000000E+00  1.
       -3    1    7    7    0  803 -7.49287984698E+00  1.65576710599E+01 -2.05223885128E+01  2.74129193922E+01  3.72529029846E-07 0.00000000000E+00  1.
        4    1    7    7  803    0 -9.25824489399E+00 -8.41232129899E+00 -2.61994033567E+01  2.90605679469E+01  1.27500000000E+00 0.00000000000E+00  1.
</event>
<event>
11  61   1.0000000E+00   1.2500000E+02   7.8125000E-03   1.2380861E-01
        2   -1    0    0  501    0  0.00000000000E+00  0.00000000000E+00  1.80727766535E+02  1.80727766535E+02  0.00000000000E+00 0.00000000000E+00  1.
       21   -1    0    0  502  501  0.00000000000E+00  0.00000000000E+00 -3.71904359107E+02  3.71904359107E+02  0.00000000000E+00 0.00000000000E+00  1.
       21    1    1    2  502  503 -1.76428157021E+01 -1.18232059827E+01  1.17442875631E+02  1.19347753150E+02  0.00000000000E+00 0.00000000000E+00  1.
        2    1    1    2  503    0  3.69715815398E+00 -1.59535612853E+01  4.97996155169E+01  5.24231513907E+01  0.00000000000E+00 0.00000000000E+00  1.
       25    2    1    2    0    0  1.39456575482E+01  2.77767672680E+01 -3.58419083720E+02  3.80861221101E+02  1.25000000000E+02 0.00000000000E+00  1.
       24    2    5    5    0    0  1.02700657197E+01  1.03457919564E+01 -1.49598782629E+02  1.56813834369E+02  4.47020494427E+01 0.00000000000E+00  1.
      -24    2    5    5    0    0  3.67559182853E+00  1.74309753116E+01 -2.08820301091E+02  2.24047386732E+02  7.92083611625E+01 0.00000000000E+00  1.
      -15    1    6    6    0    0  7.97051442528E+00  2.34371844419E+01 -1.34182941198E+02  1.36458966146E+02  1.77680000000E+00 0.00000000000E+00  1.
       16    1    6    6    0    0  2.29955129439E+00 -1.30913924855E+01 -1.54158414309E+01  2.03548682233E+01  6.45239206988E-07 0.00000000000E+00  1.
       -4    1    7    7    0  803 -1.63724534595E+01 -2.54554829749E+01 -5.13987894123E+01  5.96615456036E+01  1.27500000000E+00 0.00000000000E+00  1.
        1    1    7    7  803    0  2.00480452880E+01  4.28864582865E+01 -1.57421511679E+02  1.64385841128E+02  2.10734242554E-06 0.00000000000E+00  1.
</event>
<event>
11  61   1.0000000E+00   1.2500000E+02   7.8125000E-03   1.2380861E-01
       21   -1    0    0  502  501  0.00000000000E+00  0.00000000000E+00  2.29635413395E+02  2.29635413395E+02  0.00000000000E+00 0.00000000000E+00  1.
        4   -1    0    0  501    0  0.00000000000E+00  0.00000000000E+00 -3.88615567029E+02  3.88615567029E+02  0.00000000000E+00 0.00000000000E+00  1.
       21    1    1    2  502  503 -1.87800197078E+01  4.23378043194E+00  4.49483438063E+00  1.97691065322E+01  0.00000000000E+00 0.00000000000E+00  1.
        4    1    1    2  503    0 -1.99597778133E+02  1.69652159774E+01  1.08121555972E+02  2.27634273462E+02  0.00000000000E+00 0.00000000000E+00  1.
       25    2    1    2    0    0  2.18377797841E+02 -2.11989964093E+01 -2.71596543987E+02  3.70847600430E+02  1.25000000000E+02 0.00000000000E+00  1.
      -24    2    5    5    0    0  1.25069441285E+02 -4.10931015255E+01 -1.57057488804E+02  2.20122768880E+02  8.03490538441E+01 0.00000000000E+00  1.
       24    2    5    5    0    0  9.33083565563E+01  1.98941051162E+01 -1.14539055183E+02  1.50724831550E+02  2.22835109894E+01 0.00000000000E+00  1.
       -2    1    6    6    0  803  3.71650340175E+01  2.12142026192E-01 -1.01815093856E+02  1.08386337214E+02  2.10734242554E-06 0.00000000000E+00  1.
        1    1    6    6  803    0  8.79044072672E+01 -4.13052435516E+01 -5.52423949485E+01  1.11736431666E+02  1.49011611938E-06 0.00000000000E+00  1.
       -3    1    7    7    0  804  4.38385018532E+01 -9.70747915276E-01 -5.84604792013E+01  7.30779325426E+01  7.45058059692E-07 0.00000000000E+00  1.
        4    1    7    7  804    0  4.94698547031E+01  2.08648530314E+01 -5.60785759816E+01  7.76468990076E+01  1.27500000000E+00 0.00000000000E+00  1.
</event>
<event>
11  61   1.0000000E+00   1.2500000E+02   7.8125000E-03   1.2380861E-01
        2   -1    0    0  501    0  0.00000000000E+00  0.00000000000E+00  1.41102511925E+03  1.41102511925E+03  0.00000000000E+00 0.00000000000E+00  1.
       21   -1    0    0  502  501  0.00000000000E+00  0.00000000000E+00 -4.67158107128E+02  4.67158107128E+02  0.00000000000E+00 0.00000000000E+00  1.
       21    1    1    2  502  503 -1.50075929465E+01 -9.86462696779E+00 -3.04883327483E+01  3.53847021328E+01  0.00000000000E+00 0.00000000000E+00  1.
        2    1    1    2  503    0  6.41721101140E+01  1.17277414572E+01  1.39740813404E+03  1.39892998135E+03  0.00000000000E+00 0.00000000000E+00  1.
       25    2    1    2    0    0 -4.91645171675E+01 -1.86311448940E+00 -4.23052789173E+02  4.43868542894E+02  1.25000000000E+02 0.00000000000E+00  1.
       24    2    5    5    0    0 -2.46285920989E+01  9.90350506953E+00 -2.53702423299E+02  2.67697278603E+02  8.11927732151E+01 0.00000000000E+00  1.
      -24    2    5    5    0    0 -2.45359250686E+01 -1.17666195589E+01 -1.69350365874E+02  1.76171264291E+02  4.02032708287E+01 0.00000000000E+00  1.
       -3    1    6    6    0  803 -2.49948700795E+01  3.75555152551E+01 -2.17466428347E+02  2.22096392844E+02  0.00000000000E+00 0.00000000000E+00  1.
        4    1    6    6  803    0  3.66277980579E-01 -2.76520101855E+01 -3.62359949521E+01  4.56008857593E+01  1.27500000000E+00 0.00000000000E+00  1.
       -2    1    7    7    0  804 -1.02967499162E+01 -2.55164353531E+01 -7.82960676052E+01  8.29902749388E+01  0.00000000000E+00 0.00000000000E+00  1.
        1    1    7    7  804    0 -1.42391751524E+01  1.37498157942E+01 -9.10542982691E+01  9.31809893523E+01  2.35608045769E-06 0.00000000000E+00  1.
</event>
<event>
11  61   1.0000000E+00   1.2500000E+02   7.8125000E-03   1.2380861E-01
        2   -1    0    0  501    0  0.00000000000E+00  0.00000000000E+00  6.66716212834E+02  6.66716212834E+02  0.00000000000E+00 0.00000000000E+00  1.
       21   -1    0    0  502  501  0.00000000000E+00  0.00000000000E+00 -3.50556954478E+02  3.50556954478E+02  0.00000000000E+00 0.00000000000E+00  1.
       21    1    1    2  502  503  3.74356780947E+01  3.17979013135E+00 -4.27303993770E+01  5.68984014768E+01  0.00000000000E+00 0.00000000000E+00  1.
        2    1    1    2  503    0 -2.44352602740E+01  3.36331803243E+02  4.72902573996E+02  5.80820977850E+02  0.00000000000E+00 0.00000000000E+00  1.
       25    2    1    2    0    0 -1.30004178207E+01 -3.39511593375E+02 -1.14012916263E+02  3.79553787986E+02  1.25000000000E+02 0.00000000000E+00  1.
      -24    2    5    5    0    0 -2.62088643249E+01 -2.03804588864E+02 -5.03987790403E+01  2.19912080592E+02  5.99839249295E+01 0.00000000000E+00  1.
       24    2    5    5    0    0  1.32084465042E+01 -1.35707004511E+02 -6.36141372227E+01  1.59641707394E+02  5.33653647317E+01 0.00000000000E+00  1.
       -4    1    6    6    0  804 -1.89156229841E+01 -1.41531274295E+02 -6.28062320220E+01  1.55997278188E+02  1.27500000000E+00 0.00000000000E+00  1.
        3    1    6    6  804    0 -7.29324134077E+00 -6.22733145697E+01  1.24074529816E+01  6.39148024033E+01  1.85330852327E-06 0.00000000000E+00  1.
       -3    1    7    7    0  803  6.55214127238E-02  2.84268247368E+00  4.00148572941E+00  4.90887204400E+00  4.58623180250E-07 0.00000000000E+00  1.
        4    1    7    7  803    0  1.31429250914E+01 -1.38549686984E+02 -6.76156229521E+01  1.54732835350E+02  1.27500000000E+00 0.00000000000E+00  1.
</event>
<event>
11  61   1.0000000E+00   1.2500000E+02   7.8125000E-03   1.2380861E-01
        2   -1    0    0  501    0  0.00000000000E+00  0.00000000000E+00  6.93074255986E+02  6.93074255986E+02  0.00000000000E+00 0.00000000000E+00  1.
       21   -1    0    0  502  501  0.00000000000E+00  0.00000000000E+00 -7.67680438615E+01  7.67680438615E+01  0.00000000000E+00 0.00000000000E+00  1.
       21    1    1    2  502  503  9.16824466934E+01  4.40527911995E+01  2.55121418025E+02  2.74651155795E+02  0.00000000000E+00 0.00000000000E+00  1.
        2    1    1    2  503    0  1.80616296497E+01  1.17423114743E+01  3.12325119186E+02  3.13067220289E+02  0.00000000000E+00 0.00000000000E+00  1.
       25    2    1    2    0    0 -1.09744076343E+02 -5.57951026738E+01  4.88596749130E+01  1.82123923765E+02  1.25000000000E+02 0.00000000000E+00  1.
      -24    2    5    5    0    0 -3.10751717015E+01 -1.60801326226E+01  1.82504546834E+01  7.15556579491E+01  5.96900002257E+01 0.00000000000E+00  1.
       24    2    5    5    0    0 -7.86689046415E+01 -3.97149700512E+01  3.06092202296E+01  1.10568265816E+02  5.93493187728E+01 0.00000000000E+00  1.
       -2    1    6    6    0  803 -8.75682848734E+00  9.68751811932E+00  3.21811704631E+01  3.47297823898E+01  3.72529029846E-07 0.00000000000E+00  1.
        1    1    6    6  803    0 -2.23183432141E+01 -2.57676507419E+01 -1.39307157797E+01  3.68258755594E+01  5.58793544769E-07 0.00000000000E+00  1.
      -15    1    7    7    0    0 -6.48981969276E+01 -4.08164535289E+01 -3.26819246019E-01  7.66878261016E+01  1.77680000000E+00 0.00000000000E+00  1.
       16    1    7    7    0    0 -1.37707077139E+01  1.10148347766E+00  3.09360394756E+01  3.38804397143E+01  6.45239206988E-07 0.00000000000E+00  1.
</event>
<event>
11  61   1.0000000E+00   1.2500000E+02   7.8125000E-03   1.2380861E-01
        2   -1    0    0  501    0  0.00000000000E+00  0.00000000000E+00  1.10300856549E+03  1.10300856549E+03  0.00000000000E+00 0.00000000000E+00  1.
       21   -1    0    0  502  501  0.00000000000E+00  0.00000000000E+00 -6.63567394037E+01  6.63567394037E+01  0.00000000000E+00 0.00000000000E+00  1.
       21    1    1    2  502  503  2.92401911306E+01 -9.08196678512E+00  1.18449304523E+02  1.22342587189E+02  0.00000000000E+00 0.00000000000E+00  1.
        2    1    1    2  503    0  6.73039468480E+01 -1.35176500897E+01  8.80376887102E+02  8.83049268993E+02  0.00000000000E+00 0.00000000000E+00  1.
       25    2    1    2    0    0 -9.65441379786E+01  2.25996168748E+01  3.78256344642E+01  1.63973448715E+02  1.25000000000E+02 0.00000000000E+00  1.
      -24    2    5    5    0    0 -5.62668089832E+01 -4.32764986552E-02  3.92374201431E+01  1.05895279981E+02  8.06739085257E+01 0.00000000000E+00  1.
       24    2    5    5    0    0 -4.02773289954E+01  2.26428933735E+01 -1.41178567890E+00  5.80781687337E+01  3.51584512363E+01 0.00000000000E+00  1.
       -2    1    6    6    0  803  9.20167974163E+00 -2.37756825283E+01  2.31217139137E+01  3.44175484900E+01  2.63417803193E-07 0.00000000000E+00  1.
        1    1    6    6  803    0 -6.54684887248E+01  2.37324060296E+01  1.61157062294E+01  7.14777314913E+01  1.14821158405E-06 0.00000000000E+00  1.
       -1    1    7    7    0  804 -4.50213026218E+01  2.40507613102E+01 -5.91896655144E+00  5.13847348383E+01  1.27866214307E-06 0.00000000000E+00  1.
        2    1    7    7  804    0  4.74397362638E+00 -1.40786793675E+00  4.50718087253E+00  6.69343389546E+00  2.55053191215E-07 0.00000000000E+00  1.
</event>
<event>
11  61   1.0000000E+00   1.2500000E+02   7.8125000E-03   1.2380861E-01
       21   -1    0    0  502  501  0.00000000000E+00  0.00000000000E+00  4.32060412380E+01  4.32060412380E+01  0.00000000000E+00 0.00000000000E+00  1.
        2   -1    0    0  501    0  0.00000000000E+00  0.00000000000E+00 -1.38101000073E+03  1.38101000073E+03  0.00000000000E+00 0.00000000000E+00  1.
       21    1    1    2  502  503 -2.21881757443E+01 -2.41739988082E+01  4.03596424728E+00  3.30603443516E+01  0.00000000000E+00 0.00000000000E+00  1.
        2    1    1    2  503    0 -1.66387206908E+01 -2.35465712991E+01 -1.16809911797E+03  1.16845489320E+03  0.00000000000E+00 0.00000000000E+00  1.
       25    2    1    2    0    0  3.88268964352E+01  4.77205701073E+01 -1.73740805778E+02  2.22700804423E+02  1.25000000000E+02 0.00000000000E+00  1.
      -24    2    5    5    0    0 -1.29638534259E+00  6.91900848138E+00 -7.28917844853E+01  8.13923303818E+01  3.55238779727E+01 0.00000000000E+00  1.
       24    2    5    5    0    0  4.01232817778E+01  4.08015616259E+01 -1.00849021293E+02  1.41308474041E+02  8.07645625780E+01 0.00000000000E+00  1.
       -4    1    6    6    0  803 -7.29918357002E+00  1.38217821552E+01 -7.00929729191E+01  7.18259717677E+01  1.27500000000E+00 0.00000000000E+00  1.
        3    1    6    6  803    0  6.00279822742E+00 -6.90277367384E+00 -2.79881156618E+00  9.56635861415E+00  1.80349841072E-07 0.00000000000E+00  1.
       -3    1    7    7    0  804  5.93427975960E+01  7.29385982708E+00 -5.39093236462E+01  8.05045538692E+01  1.29047841398E-06 0.00000000000E+00  1.
        4    1    7    7  804    0 -1.92195158182E+01  3.35077017988E+01 -4.69396976465E+01  6.08039201719E+01  1.27500000000E+00 0.00000000000E+00  1.
</event>
<event>
11  61   1.0000000E+00   1.2500000E+02   7.8125000E-03   1.2380861E-01
       21   -1    0    0  502  501  0.00000000000E+00  0.00000000000E+00  4.79949936290E+02  4.79949936290E+02  0.00000000000E+00 0.00000000000E+00  1.
        2   -1    0    0  501    0  0.00000000000E+00  0.00000000000E+00 -1.22785076916E+02  1.22785076916E+02  0.00000000000E+00 0.00000000000E+00  1.
       21    1    1    2  502  503  8.16952275057E+00 -1.85424176029E+01 -1.84875755520E+01  2.74290503358E+01  0.00000000000E+00 0.00000000000E+00  1.
        2    1    1    2  503    0 -1.57525972972E+02  1.32080464448E+02  2.21535673744E+02  3.02221336095E+02  0.00000000000E+00 0.00000000000E+00  1.
       25    2    1    2    0    0  1.49356450222E+02 -1.13538046845E+02  1.54116761181E+02  2.73084626775E+02  1.25000000000E+02 0.00000000000E+00  1.
       24    2    5    5    0    0  2.91753480464E+01 -2.92969102442E+01  3.22136545835E+01  6.65109080072E+01  4.09447366438E+01 0.00000000000E+00  1.
      -24    2    5    5    0    0  1.20181102176E+02 -8.42411366008E+01  1.21903106597E+02  2.06573718768E+02  7.91976481437E+01 0.00000000000E+00  1.
      -15    1    6    6    0    0 -6.03192206830E+00 -2.09151133483E+01  9.77182781486E+00  2.39263805724E+01  1.77680000000E+00 0.00000000000E+00  1.
       16    1    6    6    0    0  3.52072701147E+01 -8.38179689587E+00  2.24418267686E+01  4.25845274348E+01  2.63417803193E-07 0.00000000000E+00  1.
       -4    1    7    7    0  804  1.23852449770E+02 -9.39657663529E+01  1.18990312668E+02  1.95778739127E+02  1.27500000000E+00 0.00000000000E+00  1.
        3    1    7    7  804    0 -3.67134759409E+00  9.72462975208E+00  2.91279392910E+00  1.07949796408E+01  5.75991201999E-07 0.00000000000E+00  1.
</event>
<event>
11  61   1.0000000E+00   1.2500000E+02   7.8125000E-03   1.2380861E-01
        2   -1    0    0  501    0  0.00000000000E+00  0.00000000000E+00  1.10313123398E+03  1.10313123398E+03  0.00000000000E+00 0.00000000000E+00  1.
       21   -1    0    0  502  501  0.00000000000E+00  0.00000000000E+00 -1.19376033353E+02  1.19376033353E+02  0.00000000000E+00 0.00000000000E+00  1.
       21    1    1    2  502  503  1.72253846782E+01  3.36280543072E+01 -6.27933718026E+01  7.32841555600E+01  0.00000000000E+00 0.00000000000E+00  1.
        2    1    1    2  503    0  2.38479935717E+01  1.40835739712E+01  1.00194674001E+03  1.00232945865E+03  0.00000000000E+00 0.00000000000E+00  1.
       25    2    1    2    0    0 -4.10733782499E+01 -4.77116282784E+01  4.46018324196E+01  1.46893653127E+02  1.25000000000E+02 0.00000000000E+00  1.
       24    2    5    5    0    0 -3.56047932197E+01 -2.87908429325E+01  2.28413768837E+01  9.49348914684E+01  7.99643119348E+01 0.00000000000E+00  1.
      -24    2    5    5    0    0 -5.46858503023E+00 -1.89207853459E+01  2.17604555359E+01  5.19587616586E+01  4.28753302917E+01 0.00000000000E+00  1.
      -15    1    6    6    0    0 -4.55688409591E+01  3.34481129979E+00  3.66155662848E+01  5.85795505410E+01  1.77680000000E+00 0.00000000000E+00  1.
       16    1    6    6    0    0  9.96404773941E+00 -3.21356542323E+01 -1.37741894012E+01  3.63553409274E+01  3.72529029846E-07 0.00000000000E+00  1.
       -4    1    7    7    0  803  1.75984095940E+01 -5.86336337073E+00  1.66620094751E+01  2.49666023921E+01  1.27500000000E+00 0.00000000000E+00  1.
        3    1    7    7  803    0 -2.30669946242E+01 -1.30574219752E+01  5.09844606078E+00  2.69921592665E+01  1.86264514923E-07 0.00000000000E+00  1.
</event>
<event>
11  61   1.0000000E+00   1.2500000E+02   7.8125000E-03   1.2380861E-01
       21   -1    0    0  502  501  0.00000000000E+00  0.00000000000E+00  3.11996583128E+02  3.11996583128E+02  0.00000000000E+00 0.00000000000E+00  1.
        2   -1    0    0  501    0  0.00000000000E+00  0.00000000000E+00 -1.46872620679E+03  1.46872620679E+03  0.00000000000E+00 0.00000000000E+00  1.
       21    1    1    2  502  503 -5.93611435964E+01  2.18747121928E+01 -4.46507628423E+02  4.50967083768E+02  0.00000000000E+00 0.00000000000E+00  1.
        2    1    1    2  503    0 -9.80764340100E+01 -7.39383685635E+00 -9.84493282036E+02  9.89394096457E+02  0.00000000000E+00 0.00000000000E+00  1.
       25    2    1    2    0    0  1.57437577606E+02 -1.44808753365E+01  2.74271286795E+02  3.40361609693E+02  1.25000000000E+02 0.00000000000E+00  1.
      -24    2    5    5    0    0  2.56241710240E+01  1.79862853915E+01  5.79930445627E+01  7.21607298475E+01  2.93917184190E+01 0.00000000000E+00  1.
       24    2    5    5    0    0  1.31813406582E+02 -3.24671607280E+01  2.16278242232E+02  2.68200879845E+02  8.20155058894E+01 0.00000000000E+00  1.
       -4    1    6    6    0  803  1.78865113398E+01  1.03039463931E+01  1.00512032217E+01  2.29945843708E+01  1.27500000000E+00 0.00000000000E+00  1.
        3    1    6    6  803    0  7.73765968412E+00  7.68233899846E+00  4.79418413410E+01  4.91661454767E+01  9.12506037497E-07 0.00000000000E+00  1.
      -11    1    7    7    0    0  8.82888628011E+01 -9.60264124464E+00  1.95690184119E+02  2.14899469926E+02  5.10994690391E-04 0.00000000000E+00  1.
       12    1    7    7    0    0  4.35245437809E+01 -2.28645194834E+01  2.05880581131E+01  5.33014099196E+01  8.73658016291E-07 0.00000000000E+00  1.
</event>
<event>
11  61   1.0000000E+00   1.2500000E+02   7.8125000E-03   1.2380861E-01
        2   -1    0    0  501    0  0.00000000000E+00  0.00000000000E+00  5.09900651811E+02  5.09900651811E+02  0.00000000000E+00 0.00000000000E+00  1.
       21   -1    0    0  502  501  0.00000000000E+00  0.00000000000E+00 -5.97717206649E+01  5.97717206649E+01  0.00000000000E+00 0.00000000000E+00  1.
       21    1    1    2  502  503  1.22983412132E+01 -2.36137721320E+01  2.98483753223E+01  3.99973116632E+01  0.00000000000E+00 0.00000000000E+00  1.
        2    1    1    2  503    0 -8.61421340498E+01  9.84965036564E+01  2.98500167201E+02  3.25920816012E+02  0.00000000000E+00 0.00000000000E+00  1.
       25    2    1    2    0    0  7.38437928366E+01 -7.48827315244E+01  1.21780388623E+02  2.03754244801E+02  1.25000000000E+02 0.00000000000E+00  1.
      -24    2    5    5    0    0  5.05119255185E+01 -5.62593542952E+01  1.01246592182E+02  1.49180988633E+02  7.92939176472E+01 0.00000000000E+00  1.
       24    2    5    5    0    0  2.33318673181E+01 -1.86233772292E+01  2.05337964409E+01  5.45732561676E+01  4.08092793429E+01 0.00000000000E+00  1.
      -12    1    6    6    0    0  6.24309764774E+01 -1.37153799172E+01  7.15648327836E+01  9.59544879698E+01  1.49011611938E-06 0.00000000000E+00  1.
       11    1    6    6    0    0 -1.19190509590E+01 -4.25439743780E+01  2.96817593986E+01  5.32265006636E+01  5.10999443085E-04 0.00000000000E+00  1.
       -3    1    7    7    0  803 -7.14178011203E+00 -1.43147449188E+01 -2.39168282548E+00  1.61751999059E+01  0.00000000000E+00 0.00000000000E+00  1.
        4    1    7    7  803    0  3.04736474302E+01 -4.30863231040E+00  2.29254792663E+01  3.83980562617E+01  1.27500000000E+00 0.00000000000E+00  1.
</event>
<event>
11  61   1.0000000E+00   1.2500000E+02   7.8125000E-03   1.2380861E-01
       21   -1    0    0  502  501  0.00000000000E+00  0.00000000000E+00  4.80357119597E+02  4.80357119597E+02  0.00000000000E+00 0.00000000000E+00  1.
        2   -1    0    0  501    0  0.00000000000E+00  0.00000000000E+00 -3.41376319904E+02  3.41376319904E+02  0.00000000000E+00 0.00000000000E+00  1.
       21    1    1    2  502  503  3.69900562513E+00 -3.78906787257E+01  1.83342771192E+02  1.87253726065E+02  0.00000000000E+00 0.00000000000E+00  1.
        2    1    1    2  503    0 -6.77277623272E+00 -3.07600826324E+01 -3.21365738785E+02  3.22905545394E+02  0.00000000000E+00 0.00000000000E+00  1.
       25    2    1    2    0    0  3.07377060759E+00  6.86507613582E+01  2.77003767286E+02  3.11574168042E+02  1.25000000000E+02 0.00000000000E+00  1.
      -24    2    5    5    0    0  2.20291853422E+00  1.97986532999E+00  1.30395729993E+02  1.31637911023E+02  1.77966429737E+01 0.00000000000E+00  1.
       24    2    5    5    0    0  8.70852073375E-01  6.66708960282E+01  1.46608037293E+02  1.79936257019E+02  8.02332426790E+01 0.00000000000E+00  1.
       -4    1    6    6    0  803 -3.44951872909E+00  7.44440761057E+00  3.74092261151E+01  3.83196321442E+01  1.27500000000E+00 0.00000000000E+00  1.
        3    1    6    6  803    0  5.65243726330E+00 -5.46454228058E+00  9.29865038781E+01  9.33182788783E+01  1.82501207499E-06 0.00000000000E+00  1.
      -15    1    7    7    0    0  1.38308933412E+01 -7.97177708168E+00  7.14036927516E+01  7.31880263244E+01  1.77680000000E+00 0.00000000000E+00  1.
       16    1    7    7    0    0 -1.29600412678E+01  7.46426731099E+01  7.52043445412E+01  1.06748230695E+02  2.10734242554E-06 0.00000000000E+00  1.
</event>
</LesHouchesEvents>
