<LesHouchesEvents version="1.0">
<!--
Output from the JHUGenerator v7.5.0 described in arXiv:1001.3396 [hep-ph], arXiv:1208.4018 [hep-ph], arXiv:1309.4819 [hep-ph], arXiv:1606.03107 [hep-ph]
   
   Command line: ./JHUGen Seed=765543533 PDFSet=3 Process=90 VegasNc0=100000 VegasNc2=10 DataFile=compare_to_reference/qq_bbH PChannel=1 ghg2=0.383432074687728,0.918260989345657 ghg3=6294.49296087723,2253.12941717723 ghg4=0.335495485382528,0.17285803562226 ghz1=0.154934976270359,0.453918144016304 ghz2=0.469297059144414,0.745302300947002 ghz3=3947.40921062637,3597.4885961919 ghz4=0.177791270766536,0.920170534486048 ghzgs2=0.0240331049939919,0.232175381101053 ghzgs3=0.331962910170583,0.0450183240308457 ghzgs4=0.808286540247172,0.133184346613754 ghgsgs2=0.530394804029869,0.211218112389125 ghgsgs3=0.914978695198138,0.055650585081425 ghgsgs4=0.694524307167701,0.511424456076726 ghz1_prime=0.143354267833606,0.0910761280837012 ghz1_prime2=7416.7007267243,4861.35525489789 ghz1_prime3=4431.44656075298,4436.48625894176 ghz1_prime4=2441.69123517064,6946.16318931911 ghz1_prime5=78314042.889773,69465359.939181 ghz1_prime6=51233058.8130761,29537873.5850789 ghz1_prime7=47832192.9001564,59559649.9633293 ghz2_prime=0.57
   
   Input Parameter:
    Collider: P-P, sqrt(s)=13000.00
    Resonance: spin=0, mass= 125.00 width=   0.00407
    Bottom quark mass=  4.7500
    Jet cuts:
            pT >=    15.00 GeV
        DeltaR >=     0.30
           mJJ >=     0.00 GeV
    Random seed:   765543533
    To reproduce results using this seed, JHUGen should be compiled with the same compiler:
      GNU Fortran (GCC) 6.3.0
    
    WidthScheme:   2
    PChannel: 1
    PDFSet:   3
    Unweighted: T
    
    spin-0-ff couplings: 
      kappa=  0.68931060E+00  0.64979173E+00i
      kappa_tilde=  0.20205949E+00  0.39840175E+00i
    
    LHE output: compare_to_reference/qq_bbH.lhe
    Histogram output: compare_to_reference/qq_bbH.dat
    Log file: compare_to_reference/qq_bbH.log
    
-->
<init>
2212 2212   6500.0000000000000000    6500.0000000000000000 0 0  263000  263000  3  1
 1.0000000E+00  1.0000000E+14  1.0000000E+00  90
</init>
<event>
 5  90   1.0000000E+00   6.7250000E+01   7.8125000E-03   1.3660097E-01
       -2   -1    0    0    0  502  0.00000000000E+00  0.00000000000E+00  1.22111223108E+02  1.22111223108E+02  0.00000000000E+00  0.00000000000E+00  1.
        2   -1    0    0  501    0  0.00000000000E+00  0.00000000000E+00 -3.34671637326E+02  3.34671637326E+02  0.00000000000E+00  0.00000000000E+00  1.
       25    1    1    2    0    0  1.33707977270E+01 -2.99783995316E+01  6.19211721697E+01  1.43306364943E+02  1.25000000000E+02  0.00000000000E+00  1.
       -5    1    1    2    0  502 -3.61488635729E+01  6.43482379342E+01 -6.06309297349E+01  9.56352874381E+01  4.75000000000E+00  0.00000000000E+00  1.
        5    1    1    2  501    0  2.27780658458E+01 -3.43698384026E+01 -2.13850656652E+02  2.17841208053E+02  4.75000000000E+00  0.00000000000E+00  1.
</event>
<event>
 5  90   1.0000000E+00   6.7250000E+01   7.8125000E-03   1.3660097E-01
       -2   -1    0    0    0  502  0.00000000000E+00  0.00000000000E+00  2.07011190701E+01  2.07011190701E+01  0.00000000000E+00  0.00000000000E+00  1.
        2   -1    0    0  501    0  0.00000000000E+00  0.00000000000E+00 -2.85882697299E+03  2.85882697299E+03  0.00000000000E+00  0.00000000000E+00  1.
       25    1    1    2    0    0  3.44692610871E+01 -1.38056018008E+02 -8.27549034739E+02  8.48946405238E+02  1.25000000000E+02  0.00000000000E+00  1.
       -5    1    1    2    0  502  9.28543792749E+01  4.69544646546E+01 -1.23265927141E+03  1.23705218136E+03  4.75000000000E+00  0.00000000000E+00  1.
        5    1    1    2  501    0 -1.27323640362E+02  9.11015533531E+01 -7.77917547767E+02  7.93529505465E+02  4.75000000000E+00  0.00000000000E+00  1.
</event>
<event>
 5  90   1.0000000E+00   6.7250000E+01   7.8125000E-03   1.3660097E-01
       -2   -1    0    0    0  502  0.00000000000E+00  0.00000000000E+00  6.20155317405E+01  6.20155317405E+01  0.00000000000E+00  0.00000000000E+00  1.
        2   -1    0    0  501    0  0.00000000000E+00  0.00000000000E+00 -1.59049021511E+03  1.59049021511E+03  0.00000000000E+00  0.00000000000E+00  1.
       25    1    1    2    0    0 -1.84343387469E+02  6.33263222073E+01 -2.31160042771E+02  3.27189047741E+02  1.25000000000E+02  0.00000000000E+00  1.
       -5    1    1    2    0  502  1.87570506459E+02 -1.59234847476E+01 -1.21999141598E+03  1.23443828109E+03  4.75000000000E+00  0.00000000000E+00  1.
        5    1    1    2  501    0 -3.22711899014E+00 -4.74028374597E+01 -7.73232246254E+01  9.08784180247E+01  4.75000000000E+00  0.00000000000E+00  1.
</event>
<event>
 5  90   1.0000000E+00   6.7250000E+01   7.8125000E-03   1.3660097E-01
       -2   -1    0    0    0  502  0.00000000000E+00  0.00000000000E+00  5.25919802748E+01  5.25919802748E+01  0.00000000000E+00  0.00000000000E+00  1.
        2   -1    0    0  501    0  0.00000000000E+00  0.00000000000E+00 -5.00650388204E+02  5.00650388204E+02  0.00000000000E+00  0.00000000000E+00  1.
       25    1    1    2    0    0 -7.38091749923E+01  8.06579892982E+01 -3.36249169969E+02  3.75022679121E+02  1.25000000000E+02  0.00000000000E+00  1.
       -5    1    1    2    0  502  3.38005542674E+01 -8.16240410357E+01 -1.05071472994E+02  1.37359158708E+02  4.75000000000E+00  0.00000000000E+00  1.
        5    1    1    2  501    0  4.00086207248E+01  9.66051737528E-01 -6.73776496706E+00  4.08605306502E+01  4.75000000000E+00  0.00000000000E+00  1.
</event>
<event>
 5  90   1.0000000E+00   6.7250000E+01   7.8125000E-03   1.3660097E-01
       -1   -1    0    0    0  502  0.00000000000E+00  0.00000000000E+00  1.16156242960E+02  1.16156242960E+02  0.00000000000E+00  0.00000000000E+00  1.
        1   -1    0    0  501    0  0.00000000000E+00  0.00000000000E+00 -2.69518204616E+02  2.69518204616E+02  0.00000000000E+00  0.00000000000E+00  1.
       25    1    1    2    0    0 -3.67604684682E+01  1.12583400020E+02 -9.66671000334E+01  1.97473750739E+02  1.25000000000E+02  0.00000000000E+00  1.
       -5    1    1    2    0  502  7.58498456545E+01 -1.97110089459E+01 -2.22123857027E+01  8.15945803230E+01  4.75000000000E+00  0.00000000000E+00  1.
        5    1    1    2  501    0 -3.90893771863E+01 -9.28723910741E+01 -3.44824759206E+01  1.06606116514E+02  4.75000000000E+00  0.00000000000E+00  1.
</event>
<event>
 5  90   1.0000000E+00   6.7250000E+01   7.8125000E-03   1.3660097E-01
       -1   -1    0    0    0  502  0.00000000000E+00  0.00000000000E+00  2.95383507353E+02  2.95383507353E+02  0.00000000000E+00  0.00000000000E+00  1.
        1   -1    0    0  501    0  0.00000000000E+00  0.00000000000E+00 -1.04823630030E+02  1.04823630030E+02  0.00000000000E+00  0.00000000000E+00  1.
       25    1    1    2    0    0  6.24839211370E+01  2.28367842478E+01 -1.18878963233E+01  1.42098843044E+02  1.25000000000E+02  0.00000000000E+00  1.
       -5    1    1    2    0  502 -6.68087645382E+01  4.70723281461E+01  1.48501997170E+02  1.69571874907E+02  4.75000000000E+00  0.00000000000E+00  1.
        5    1    1    2  501    0  4.32484340122E+00 -6.99091123939E+01  5.39457764763E+01  8.85364194317E+01  4.75000000000E+00  0.00000000000E+00  1.
</event>
<event>
 5  90   1.0000000E+00   6.7250000E+01   7.8125000E-03   1.3660097E-01
       -1   -1    0    0    0  502  0.00000000000E+00  0.00000000000E+00  2.10137354300E+02  2.10137354300E+02  0.00000000000E+00  0.00000000000E+00  1.
        1   -1    0    0  501    0  0.00000000000E+00  0.00000000000E+00 -5.36994084880E+02  5.36994084880E+02  0.00000000000E+00  0.00000000000E+00  1.
       25    1    1    2    0    0  4.62201947424E+01 -1.08419946809E+01 -1.95902255848E+02  2.37184630820E+02  1.25000000000E+02  0.00000000000E+00  1.
       -5    1    1    2    0  502 -8.78452756440E+01  2.40093858598E+02 -3.57038061360E+01  2.58184386944E+02  4.75000000000E+00  0.00000000000E+00  1.
        5    1    1    2  501    0  4.16250809016E+01 -2.29251863917E+02 -9.52506685961E+01  2.51762421416E+02  4.75000000000E+00  0.00000000000E+00  1.
</event>
<event>
 5  90   1.0000000E+00   6.7250000E+01   7.8125000E-03   1.3660097E-01
        2   -1    0    0  501    0  0.00000000000E+00  0.00000000000E+00  1.79941878361E+02  1.79941878361E+02  0.00000000000E+00  0.00000000000E+00  1.
       -2   -1    0    0    0  502  0.00000000000E+00  0.00000000000E+00 -4.03231810975E+02  4.03231810975E+02  0.00000000000E+00  0.00000000000E+00  1.
       25    1    1    2    0    0  1.96371312182E+02  6.53084290109E+01 -2.24184929757E+02  3.29713156969E+02  1.25000000000E+02  0.00000000000E+00  1.
       -5    1    1    2    0  502 -2.83919515224E+01  1.03748009677E+01  5.36440940644E+01  6.17575156103E+01  4.75000000000E+00  0.00000000000E+00  1.
        5    1    1    2  501    0 -1.67979360660E+02 -7.56832299786E+01 -5.27490969219E+01  1.91703016757E+02  4.75000000000E+00  0.00000000000E+00  1.
</event>
<event>
 5  90   1.0000000E+00   6.7250000E+01   7.8125000E-03   1.3660097E-01
        2   -1    0    0  501    0  0.00000000000E+00  0.00000000000E+00  1.23754669118E+01  1.23754669118E+01  0.00000000000E+00  0.00000000000E+00  1.
       -2   -1    0    0    0  502  0.00000000000E+00  0.00000000000E+00 -7.99664406512E+02  7.99664406512E+02  0.00000000000E+00  0.00000000000E+00  1.
       25    1    1    2    0    0  2.48322584446E+01 -2.71711483913E+01 -4.36531563915E+02  4.55565273762E+02  1.25000000000E+02  0.00000000000E+00  1.
       -5    1    1    2    0  502 -4.03589937350E+01  2.28452441037E+01 -2.46046710943E+02  2.50424240080E+02  4.75000000000E+00  0.00000000000E+00  1.
        5    1    1    2  501    0  1.55267352905E+01  4.32590428763E+00 -1.04710664743E+02  1.06050359582E+02  4.75000000000E+00  0.00000000000E+00  1.
</event>
<event>
 5  90   1.0000000E+00   6.7250000E+01   7.8125000E-03   1.3660097E-01
        3   -1    0    0  501    0  0.00000000000E+00  0.00000000000E+00  1.24819581964E+03  1.24819581964E+03  0.00000000000E+00  0.00000000000E+00  1.
       -3   -1    0    0    0  502  0.00000000000E+00  0.00000000000E+00 -1.40226296838E+01  1.40226296838E+01  0.00000000000E+00  0.00000000000E+00  1.
       25    1    1    2    0    0 -7.65778490168E+01  2.09081732168E+01  5.44833789023E+02  5.64597357706E+02  1.25000000000E+02  0.00000000000E+00  1.
       -5    1    1    2    0  502  5.11968091150E+01 -4.29256614070E+01  5.56482355752E+02  5.60498796104E+02  4.75000000000E+00  0.00000000000E+00  1.
        5    1    1    2  501    0  2.53810399018E+01  2.20174881902E+01  1.32857045182E+02  1.37122295515E+02  4.75000000000E+00  0.00000000000E+00  1.
</event>
</LesHouchesEvents>
