<LesHouchesEvents version="1.0">
<!--
Output from the JHUGenerator v7.5.0 described in arXiv:1001.3396 [hep-ph], arXiv:1208.4018 [hep-ph], arXiv:1309.4819 [hep-ph], arXiv:1606.03107 [hep-ph]
   
   Command line: ./JHUGen Seed=765543533 PDFSet=3 Process=2 PChannel=1 VegasNc0=100000 VegasNc2=100 DataFile=compare_to_reference/qq_spin2_gammagamma DecayMode1=7 DecayMode2=7 a1=0.937975757145835,0.0862675302011808 a2=0.525646610895282,0.270023242162833 a3=0.828619106655766,0.907278117187348 a4=0.853796956695806,0.883046297308361 a5=0.196874483378909,0.400008066791416 graviton_qq_left=0.5049181979003,0.327360285207962 graviton_qq_right=0.474004828998714,0.337826183822731 bgsgs1=0.773894454518313,0.356509253551872 bgsgs2=0.611963485285581,0.517604060575373 bgsgs3=0.517046784436693,0.278595934220158 bgsgs4=0.498002413656408,0.719085874763941 bgsgs8=0.312064180125662,0.479555186522064
   
   Input Parameter:
    Collider: P-P, sqrt(s)=13000.00
    Resonance: spin=2, mass= 125.00 width=   0.00407
    DecayMode1: 7  DecayMode2: 7
    Random seed:   765543533
    To reproduce results using this seed, JHUGen should be compiled with the same compiler:
      GNU Fortran (GCC) 6.3.0
    
    OffXVV: TFF
    WidthScheme:   2
    PChannel: 1
    PDFSet:   3
    Unweighted: T
    Interference: F
    
    Spin-2-VV couplings: 
      generate_bis=T
      use_dynamic_MG=T
      a1 =  0.93797576E+00  0.86267530E-01i
      a2 =  0.52564661E+00  0.27002324E+00i
      a3 =  0.82861911E+00  0.90727812E+00i
      a4 =  0.85379696E+00  0.88304630E+00i
      a5 =  0.19687448E+00  0.40000807E+00i
      bgsgs1 =  0.77389445E+00  0.35650925E+00i
      bgsgs2 =  0.61196349E+00  0.51760406E+00i
      bgsgs3 =  0.51704678E+00  0.27859593E+00i
      bgsgs4 =  0.49800241E+00  0.71908587E+00i
      bgsgs8 =  0.31206418E+00  0.47955519E+00i
    
    LHE output: compare_to_reference/qq_spin2_gammagamma.lhe
    Histogram output: compare_to_reference/qq_spin2_gammagamma.dat
    Log file: compare_to_reference/qq_spin2_gammagamma.log
    
-->
<init>
2212 2212   6500.0000000000000000    6500.0000000000000000 0 0  263000  263000  3  1
 5.5614311E+10  1.1137759E+08  1.0000000E+00   2
</init>
<event>
 5   2   1.0000000E+00   6.2500744E+01   7.8125000E-03   1.3828911E-01
       -1   -1    0    0    0  502  0.00000000000E+00  0.00000000000E+00  4.49461848185E+01  4.49461848185E+01  0.00000000000E+00  0.00000000000E+00  1.
        1   -1    0    0  502    0  0.00000000000E+00  0.00000000000E+00 -8.69115593893E+01  8.69115593893E+01  0.00000000000E+00  0.00000000000E+00  1.
       39    2    1    2    0    0  0.00000000000E+00  0.00000000000E+00 -4.19653745709E+01  1.31857744208E+02  1.25001488170E+02  0.00000000000E+00  1.
       22    1    3    3    0    0 -2.27625115781E+01 -2.69537435580E+01  3.34388197647E+01  4.86085475239E+01  0.00000000000E+00  0.00000000000E+00  1.
       22    1    3    3    0    0  2.27625115781E+01  2.69537435580E+01 -7.54041943355E+01  8.32491966839E+01  0.00000000000E+00  0.00000000000E+00  1.
</event>
<event>
 5   2   1.0000000E+00   6.2498242E+01   7.8125000E-03   1.3829004E-01
       -1   -1    0    0    0  502  0.00000000000E+00  0.00000000000E+00  1.31105110041E+00  1.31105110041E+00  0.00000000000E+00  0.00000000000E+00  1.
        1   -1    0    0  502    0  0.00000000000E+00  0.00000000000E+00 -2.97931197818E+03  2.97931197818E+03  0.00000000000E+00  0.00000000000E+00  1.
       39    2    1    2    0    0  0.00000000000E+00  0.00000000000E+00 -2.97800092708E+03  2.98062302928E+03  1.24996483910E+02  0.00000000000E+00  1.
       22    1    3    3    0    0 -4.36422958182E+01  1.14275116688E+01 -4.57612554491E+02  4.59830934187E+02  0.00000000000E+00  0.00000000000E+00  1.
       22    1    3    3    0    0  4.36422958182E+01 -1.14275116688E+01 -2.52038837259E+03  2.52079209510E+03  3.05175781250E-05  0.00000000000E+00  1.
</event>
<event>
 5   2   1.0000000E+00   6.2501031E+01   7.8125000E-03   1.3828900E-01
       -1   -1    0    0    0  502  0.00000000000E+00  0.00000000000E+00  4.13003374597E+01  4.13003374597E+01  0.00000000000E+00  0.00000000000E+00  1.
        1   -1    0    0  502    0  0.00000000000E+00  0.00000000000E+00 -9.45846714221E+01  9.45846714221E+01  0.00000000000E+00  0.00000000000E+00  1.
       39    2    1    2    0    0  0.00000000000E+00  0.00000000000E+00 -5.32843339624E+01  1.35885008882E+02  1.25002061555E+02  0.00000000000E+00  1.
       22    1    3    3    0    0  9.49124494666E-01 -4.43982712276E+01  2.11672106912E+01  4.91951027415E+01  0.00000000000E+00  0.00000000000E+00  1.
       22    1    3    3    0    0 -9.49124494666E-01  4.43982712276E+01 -7.44515446536E+01  8.66899061403E+01  0.00000000000E+00  0.00000000000E+00  1.
</event>
<event>
 5   2   1.0000000E+00   6.2498736E+01   7.8125000E-03   1.3828986E-01
       -3   -1    0    0    0  502  0.00000000000E+00  0.00000000000E+00  8.70372130115E+01  8.70372130115E+01  0.00000000000E+00  0.00000000000E+00  1.
        3   -1    0    0  502    0  0.00000000000E+00  0.00000000000E+00 -4.48784132031E+01  4.48784132031E+01  0.00000000000E+00  0.00000000000E+00  1.
       39    2    1    2    0    0  0.00000000000E+00  0.00000000000E+00  4.21587998084E+01  1.31915626215E+02  1.24997472128E+02  0.00000000000E+00  1.
       22    1    3    3    0    0 -4.47236539779E+01  1.94228966636E+01 -2.01823194106E+01  5.27710162564E+01  0.00000000000E+00  0.00000000000E+00  1.
       22    1    3    3    0    0  4.47236539779E+01 -1.94228966636E+01  6.23411192191E+01  7.91446099581E+01  0.00000000000E+00  0.00000000000E+00  1.
</event>
<event>
 5   2   1.0000000E+00   6.2500114E+01   7.8125000E-03   1.3828934E-01
       -2   -1    0    0    0  502  0.00000000000E+00  0.00000000000E+00  4.67021325032E+00  4.67021325032E+00  0.00000000000E+00  0.00000000000E+00  1.
        2   -1    0    0  502    0  0.00000000000E+00  0.00000000000E+00 -8.36420954093E+02  8.36420954093E+02  0.00000000000E+00  0.00000000000E+00  1.
       39    2    1    2    0    0  0.00000000000E+00  0.00000000000E+00 -8.31750740842E+02  8.41091167343E+02  1.25000227562E+02  0.00000000000E+00  1.
       22    1    3    3    0    0 -2.88727933042E+01 -5.53926514933E+01 -4.29796157560E+02  4.34311778664E+02  1.07895932188E-05  0.00000000000E+00  1.
       22    1    3    3    0    0  2.88727933042E+01  5.53926514933E+01 -4.01954583282E+02  4.06779388679E+02  0.00000000000E+00  0.00000000000E+00  1.
</event>
<event>
 5   2   1.0000000E+00   6.2500227E+01   7.8125000E-03   1.3828930E-01
       -2   -1    0    0    0  502  0.00000000000E+00  0.00000000000E+00  1.38245640197E+01  1.38245640197E+01  0.00000000000E+00  0.00000000000E+00  1.
        2   -1    0    0  502    0  0.00000000000E+00  0.00000000000E+00 -2.82560690789E+02  2.82560690789E+02  0.00000000000E+00  0.00000000000E+00  1.
       39    2    1    2    0    0  0.00000000000E+00  0.00000000000E+00 -2.68736126769E+02  2.96385254808E+02  1.25000453747E+02  0.00000000000E+00  1.
       22    1    3    3    0    0  6.03658027820E+01  1.44721802866E+00 -9.61243487265E+01  1.13516584707E+02  0.00000000000E+00  0.00000000000E+00  1.
       22    1    3    3    0    0 -6.03658027820E+01 -1.44721802866E+00 -1.72611778042E+02  1.82868670101E+02  0.00000000000E+00  0.00000000000E+00  1.
</event>
<event>
 5   2   1.0000000E+00   6.2500666E+01   7.8125000E-03   1.3828914E-01
        2   -1    0    0  501    0  0.00000000000E+00  0.00000000000E+00  5.04882842731E+01  5.04882842731E+01  0.00000000000E+00  0.00000000000E+00  1.
       -2   -1    0    0    0  501  0.00000000000E+00  0.00000000000E+00 -7.73710827164E+01  7.73710827164E+01  0.00000000000E+00  0.00000000000E+00  1.
       39    2    1    2    0    0  0.00000000000E+00  0.00000000000E+00 -2.68827984433E+01  1.27859366990E+02  1.25001331492E+02  0.00000000000E+00  1.
       22    1    3    3    0    0 -3.64103917237E+01 -2.36415595240E+00 -6.53463561304E+01  7.48428494805E+01  0.00000000000E+00  0.00000000000E+00  1.
       22    1    3    3    0    0  3.64103917237E+01  2.36415595240E+00  3.84635576871E+01  5.30165175091E+01  0.00000000000E+00  0.00000000000E+00  1.
</event>
<event>
 5   2   1.0000000E+00   6.2500186E+01   7.8125000E-03   1.3828932E-01
       -2   -1    0    0    0  502  0.00000000000E+00  0.00000000000E+00  3.08876664048E+00  3.08876664048E+00  0.00000000000E+00  0.00000000000E+00  1.
        2   -1    0    0  502    0  0.00000000000E+00  0.00000000000E+00 -1.26467087931E+03  1.26467087931E+03  0.00000000000E+00  0.00000000000E+00  1.
       39    2    1    2    0    0  0.00000000000E+00  0.00000000000E+00 -1.26158211267E+03  1.26775964595E+03  1.25000371571E+02  0.00000000000E+00  1.
       22    1    3    3    0    0  6.91436337909E+00  6.20115129293E+01 -5.94171290751E+02  5.97438498014E+02  1.32144989591E-05  0.00000000000E+00  1.
       22    1    3    3    0    0 -6.91436337909E+00 -6.20115129293E+01 -6.67410821923E+02  6.70321147941E+02  0.00000000000E+00  0.00000000000E+00  1.
</event>
<event>
 5   2   1.0000000E+00   6.2501431E+01   7.8125000E-03   1.3828885E-01
        3   -1    0    0  501    0  0.00000000000E+00  0.00000000000E+00  3.54664058841E+03  3.54664058841E+03  0.00000000000E+00  0.00000000000E+00  1.
       -3   -1    0    0    0  501  0.00000000000E+00  0.00000000000E+00 -1.10144480846E+00  1.10144480846E+00  0.00000000000E+00  0.00000000000E+00  1.
       39    2    1    2    0    0  0.00000000000E+00  0.00000000000E+00  3.54553914360E+03  3.54774203321E+03  1.25002861784E+02  0.00000000000E+00  1.
       22    1    3    3    0    0  6.11108878627E+01 -8.71815480168E+00  2.05067733367E+03  2.05160621799E+03  4.31583728752E-05  0.00000000000E+00  1.
       22    1    3    3    0    0 -6.11108878627E+01  8.71815480168E+00  1.49486180992E+03  1.49613581523E+03  3.73762472959E-05  0.00000000000E+00  1.
</event>
<event>
 5   2   1.0000000E+00   6.2500821E+01   7.8125000E-03   1.3828908E-01
        1   -1    0    0  501    0  0.00000000000E+00  0.00000000000E+00  4.81435626936E+02  4.81435626936E+02  0.00000000000E+00  0.00000000000E+00  1.
       -1   -1    0    0    0  501  0.00000000000E+00  0.00000000000E+00 -8.11396660988E+00  8.11396660988E+00  0.00000000000E+00  0.00000000000E+00  1.
       39    2    1    2    0    0  0.00000000000E+00  0.00000000000E+00  4.73321660326E+02  4.89549593546E+02  1.25001641617E+02  0.00000000000E+00  1.
       22    1    3    3    0    0  4.51450502697E+01  3.98428190984E+01  3.02290505622E+02  3.08228933727E+02  0.00000000000E+00  0.00000000000E+00  1.
       22    1    3    3    0    0 -4.51450502697E+01 -3.98428190984E+01  1.71031154704E+02  1.81320659818E+02  0.00000000000E+00  0.00000000000E+00  1.
</event>
<event>
 5   2   1.0000000E+00   6.2501948E+01   7.8125000E-03   1.3828866E-01
        5   -1    0    0  501    0  0.00000000000E+00  0.00000000000E+00  2.76740096253E+02  2.76740096253E+02  0.00000000000E+00  0.00000000000E+00  1.
       -5   -1    0    0    0  501  0.00000000000E+00  0.00000000000E+00 -1.41161096248E+01  1.41161096248E+01  0.00000000000E+00  0.00000000000E+00  1.
       39    2    1    2    0    0  0.00000000000E+00  0.00000000000E+00  2.62623986628E+02  2.90856205878E+02  1.25003896520E+02  0.00000000000E+00  1.
       22    1    3    3    0    0  6.13422064046E+01 -8.95802410587E+00  1.12788004425E+02  1.28702161693E+02  0.00000000000E+00  0.00000000000E+00  1.
       22    1    3    3    0    0 -6.13422064046E+01  8.95802410587E+00  1.49835982204E+02  1.62154044185E+02  0.00000000000E+00  0.00000000000E+00  1.
</event>
<event>
 5   2   1.0000000E+00   6.2500782E+01   7.8125000E-03   1.3828909E-01
       -2   -1    0    0    0  502  0.00000000000E+00  0.00000000000E+00  1.76644313587E+01  1.76644313587E+01  0.00000000000E+00  0.00000000000E+00  1.
        2   -1    0    0  502    0  0.00000000000E+00  0.00000000000E+00 -2.21142007333E+02  2.21142007333E+02  0.00000000000E+00  0.00000000000E+00  1.
       39    2    1    2    0    0  0.00000000000E+00  0.00000000000E+00 -2.03477575974E+02  2.38806438692E+02  1.25001564935E+02  0.00000000000E+00  1.
       22    1    3    3    0    0 -6.11398657779E+01 -6.04781614916E+00 -1.23662019791E+02  1.38083143093E+02  0.00000000000E+00  0.00000000000E+00  1.
       22    1    3    3    0    0  6.11398657779E+01  6.04781614916E+00 -7.98155561832E+01  1.00723295599E+02  0.00000000000E+00  0.00000000000E+00  1.
</event>
<event>
 5   2   1.0000000E+00   6.2499221E+01   7.8125000E-03   1.3828968E-01
        1   -1    0    0  501    0  0.00000000000E+00  0.00000000000E+00  3.90582392463E+00  3.90582392463E+00  0.00000000000E+00  0.00000000000E+00  1.
       -1   -1    0    0    0  501  0.00000000000E+00  0.00000000000E+00 -1.00008416945E+03  1.00008416945E+03  0.00000000000E+00  0.00000000000E+00  1.
       39    2    1    2    0    0  0.00000000000E+00  0.00000000000E+00 -9.96178345521E+02  1.00398999337E+03  1.24998442801E+02  0.00000000000E+00  1.
       22    1    3    3    0    0  9.62959161647E+00  5.26255691416E+01 -7.57608339768E+02  7.59494948007E+02  1.07895932188E-05  0.00000000000E+00  1.
       22    1    3    3    0    0 -9.62959161647E+00 -5.26255691416E+01 -2.38570005752E+02  2.44495045363E+02  0.00000000000E+00  0.00000000000E+00  1.
</event>
<event>
 5   2   1.0000000E+00   6.2499554E+01   7.8125000E-03   1.3828955E-01
        1   -1    0    0  501    0  0.00000000000E+00  0.00000000000E+00  2.69292358897E+01  2.69292358897E+01  0.00000000000E+00  0.00000000000E+00  1.
       -1   -1    0    0    0  501  0.00000000000E+00  0.00000000000E+00 -1.45054031016E+02  1.45054031016E+02  0.00000000000E+00  0.00000000000E+00  1.
       39    2    1    2    0    0  0.00000000000E+00  0.00000000000E+00 -1.18124795126E+02  1.71983266905E+02  1.24999107485E+02  0.00000000000E+00  1.
       22    1    3    3    0    0 -5.94809558957E+01 -1.47291949739E+00 -3.27388802560E+01  6.79116181999E+01  0.00000000000E+00  0.00000000000E+00  1.
       22    1    3    3    0    0  5.94809558957E+01  1.47291949739E+00 -8.53859148700E+01  1.04071648706E+02  0.00000000000E+00  0.00000000000E+00  1.
</event>
<event>
 5   2   1.0000000E+00   6.2504684E+01   7.8125000E-03   1.3828764E-01
       -4   -1    0    0    0  502  0.00000000000E+00  0.00000000000E+00  5.10103620938E+01  5.10103620938E+01  0.00000000000E+00  0.00000000000E+00  1.
        4   -1    0    0  502    0  0.00000000000E+00  0.00000000000E+00 -7.65890563618E+01  7.65890563618E+01  0.00000000000E+00  0.00000000000E+00  1.
       39    2    1    2    0    0  0.00000000000E+00  0.00000000000E+00 -2.55786942680E+01  1.27599418456E+02  1.25009367608E+02  0.00000000000E+00  1.
       22    1    3    3    0    0 -4.82884889876E+01  3.58691535499E+01 -3.01253832837E+01  6.72749066375E+01  0.00000000000E+00  0.00000000000E+00  1.
       22    1    3    3    0    0  4.82884889876E+01 -3.58691535499E+01  4.54668901569E+00  6.03245118181E+01  0.00000000000E+00  0.00000000000E+00  1.
</event>
<event>
 5   2   1.0000000E+00   6.2500054E+01   7.8125000E-03   1.3828937E-01
        1   -1    0    0  501    0  0.00000000000E+00  0.00000000000E+00  1.33879484672E+01  1.33879484672E+01  0.00000000000E+00  0.00000000000E+00  1.
       -1   -1    0    0    0  501  0.00000000000E+00  0.00000000000E+00 -2.91774113715E+02  2.91774113715E+02  0.00000000000E+00  0.00000000000E+00  1.
       39    2    1    2    0    0  0.00000000000E+00  0.00000000000E+00 -2.78386165248E+02  3.05162062182E+02  1.25000108776E+02  0.00000000000E+00  1.
       22    1    3    3    0    0  1.12289278342E+01 -6.09312292519E+01 -1.19127888277E+02  1.34276421176E+02  0.00000000000E+00  0.00000000000E+00  1.
       22    1    3    3    0    0 -1.12289278342E+01  6.09312292519E+01 -1.59258276970E+02  1.70885641006E+02  0.00000000000E+00  0.00000000000E+00  1.
</event>
<event>
 5   2   1.0000000E+00   6.2500259E+01   7.8125000E-03   1.3828929E-01
        2   -1    0    0  501    0  0.00000000000E+00  0.00000000000E+00  7.57044967488E+01  7.57044967488E+01  0.00000000000E+00  0.00000000000E+00  1.
       -2   -1    0    0    0  501  0.00000000000E+00  0.00000000000E+00 -5.15990797292E+01  5.15990797292E+01  0.00000000000E+00  0.00000000000E+00  1.
       39    2    1    2    0    0  0.00000000000E+00  0.00000000000E+00  2.41054170195E+01  1.27303576478E+02  1.25000517817E+02  0.00000000000E+00  1.
       22    1    3    3    0    0 -7.49909351962E-01  6.24585610993E+01  9.85703063816E+00  6.32360282721E+01  0.00000000000E+00  0.00000000000E+00  1.
       22    1    3    3    0    0  7.49909351962E-01 -6.24585610993E+01  1.42483863814E+01  6.40675482058E+01  0.00000000000E+00  0.00000000000E+00  1.
</event>
<event>
 5   2   1.0000000E+00   6.2500313E+01   7.8125000E-03   1.3828927E-01
        1   -1    0    0  501    0  0.00000000000E+00  0.00000000000E+00  6.59119318322E+02  6.59119318322E+02  0.00000000000E+00  0.00000000000E+00  1.
       -1   -1    0    0    0  501  0.00000000000E+00  0.00000000000E+00 -5.92652804537E+00  5.92652804537E+00  0.00000000000E+00  0.00000000000E+00  1.
       39    2    1    2    0    0  0.00000000000E+00  0.00000000000E+00  6.53192790277E+02  6.65045846368E+02  1.25000626003E+02  0.00000000000E+00  1.
       22    1    3    3    0    0 -1.02920791459E+01  3.04034277521E+01  6.11917154452E+02  6.12758434642E+02  0.00000000000E+00  0.00000000000E+00  1.
       22    1    3    3    0    0  1.02920791459E+01 -3.04034277521E+01  4.12756358249E+01  5.22874117257E+01  0.00000000000E+00  0.00000000000E+00  1.
</event>
<event>
 5   2   1.0000000E+00   6.2498194E+01   7.8125000E-03   1.3829006E-01
        1   -1    0    0  501    0  0.00000000000E+00  0.00000000000E+00  3.60739117949E+01  3.60739117949E+01  0.00000000000E+00  0.00000000000E+00  1.
       -1   -1    0    0    0  501  0.00000000000E+00  0.00000000000E+00 -1.08278365524E+02  1.08278365524E+02  0.00000000000E+00  0.00000000000E+00  1.
       39    2    1    2    0    0  0.00000000000E+00  0.00000000000E+00 -7.22044537289E+01  1.44352277319E+02  1.24996387263E+02  0.00000000000E+00  1.
       22    1    3    3    0    0 -3.31446409217E+00  2.00543624168E+01  3.21500015520E+01  3.80366366015E+01  0.00000000000E+00  0.00000000000E+00  1.
       22    1    3    3    0    0  3.31446409217E+00 -2.00543624168E+01 -1.04354455281E+02  1.06315640717E+02  0.00000000000E+00  0.00000000000E+00  1.
</event>
<event>
 5   2   1.0000000E+00   6.2500584E+01   7.8125000E-03   1.3828917E-01
       -2   -1    0    0    0  502  0.00000000000E+00  0.00000000000E+00  3.69843487457E+00  3.69843487457E+00  0.00000000000E+00  0.00000000000E+00  1.
        2   -1    0    0  502    0  0.00000000000E+00  0.00000000000E+00 -1.05620975543E+03  1.05620975543E+03  0.00000000000E+00  0.00000000000E+00  1.
       39    2    1    2    0    0  0.00000000000E+00  0.00000000000E+00 -1.05251132055E+03  1.05990819030E+03  1.25001167904E+02  0.00000000000E+00  1.
       22    1    3    3    0    0 -1.50208643575E+01  4.32217095346E+01 -8.87252020861E+02  8.88431140304E+02  2.15791864376E-05  0.00000000000E+00  1.
       22    1    3    3    0    0  1.50208643575E+01 -4.32217095346E+01 -1.65259299692E+02  1.71477049997E+02  0.00000000000E+00  0.00000000000E+00  1.
</event>
<event>
 5   2   1.0000000E+00   6.2501337E+01   7.8125000E-03   1.3828889E-01
       -1   -1    0    0    0  502  0.00000000000E+00  0.00000000000E+00  2.08639172098E+01  2.08639172098E+01  0.00000000000E+00  0.00000000000E+00  1.
        1   -1    0    0  502    0  0.00000000000E+00  0.00000000000E+00 -1.87233161266E+02  1.87233161266E+02  0.00000000000E+00  0.00000000000E+00  1.
       39    2    1    2    0    0  0.00000000000E+00  0.00000000000E+00 -1.66369244056E+02  2.08097078476E+02  1.25002674781E+02  0.00000000000E+00  1.
       22    1    3    3    0    0  7.81737849823E+00  5.76688564056E+01 -1.21132274380E+02  1.34386890366E+02  0.00000000000E+00  0.00000000000E+00  1.
       22    1    3    3    0    0 -7.81737849823E+00 -5.76688564056E+01 -4.52369696759E+01  7.37101881097E+01  0.00000000000E+00  0.00000000000E+00  1.
</event>
<event>
 5   2   1.0000000E+00   6.2499582E+01   7.8125000E-03   1.3828954E-01
       -3   -1    0    0    0  502  0.00000000000E+00  0.00000000000E+00  1.16128291392E+02  1.16128291392E+02  0.00000000000E+00  0.00000000000E+00  1.
        3   -1    0    0  502    0  0.00000000000E+00  0.00000000000E+00 -3.36369178041E+01  3.36369178041E+01  0.00000000000E+00  0.00000000000E+00  1.
       39    2    1    2    0    0  0.00000000000E+00  0.00000000000E+00  8.24913735883E+01  1.49765209197E+02  1.24999164674E+02  0.00000000000E+00  1.
       22    1    3    3    0    0  2.30132881592E+01 -3.52811708483E+01 -1.40739903950E+01  4.44122691828E+01  0.00000000000E+00  0.00000000000E+00  1.
       22    1    3    3    0    0 -2.30132881592E+01  3.52811708483E+01  9.65653639833E+01  1.05352940014E+02  0.00000000000E+00  0.00000000000E+00  1.
</event>
<event>
 5   2   1.0000000E+00   6.2499377E+01   7.8125000E-03   1.3828962E-01
       -1   -1    0    0    0  502  0.00000000000E+00  0.00000000000E+00  4.32335651942E+00  4.32335651942E+00  0.00000000000E+00  0.00000000000E+00  1.
        1   -1    0    0  502    0  0.00000000000E+00  0.00000000000E+00 -9.03504517372E+02  9.03504517372E+02  0.00000000000E+00  0.00000000000E+00  1.
       39    2    1    2    0    0  0.00000000000E+00  0.00000000000E+00 -8.99181160853E+02  9.07827873891E+02  1.24998754322E+02  0.00000000000E+00  1.
       22    1    3    3    0    0 -4.51638459591E+01 -1.13347651168E+01 -7.52360692409E+02  7.53800279493E+02  0.00000000000E+00  0.00000000000E+00  1.
       22    1    3    3    0    0  4.51638459591E+01  1.13347651168E+01 -1.46820468444E+02  1.54027594398E+02  0.00000000000E+00  0.00000000000E+00  1.
</event>
<event>
 5   2   1.0000000E+00   6.2499532E+01   7.8125000E-03   1.3828956E-01
        1   -1    0    0  501    0  0.00000000000E+00  0.00000000000E+00  2.40238129240E+01  2.40238129240E+01  0.00000000000E+00  0.00000000000E+00  1.
       -1   -1    0    0    0  501  0.00000000000E+00  0.00000000000E+00 -1.62596648620E+02  1.62596648620E+02  0.00000000000E+00  0.00000000000E+00  1.
       39    2    1    2    0    0  0.00000000000E+00  0.00000000000E+00 -1.38572835696E+02  1.86620461544E+02  1.24999063493E+02  0.00000000000E+00  1.
       22    1    3    3    0    0 -1.74792543705E+01  5.98229226537E+01 -6.23020617424E+01  8.81240790336E+01  0.00000000000E+00  0.00000000000E+00  1.
       22    1    3    3    0    0  1.74792543705E+01 -5.98229226537E+01 -7.62707739539E+01  9.84963825107E+01  0.00000000000E+00  0.00000000000E+00  1.
</event>
<event>
 5   2   1.0000000E+00   6.2498489E+01   7.8125000E-03   1.3828995E-01
        2   -1    0    0  501    0  0.00000000000E+00  0.00000000000E+00  9.33679898176E+02  9.33679898176E+02  0.00000000000E+00  0.00000000000E+00  1.
       -2   -1    0    0    0  501  0.00000000000E+00  0.00000000000E+00 -4.18351205031E+00  4.18351205031E+00  0.00000000000E+00  0.00000000000E+00  1.
       39    2    1    2    0    0  0.00000000000E+00  0.00000000000E+00  9.29496386126E+02  9.37863410227E+02  1.24996977646E+02  0.00000000000E+00  1.
       22    1    3    3    0    0 -5.84696647844E+01  1.95559131850E+01  5.41604753570E+02  5.45102600003E+02  0.00000000000E+00  0.00000000000E+00  1.
       22    1    3    3    0    0  5.84696647844E+01 -1.95559131850E+01  3.87891632556E+02  3.92760810224E+02  0.00000000000E+00  0.00000000000E+00  1.
</event>
<event>
 5   2   1.0000000E+00   6.2499689E+01   7.8125000E-03   1.3828950E-01
        5   -1    0    0  501    0  0.00000000000E+00  0.00000000000E+00  3.84510263527E+00  3.84510263527E+00  0.00000000000E+00  0.00000000000E+00  1.
       -5   -1    0    0    0  501  0.00000000000E+00  0.00000000000E+00 -1.01589255583E+03  1.01589255583E+03  0.00000000000E+00  0.00000000000E+00  1.
       39    2    1    2    0    0  0.00000000000E+00  0.00000000000E+00 -1.01204745319E+03  1.01973765846E+03  1.24999378295E+02  0.00000000000E+00  1.
       22    1    3    3    0    0  3.01179131610E+01  5.32326788649E+01 -6.10942709067E+02  6.13996580247E+02  0.00000000000E+00  0.00000000000E+00  1.
       22    1    3    3    0    0 -3.01179131610E+01 -5.32326788649E+01 -4.01104744125E+02  4.05741078216E+02  0.00000000000E+00  0.00000000000E+00  1.
</event>
<event>
 5   2   1.0000000E+00   6.2503579E+01   7.8125000E-03   1.3828805E-01
       -2   -1    0    0    0  502  0.00000000000E+00  0.00000000000E+00  5.19059912316E+00  5.19059912316E+00  0.00000000000E+00  0.00000000000E+00  1.
        2   -1    0    0  502    0  0.00000000000E+00  0.00000000000E+00 -7.52648651683E+02  7.52648651683E+02  0.00000000000E+00  0.00000000000E+00  1.
       39    2    1    2    0    0  0.00000000000E+00  0.00000000000E+00 -7.47458052560E+02  7.57839250806E+02  1.25007158699E+02  0.00000000000E+00  1.
       22    1    3    3    0    0 -3.26583360922E+00  4.34514644090E+01 -1.02069911212E+02  1.10981810236E+02  0.00000000000E+00  0.00000000000E+00  1.
       22    1    3    3    0    0  3.26583360922E+00 -4.34514644090E+01 -6.45388141348E+02  6.46857440570E+02  0.00000000000E+00  0.00000000000E+00  1.
</event>
<event>
 5   2   1.0000000E+00   6.2501047E+01   7.8125000E-03   1.3828900E-01
       -1   -1    0    0    0  502  0.00000000000E+00  0.00000000000E+00  1.17187534457E+01  1.17187534457E+01  0.00000000000E+00  0.00000000000E+00  1.
        1   -1    0    0  502    0  0.00000000000E+00  0.00000000000E+00 -3.33344399396E+02  3.33344399396E+02  0.00000000000E+00  0.00000000000E+00  1.
       39    2    1    2    0    0  0.00000000000E+00  0.00000000000E+00 -3.21625645951E+02  3.45063152842E+02  1.25002093247E+02  0.00000000000E+00  1.
       22    1    3    3    0    0 -1.85768904559E+01  5.92300582155E+01 -1.80924462147E+02  1.91277185410E+02  0.00000000000E+00  0.00000000000E+00  1.
       22    1    3    3    0    0  1.85768904559E+01 -5.92300582155E+01 -1.40701183804E+02  1.53785967432E+02  0.00000000000E+00  0.00000000000E+00  1.
</event>
<event>
 5   2   1.0000000E+00   6.2500063E+01   7.8125000E-03   1.3828936E-01
       -1   -1    0    0    0  502  0.00000000000E+00  0.00000000000E+00  5.36279221663E+01  5.36279221663E+01  0.00000000000E+00  0.00000000000E+00  1.
        1   -1    0    0  502    0  0.00000000000E+00  0.00000000000E+00 -7.28400013074E+01  7.28400013074E+01  0.00000000000E+00  0.00000000000E+00  1.
       39    2    1    2    0    0  0.00000000000E+00  0.00000000000E+00 -1.92120791411E+01  1.26467923474E+02  1.25000126731E+02  0.00000000000E+00  1.
       22    1    3    3    0    0 -2.58023374082E+01  5.68226149601E+01 -1.30649163861E+01  6.37594089277E+01  0.00000000000E+00  0.00000000000E+00  1.
       22    1    3    3    0    0  2.58023374082E+01 -5.68226149601E+01 -6.14716275504E+00  6.27085145460E+01  0.00000000000E+00  0.00000000000E+00  1.
</event>
<event>
 5   2   1.0000000E+00   6.2499317E+01   7.8125000E-03   1.3828964E-01
       -1   -1    0    0    0  502  0.00000000000E+00  0.00000000000E+00  2.31545142039E+01  2.31545142039E+01  0.00000000000E+00  0.00000000000E+00  1.
        1   -1    0    0  502    0  0.00000000000E+00  0.00000000000E+00 -1.68699917731E+02  1.68699917731E+02  0.00000000000E+00  0.00000000000E+00  1.
       39    2    1    2    0    0  0.00000000000E+00  0.00000000000E+00 -1.45545403527E+02  1.91854431935E+02  1.24998634253E+02  0.00000000000E+00  1.
       22    1    3    3    0    0  3.09604191229E+01 -3.17416053082E+01 -5.16794788195E+00  4.46406176606E+01  0.00000000000E+00  0.00000000000E+00  1.
       22    1    3    3    0    0 -3.09604191229E+01  3.17416053082E+01 -1.40377455645E+02  1.47213814275E+02  0.00000000000E+00  0.00000000000E+00  1.
</event>
<event>
 5   2   1.0000000E+00   6.2499595E+01   7.8125000E-03   1.3828954E-01
        4   -1    0    0  501    0  0.00000000000E+00  0.00000000000E+00  2.93955281708E+01  2.93955281708E+01  0.00000000000E+00  0.00000000000E+00  1.
       -4   -1    0    0    0  501  0.00000000000E+00  0.00000000000E+00 -1.32884134511E+02  1.32884134511E+02  0.00000000000E+00  0.00000000000E+00  1.
       39    2    1    2    0    0  0.00000000000E+00  0.00000000000E+00 -1.03488606340E+02  1.62279662682E+02  1.24999189109E+02  0.00000000000E+00  1.
       22    1    3    3    0    0 -5.26381702807E+01 -3.28369609968E+01 -6.15592762262E+01  8.73990129664E+01  0.00000000000E+00  0.00000000000E+00  1.
       22    1    3    3    0    0  5.26381702807E+01  3.28369609968E+01 -4.19293301143E+01  7.48806497156E+01  0.00000000000E+00  0.00000000000E+00  1.
</event>
<event>
 5   2   1.0000000E+00   6.2499310E+01   7.8125000E-03   1.3828964E-01
       -1   -1    0    0    0  502  0.00000000000E+00  0.00000000000E+00  1.08151055040E+02  1.08151055040E+02  0.00000000000E+00  0.00000000000E+00  1.
        1   -1    0    0  502    0  0.00000000000E+00  0.00000000000E+00 -3.61176667496E+01  3.61176667496E+01  0.00000000000E+00  0.00000000000E+00  1.
       39    2    1    2    0    0  0.00000000000E+00  0.00000000000E+00  7.20333882900E+01  1.44268721789E+02  1.24998620225E+02  0.00000000000E+00  1.
       22    1    3    3    0    0  2.12675532693E+01 -5.12146351847E+01  6.92861385316E+01  8.87457980514E+01  0.00000000000E+00  0.00000000000E+00  1.
       22    1    3    3    0    0 -2.12675532693E+01  5.12146351847E+01  2.74724975844E+00  5.55229237378E+01  0.00000000000E+00  0.00000000000E+00  1.
</event>
<event>
 5   2   1.0000000E+00   6.2501195E+01   7.8125000E-03   1.3828894E-01
       -1   -1    0    0    0  502  0.00000000000E+00  0.00000000000E+00  6.27386512437E+01  6.27386512437E+01  0.00000000000E+00  0.00000000000E+00  1.
        1   -1    0    0  502    0  0.00000000000E+00  0.00000000000E+00 -6.22646369839E+01  6.22646369839E+01  0.00000000000E+00  0.00000000000E+00  1.
       39    2    1    2    0    0  0.00000000000E+00  0.00000000000E+00  4.74014259727E-01  1.25003288228E+02  1.25002389490E+02  0.00000000000E+00  1.
       22    1    3    3    0    0  5.10845103365E+01  3.33830822640E+01  1.37405099636E+01  6.25528495900E+01  0.00000000000E+00  0.00000000000E+00  1.
       22    1    3    3    0    0 -5.10845103365E+01 -3.33830822640E+01 -1.32664957039E+01  6.24504386376E+01  0.00000000000E+00  0.00000000000E+00  1.
</event>
<event>
 5   2   1.0000000E+00   6.2500375E+01   7.8125000E-03   1.3828925E-01
       -1   -1    0    0    0  502  0.00000000000E+00  0.00000000000E+00  2.97764407657E+01  2.97764407657E+01  0.00000000000E+00  0.00000000000E+00  1.
        1   -1    0    0  502    0  0.00000000000E+00  0.00000000000E+00 -1.31187502018E+02  1.31187502018E+02  0.00000000000E+00  0.00000000000E+00  1.
       39    2    1    2    0    0  0.00000000000E+00  0.00000000000E+00 -1.01411061252E+02  1.60963942784E+02  1.25000750126E+02  0.00000000000E+00  1.
       22    1    3    3    0    0 -5.75261525225E+01  1.83553607458E+01 -2.99371637792E+01  6.73974129125E+01  0.00000000000E+00  0.00000000000E+00  1.
       22    1    3    3    0    0  5.75261525225E+01 -1.83553607458E+01 -7.14738974731E+01  9.35665298712E+01  0.00000000000E+00  0.00000000000E+00  1.
</event>
<event>
 5   2   1.0000000E+00   6.2501575E+01   7.8125000E-03   1.3828880E-01
       -2   -1    0    0    0  502  0.00000000000E+00  0.00000000000E+00  2.93884163690E+00  2.93884163690E+00  0.00000000000E+00  0.00000000000E+00  1.
        2   -1    0    0  502    0  0.00000000000E+00  0.00000000000E+00 -1.32924713816E+03  1.32924713816E+03  0.00000000000E+00  0.00000000000E+00  1.
       39    2    1    2    0    0  0.00000000000E+00  0.00000000000E+00 -1.32630829652E+03  1.33218597979E+03  1.25003149326E+02  0.00000000000E+00  1.
       22    1    3    3    0    0  3.06960645551E+00 -4.62311726846E+01 -1.11021186338E+03  1.11117825996E+03  0.00000000000E+00  0.00000000000E+00  1.
       22    1    3    3    0    0 -3.06960645551E+00  4.62311726846E+01 -2.16096433140E+02  2.21007719837E+02  0.00000000000E+00  0.00000000000E+00  1.
</event>
<event>
 5   2   1.0000000E+00   6.2498983E+01   7.8125000E-03   1.3828977E-01
        4   -1    0    0  501    0  0.00000000000E+00  0.00000000000E+00  1.66176278993E+01  1.66176278993E+01  0.00000000000E+00  0.00000000000E+00  1.
       -4   -1    0    0    0  501  0.00000000000E+00  0.00000000000E+00 -2.35058994623E+02  2.35058994623E+02  0.00000000000E+00  0.00000000000E+00  1.
       39    2    1    2    0    0  0.00000000000E+00  0.00000000000E+00 -2.18441366724E+02  2.51676622523E+02  1.24997966496E+02  0.00000000000E+00  1.
       22    1    3    3    0    0  3.48101719850E+00  5.99713529320E+01 -1.43945603924E+02  1.55977618722E+02  0.00000000000E+00  0.00000000000E+00  1.
       22    1    3    3    0    0 -3.48101719850E+00 -5.99713529320E+01 -7.44957628004E+01  9.56990038007E+01  0.00000000000E+00  0.00000000000E+00  1.
</event>
<event>
 5   2   1.0000000E+00   6.2500656E+01   7.8125000E-03   1.3828914E-01
       -1   -1    0    0    0  502  0.00000000000E+00  0.00000000000E+00  9.97745212736E+00  9.97745212736E+00  0.00000000000E+00  0.00000000000E+00  1.
        1   -1    0    0  502    0  0.00000000000E+00  0.00000000000E+00 -3.91515985741E+02  3.91515985741E+02  0.00000000000E+00  0.00000000000E+00  1.
       39    2    1    2    0    0  0.00000000000E+00  0.00000000000E+00 -3.81538533613E+02  4.01493437868E+02  1.25001312070E+02  0.00000000000E+00  1.
       22    1    3    3    0    0  6.24366738836E+01  2.54469280708E+00 -1.94726962029E+02  2.04507709997E+02  0.00000000000E+00  0.00000000000E+00  1.
       22    1    3    3    0    0 -6.24366738836E+01 -2.54469280708E+00 -1.86811571584E+02  1.96985727871E+02  0.00000000000E+00  0.00000000000E+00  1.
</event>
<event>
 5   2   1.0000000E+00   6.2498899E+01   7.8125000E-03   1.3828980E-01
       -2   -1    0    0    0  502  0.00000000000E+00  0.00000000000E+00  3.08935146021E+01  3.08935146021E+01  0.00000000000E+00  0.00000000000E+00  1.
        2   -1    0    0  502    0  0.00000000000E+00  0.00000000000E+00 -1.26437942443E+02  1.26437942443E+02  0.00000000000E+00  0.00000000000E+00  1.
       39    2    1    2    0    0  0.00000000000E+00  0.00000000000E+00 -9.55444278410E+01  1.57331457045E+02  1.24997798719E+02  0.00000000000E+00  1.
       22    1    3    3    0    0 -4.58123006455E+00  3.82695817365E+01  1.41535642491E+01  4.10593708688E+01  0.00000000000E+00  0.00000000000E+00  1.
       22    1    3    3    0    0  4.58123006455E+00 -3.82695817365E+01 -1.09697992090E+02  1.16272086176E+02  0.00000000000E+00  0.00000000000E+00  1.
</event>
<event>
 5   2   1.0000000E+00   6.2500258E+01   7.8125000E-03   1.3828929E-01
       -2   -1    0    0    0  502  0.00000000000E+00  0.00000000000E+00  2.34676214008E+01  2.34676214008E+01  0.00000000000E+00  0.00000000000E+00  1.
        2   -1    0    0  502    0  0.00000000000E+00  0.00000000000E+00 -1.66454117694E+02  1.66454117694E+02  0.00000000000E+00  0.00000000000E+00  1.
       39    2    1    2    0    0  0.00000000000E+00  0.00000000000E+00 -1.42986496293E+02  1.89921739094E+02  1.25000515433E+02  0.00000000000E+00  1.
       22    1    3    3    0    0 -5.12567218338E+00  4.06896319290E+01 -1.43151425867E+02  1.48910205794E+02  0.00000000000E+00  0.00000000000E+00  1.
       22    1    3    3    0    0  5.12567218338E+00 -4.06896319290E+01  1.64929574789E-01  4.10115332999E+01  0.00000000000E+00  0.00000000000E+00  1.
</event>
<event>
 5   2   1.0000000E+00   6.2499059E+01   7.8125000E-03   1.3828974E-01
        2   -1    0    0  501    0  0.00000000000E+00  0.00000000000E+00  1.15578507132E+03  1.15578507132E+03  0.00000000000E+00  0.00000000000E+00  1.
       -2   -1    0    0    0  501  0.00000000000E+00  0.00000000000E+00 -3.37963565393E+00  3.37963565393E+00  0.00000000000E+00  0.00000000000E+00  1.
       39    2    1    2    0    0  0.00000000000E+00  0.00000000000E+00  1.15240543567E+03  1.15916470698E+03  1.24998118951E+02  0.00000000000E+00  1.
       22    1    3    3    0    0  3.59767743061E+00 -5.90967909331E+01  3.90557819749E+02  3.95019979936E+02  0.00000000000E+00  0.00000000000E+00  1.
       22    1    3    3    0    0 -3.59767743061E+00  5.90967909331E+01  7.61847615920E+02  7.64144727041E+02  1.07895932188E-05  0.00000000000E+00  1.
</event>
<event>
 5   2   1.0000000E+00   6.2533907E+01   7.8125000E-03   1.3827673E-01
       -2   -1    0    0    0  502  0.00000000000E+00  0.00000000000E+00  1.93616178513E+01  1.93616178513E+01  0.00000000000E+00  0.00000000000E+00  1.
        2   -1    0    0  502    0  0.00000000000E+00  0.00000000000E+00 -2.01971215683E+02  2.01971215683E+02  0.00000000000E+00  0.00000000000E+00  1.
       39    2    1    2    0    0  0.00000000000E+00  0.00000000000E+00 -1.82609597832E+02  2.21332833534E+02  1.25067813525E+02  0.00000000000E+00  1.
       22    1    3    3    0    0  6.03963444109E+01 -4.65636431864E+00 -1.18783063304E+02  1.33337227640E+02  0.00000000000E+00  0.00000000000E+00  1.
       22    1    3    3    0    0 -6.03963444109E+01  4.65636431864E+00 -6.38265345279E+01  8.79956058943E+01  0.00000000000E+00  0.00000000000E+00  1.
</event>
<event>
 5   2   1.0000000E+00   6.2499971E+01   7.8125000E-03   1.3828940E-01
       -2   -1    0    0    0  502  0.00000000000E+00  0.00000000000E+00  1.85474223779E+02  1.85474223779E+02  0.00000000000E+00  0.00000000000E+00  1.
        2   -1    0    0  502    0  0.00000000000E+00  0.00000000000E+00 -2.10608585962E+01  2.10608585962E+01  0.00000000000E+00  0.00000000000E+00  1.
       39    2    1    2    0    0  0.00000000000E+00  0.00000000000E+00  1.64413365183E+02  2.06535082376E+02  1.24999942404E+02  0.00000000000E+00  1.
       22    1    3    3    0    0 -4.13453142556E+01 -1.66767455423E+01  1.54581466412E+02  1.60881877820E+02  0.00000000000E+00  0.00000000000E+00  1.
       22    1    3    3    0    0  4.13453142556E+01  1.66767455423E+01  9.83189877135E+00  4.56532045559E+01  0.00000000000E+00  0.00000000000E+00  1.
</event>
<event>
 5   2   1.0000000E+00   6.2502350E+01   7.8125000E-03   1.3828851E-01
       -1   -1    0    0    0  502  0.00000000000E+00  0.00000000000E+00  1.50506130134E+00  1.50506130134E+00  0.00000000000E+00  0.00000000000E+00  1.
        1   -1    0    0  502    0  0.00000000000E+00  0.00000000000E+00 -2.59560441686E+03  2.59560441686E+03  0.00000000000E+00  0.00000000000E+00  1.
       39    2    1    2    0    0  0.00000000000E+00  0.00000000000E+00 -2.59409935556E+03  2.59710947816E+03  1.25004700094E+02  0.00000000000E+00  1.
       22    1    3    3    0    0  5.19868027826E+01  4.51803448647E+00 -5.82308701419E+02  5.84642167524E+02  0.00000000000E+00  0.00000000000E+00  1.
       22    1    3    3    0    0 -5.19868027826E+01 -4.51803448647E+00 -2.01179065414E+03  2.01246731064E+03  0.00000000000E+00  0.00000000000E+00  1.
</event>
<event>
 5   2   1.0000000E+00   6.2506078E+01   7.8125000E-03   1.3828712E-01
       -2   -1    0    0    0  502  0.00000000000E+00  0.00000000000E+00  1.43216501182E+00  1.43216501182E+00  0.00000000000E+00  0.00000000000E+00  1.
        2   -1    0    0  502    0  0.00000000000E+00  0.00000000000E+00 -2.72804443495E+03  2.72804443495E+03  0.00000000000E+00  0.00000000000E+00  1.
       39    2    1    2    0    0  0.00000000000E+00  0.00000000000E+00 -2.72661226994E+03  2.72947659997E+03  1.25012156056E+02  0.00000000000E+00  1.
       22    1    3    3    0    0  5.70181362764E+01 -1.87010649403E+00 -1.92100397147E+03  1.92185088484E+03  3.05175781250E-05  0.00000000000E+00  1.
       22    1    3    3    0    0 -5.70181362764E+01  1.87010649403E+00 -8.05608298469E+02  8.07625715121E+02  1.07895932188E-05  0.00000000000E+00  1.
</event>
<event>
 5   2   1.0000000E+00   6.2501692E+01   7.8125000E-03   1.3828875E-01
        1   -1    0    0  501    0  0.00000000000E+00  0.00000000000E+00  1.33673746937E+02  1.33673746937E+02  0.00000000000E+00  0.00000000000E+00  1.
       -1   -1    0    0    0  501  0.00000000000E+00  0.00000000000E+00 -2.92238495167E+01  2.92238495167E+01  0.00000000000E+00  0.00000000000E+00  1.
       39    2    1    2    0    0  0.00000000000E+00  0.00000000000E+00  1.04449897421E+02  1.62897596454E+02  1.25003383391E+02  0.00000000000E+00  1.
       22    1    3    3    0    0 -1.87185715210E+01 -3.39656648551E+00  1.29809069333E+02  1.31195716640E+02  0.00000000000E+00  0.00000000000E+00  1.
       22    1    3    3    0    0  1.87185715210E+01  3.39656648551E+00 -2.53591719120E+01  3.17018798140E+01  0.00000000000E+00  0.00000000000E+00  1.
</event>
<event>
 5   2   1.0000000E+00   6.2500110E+01   7.8125000E-03   1.3828935E-01
       -1   -1    0    0    0  502  0.00000000000E+00  0.00000000000E+00  7.21011389428E+02  7.21011389428E+02  0.00000000000E+00  0.00000000000E+00  1.
        1   -1    0    0  502    0  0.00000000000E+00  0.00000000000E+00 -5.41775590008E+00  5.41775590008E+00  0.00000000000E+00  0.00000000000E+00  1.
       39    2    1    2    0    0  0.00000000000E+00  0.00000000000E+00  7.15593633528E+02  7.26429145328E+02  1.25000219345E+02  0.00000000000E+00  1.
       22    1    3    3    0    0  4.70526982357E+01  3.36006597729E+01  2.19868479057E+02  2.27343592017E+02  0.00000000000E+00  0.00000000000E+00  1.
       22    1    3    3    0    0 -4.70526982357E+01 -3.36006597729E+01  4.95725154471E+02  4.99085553311E+02  0.00000000000E+00  0.00000000000E+00  1.
</event>
<event>
 5   2   1.0000000E+00   6.2503451E+01   7.8125000E-03   1.3828810E-01
       -2   -1    0    0    0  502  0.00000000000E+00  0.00000000000E+00  1.02981397863E+01  1.02981397863E+01  0.00000000000E+00  0.00000000000E+00  1.
        2   -1    0    0  502    0  0.00000000000E+00  0.00000000000E+00 -3.79357973209E+02  3.79357973209E+02  0.00000000000E+00  0.00000000000E+00  1.
       39    2    1    2    0    0  0.00000000000E+00  0.00000000000E+00 -3.69059833423E+02  3.89656112996E+02  1.25006902804E+02  0.00000000000E+00  1.
       22    1    3    3    0    0  1.65900871237E+01  5.08047531315E+01 -2.85550499161E+02  2.90508935323E+02  0.00000000000E+00  0.00000000000E+00  1.
       22    1    3    3    0    0 -1.65900871237E+01 -5.08047531315E+01 -8.35093342619E+01  9.91471776724E+01  0.00000000000E+00  0.00000000000E+00  1.
</event>
<event>
 5   2   1.0000000E+00   6.2499855E+01   7.8125000E-03   1.3828944E-01
        1   -1    0    0  501    0  0.00000000000E+00  0.00000000000E+00  1.51683447183E+01  1.51683447183E+01  0.00000000000E+00  0.00000000000E+00  1.
       -1   -1    0    0    0  501  0.00000000000E+00  0.00000000000E+00 -2.57525254348E+02  2.57525254348E+02  0.00000000000E+00  0.00000000000E+00  1.
       39    2    1    2    0    0  0.00000000000E+00  0.00000000000E+00 -2.42356909630E+02  2.72693599067E+02  1.24999709306E+02  0.00000000000E+00  1.
       22    1    3    3    0    0  2.80683475848E+01 -9.38940974790E+00 -1.08914201927E+00  2.96172142832E+01  0.00000000000E+00  0.00000000000E+00  1.
       22    1    3    3    0    0 -2.80683475848E+01  9.38940974790E+00 -2.41267767611E+02  2.43076384783E+02  0.00000000000E+00  0.00000000000E+00  1.
</event>
<event>
 5   2   1.0000000E+00   6.2505845E+01   7.8125000E-03   1.3828720E-01
       -2   -1    0    0    0  502  0.00000000000E+00  0.00000000000E+00  2.59642599340E+00  2.59642599340E+00  0.00000000000E+00  0.00000000000E+00  1.
        2   -1    0    0  502    0  0.00000000000E+00  0.00000000000E+00 -1.50475334026E+03  1.50475334026E+03  0.00000000000E+00  0.00000000000E+00  1.
       39    2    1    2    0    0  0.00000000000E+00  0.00000000000E+00 -1.50215691427E+03  1.50734976626E+03  1.25011690434E+02  0.00000000000E+00  1.
       22    1    3    3    0    0  9.13386726571E+00  5.45443906396E+01 -3.99858032947E+02  4.03664420767E+02  0.00000000000E+00  0.00000000000E+00  1.
       22    1    3    3    0    0 -9.13386726571E+00 -5.45443906396E+01 -1.10229888132E+03  1.10368534549E+03  1.52587890625E-05  0.00000000000E+00  1.
</event>
<event>
 5   2   1.0000000E+00   6.2498870E+01   7.8125000E-03   1.3828981E-01
       -2   -1    0    0    0  502  0.00000000000E+00  0.00000000000E+00  2.17049829182E+00  2.17049829182E+00  0.00000000000E+00  0.00000000000E+00  1.
        2   -1    0    0  502    0  0.00000000000E+00  0.00000000000E+00 -1.79963688585E+03  1.79963688585E+03  0.00000000000E+00  0.00000000000E+00  1.
       39    2    1    2    0    0  0.00000000000E+00  0.00000000000E+00 -1.79746638756E+03  1.80180738414E+03  1.24997740566E+02  0.00000000000E+00  1.
       22    1    3    3    0    0 -5.21243431741E+01  2.27600231619E-01 -1.39580277278E+03  1.39677570835E+03  2.64289979182E-05  0.00000000000E+00  1.
       22    1    3    3    0    0  5.21243431741E+01 -2.27600231619E-01 -4.01663614782E+02  4.05031675790E+02  0.00000000000E+00  0.00000000000E+00  1.
</event>
<event>
 5   2   1.0000000E+00   6.2499369E+01   7.8125000E-03   1.3828962E-01
       -1   -1    0    0    0  502  0.00000000000E+00  0.00000000000E+00  3.12518043489E+00  3.12518043489E+00  0.00000000000E+00  0.00000000000E+00  1.
        1   -1    0    0  502    0  0.00000000000E+00  0.00000000000E+00 -1.24990258932E+03  1.24990258932E+03  0.00000000000E+00  0.00000000000E+00  1.
       39    2    1    2    0    0  0.00000000000E+00  0.00000000000E+00 -1.24677740889E+03  1.25302776976E+03  1.24998737876E+02  0.00000000000E+00  1.
       22    1    3    3    0    0 -3.77275273767E+01 -1.93165257332E+01 -1.08381806941E+03  1.08464653324E+03  1.52587890625E-05  0.00000000000E+00  1.
       22    1    3    3    0    0  3.77275273767E+01  1.93165257332E+01 -1.62959339475E+02  1.68381236515E+02  0.00000000000E+00  0.00000000000E+00  1.
</event>
<event>
 5   2   1.0000000E+00   6.2498904E+01   7.8125000E-03   1.3828980E-01
       -2   -1    0    0    0  502  0.00000000000E+00  0.00000000000E+00  2.69119160122E+02  2.69119160122E+02  0.00000000000E+00  0.00000000000E+00  1.
        2   -1    0    0  502    0  0.00000000000E+00  0.00000000000E+00 -1.45144364700E+01  1.45144364700E+01  0.00000000000E+00  0.00000000000E+00  1.
       39    2    1    2    0    0  0.00000000000E+00  0.00000000000E+00  2.54604723652E+02  2.83633596592E+02  1.24997807220E+02  0.00000000000E+00  1.
       22    1    3    3    0    0  2.86808788741E+01  4.05943767891E+01  4.13268974318E+01  6.46406117795E+01  0.00000000000E+00  0.00000000000E+00  1.
       22    1    3    3    0    0 -2.86808788741E+01 -4.05943767891E+01  2.13277826220E+02  2.18992984812E+02  0.00000000000E+00  0.00000000000E+00  1.
</event>
<event>
 5   2   1.0000000E+00   6.2501061E+01   7.8125000E-03   1.3828899E-01
       -1   -1    0    0    0  502  0.00000000000E+00  0.00000000000E+00  4.62972585277E+01  4.62972585277E+01  0.00000000000E+00  0.00000000000E+00  1.
        1   -1    0    0  502    0  0.00000000000E+00  0.00000000000E+00 -8.43761105619E+01  8.43761105619E+01  0.00000000000E+00  0.00000000000E+00  1.
       39    2    1    2    0    0  0.00000000000E+00  0.00000000000E+00 -3.80788520342E+01  1.30673369090E+02  1.25002121650E+02  0.00000000000E+00  1.
       22    1    3    3    0    0 -2.32889852980E+01 -4.97692791670E+01  1.20947618042E+01  5.62640315665E+01  0.00000000000E+00  0.00000000000E+00  1.
       22    1    3    3    0    0  2.32889852980E+01  4.97692791670E+01 -5.01736138383E+01  7.44093375230E+01  0.00000000000E+00  0.00000000000E+00  1.
</event>
<event>
 5   2   1.0000000E+00   6.2501472E+01   7.8125000E-03   1.3828884E-01
       -1   -1    0    0    0  502  0.00000000000E+00  0.00000000000E+00  1.33739942547E+01  1.33739942547E+01  0.00000000000E+00  0.00000000000E+00  1.
        1   -1    0    0  502    0  0.00000000000E+00  0.00000000000E+00 -2.92091797556E+02  2.92091797556E+02  0.00000000000E+00  0.00000000000E+00  1.
       39    2    1    2    0    0  0.00000000000E+00  0.00000000000E+00 -2.78717803301E+02  3.05465791810E+02  1.25002944323E+02  0.00000000000E+00  1.
       22    1    3    3    0    0  5.38425224476E+01  2.22774555375E+01 -8.41118916236E+01  1.02323567966E+02  0.00000000000E+00  0.00000000000E+00  1.
       22    1    3    3    0    0 -5.38425224476E+01 -2.22774555375E+01 -1.94605911677E+02  2.03142223845E+02  0.00000000000E+00  0.00000000000E+00  1.
</event>
<event>
 5   2   1.0000000E+00   6.2499054E+01   7.8125000E-03   1.3828974E-01
       -2   -1    0    0    0  502  0.00000000000E+00  0.00000000000E+00  6.63351539229E+00  6.63351539229E+00  0.00000000000E+00  0.00000000000E+00  1.
        2   -1    0    0  502    0  0.00000000000E+00  0.00000000000E+00 -5.88847912972E+02  5.88847912972E+02  0.00000000000E+00  0.00000000000E+00  1.
       39    2    1    2    0    0  0.00000000000E+00  0.00000000000E+00 -5.82214397579E+02  5.95481428364E+02  1.24998107096E+02  0.00000000000E+00  1.
       22    1    3    3    0    0 -5.35156182047E+00  4.75671087935E+01 -9.96672458266E+01  1.10565948391E+02  0.00000000000E+00  0.00000000000E+00  1.
       22    1    3    3    0    0  5.35156182047E+00 -4.75671087935E+01 -4.82547151753E+02  4.84915479973E+02  0.00000000000E+00  0.00000000000E+00  1.
</event>
<event>
 5   2   1.0000000E+00   6.2499605E+01   7.8125000E-03   1.3828953E-01
       -2   -1    0    0    0  502  0.00000000000E+00  0.00000000000E+00  3.55800071392E+00  3.55800071392E+00  0.00000000000E+00  0.00000000000E+00  1.
        2   -1    0    0  502    0  0.00000000000E+00  0.00000000000E+00 -1.09786391290E+03  1.09786391290E+03  0.00000000000E+00  0.00000000000E+00  1.
       39    2    1    2    0    0  0.00000000000E+00  0.00000000000E+00 -1.09430591219E+03  1.10142191362E+03  1.24999209372E+02  0.00000000000E+00  1.
       22    1    3    3    0    0  4.55421677853E+01 -4.19744859880E+01 -4.73297569298E+02  4.77332730518E+02  0.00000000000E+00  0.00000000000E+00  1.
       22    1    3    3    0    0 -4.55421677853E+01  4.19744859880E+01 -6.21008342890E+02  6.24089183098E+02  0.00000000000E+00  0.00000000000E+00  1.
</event>
<event>
 5   2   1.0000000E+00   6.2500929E+01   7.8125000E-03   1.3828904E-01
        1   -1    0    0  501    0  0.00000000000E+00  0.00000000000E+00  1.44239702423E+02  1.44239702423E+02  0.00000000000E+00  0.00000000000E+00  1.
       -1   -1    0    0    0  501  0.00000000000E+00  0.00000000000E+00 -2.70824609740E+01  2.70824609740E+01  0.00000000000E+00  0.00000000000E+00  1.
       39    2    1    2    0    0  0.00000000000E+00  0.00000000000E+00  1.17157241449E+02  1.71322163397E+02  1.25001857775E+02  0.00000000000E+00  1.
       22    1    3    3    0    0 -7.59875820704E+00  4.70815484436E+01  3.21163546139E+00  4.77988277312E+01  0.00000000000E+00  0.00000000000E+00  1.
       22    1    3    3    0    0  7.59875820704E+00 -4.70815484436E+01  1.13945605988E+02  1.23523335666E+02  0.00000000000E+00  0.00000000000E+00  1.
</event>
<event>
 5   2   1.0000000E+00   6.2495289E+01   7.8125000E-03   1.3829115E-01
       -2   -1    0    0    0  502  0.00000000000E+00  0.00000000000E+00  1.99986868278E+03  1.99986868278E+03  0.00000000000E+00  0.00000000000E+00  1.
        2   -1    0    0  502    0  0.00000000000E+00  0.00000000000E+00 -1.95295879701E+00  1.95295879701E+00  0.00000000000E+00  0.00000000000E+00  1.
       39    2    1    2    0    0  0.00000000000E+00  0.00000000000E+00  1.99791572398E+03  2.00182164157E+03  1.24990577835E+02  0.00000000000E+00  1.
       22    1    3    3    0    0 -4.54279216228E+01 -4.00672817474E+01  1.24529806157E+03  1.24677036590E+03  3.73762472959E-05  0.00000000000E+00  1.
       22    1    3    3    0    0  4.54279216228E+01  4.00672817474E+01  7.52617662406E+02  7.55051275673E+02  1.86881236479E-05  0.00000000000E+00  1.
</event>
<event>
 5   2   1.0000000E+00   6.2478730E+01   7.8125000E-03   1.3829733E-01
       -1   -1    0    0    0  502  0.00000000000E+00  0.00000000000E+00  2.69220678470E+01  2.69220678470E+01  0.00000000000E+00  0.00000000000E+00  1.
        1   -1    0    0  502    0  0.00000000000E+00  0.00000000000E+00 -1.44995981294E+02  1.44995981294E+02  0.00000000000E+00  0.00000000000E+00  1.
       39    2    1    2    0    0  0.00000000000E+00  0.00000000000E+00 -1.18073913447E+02  1.71918049141E+02  1.24957459096E+02  0.00000000000E+00  1.
       22    1    3    3    0    0 -3.11002312121E+01 -4.64188269961E+01 -9.75021720112E+01  1.12377068070E+02  0.00000000000E+00  0.00000000000E+00  1.
       22    1    3    3    0    0  3.11002312121E+01  4.64188269961E+01 -2.05717414353E+01  5.95409810704E+01  0.00000000000E+00  0.00000000000E+00  1.
</event>
<event>
 5   2   1.0000000E+00   6.2499939E+01   7.8125000E-03   1.3828941E-01
       -1   -1    0    0    0  502  0.00000000000E+00  0.00000000000E+00  4.12252293257E+01  4.12252293257E+01  0.00000000000E+00  0.00000000000E+00  1.
        1   -1    0    0  502    0  0.00000000000E+00  0.00000000000E+00 -9.47536832805E+01  9.47536832805E+01  0.00000000000E+00  0.00000000000E+00  1.
       39    2    1    2    0    0  0.00000000000E+00  0.00000000000E+00 -5.35284539548E+01  1.35978912606E+02  1.24999877163E+02  0.00000000000E+00  1.
       22    1    3    3    0    0  4.00980426762E+01 -3.64971317126E+01 -6.05807463470E+01  8.13014174395E+01  0.00000000000E+00  0.00000000000E+00  1.
       22    1    3    3    0    0 -4.00980426762E+01  3.64971317126E+01  7.05229239222E+00  5.46774951666E+01  0.00000000000E+00  0.00000000000E+00  1.
</event>
<event>
 5   2   1.0000000E+00   6.2499832E+01   7.8125000E-03   1.3828945E-01
        1   -1    0    0  501    0  0.00000000000E+00  0.00000000000E+00  1.65133182040E+02  1.65133182040E+02  0.00000000000E+00  0.00000000000E+00  1.
       -1   -1    0    0    0  501  0.00000000000E+00  0.00000000000E+00 -2.36550219682E+01  2.36550219682E+01  0.00000000000E+00  0.00000000000E+00  1.
       39    2    1    2    0    0  0.00000000000E+00  0.00000000000E+00  1.41478160072E+02  1.88788204009E+02  1.24999664781E+02  0.00000000000E+00  1.
       22    1    3    3    0    0  5.26265775833E+01 -2.55377330638E+01  1.03982933575E+02  1.19307095150E+02  0.00000000000E+00  0.00000000000E+00  1.
       22    1    3    3    0    0 -5.26265775833E+01  2.55377330638E+01  3.74952264969E+01  6.94811088586E+01  0.00000000000E+00  0.00000000000E+00  1.
</event>
<event>
 5   2   1.0000000E+00   6.2505214E+01   7.8125000E-03   1.3828744E-01
        2   -1    0    0  501    0  0.00000000000E+00  0.00000000000E+00  9.63604508010E+02  9.63604508010E+02  0.00000000000E+00  0.00000000000E+00  1.
       -2   -1    0    0    0  501  0.00000000000E+00  0.00000000000E+00 -4.05446605200E+00  4.05446605200E+00  0.00000000000E+00  0.00000000000E+00  1.
       39    2    1    2    0    0  0.00000000000E+00  0.00000000000E+00  9.59550041958E+02  9.67658974062E+02  1.25010427810E+02  0.00000000000E+00  1.
       22    1    3    3    0    0 -2.58341850863E+01 -5.21240852423E+01  3.02824853978E+02  3.08362153268E+02  0.00000000000E+00  0.00000000000E+00  1.
       22    1    3    3    0    0  2.58341850863E+01  5.21240852423E+01  6.56725187979E+02  6.59296820793E+02  0.00000000000E+00  0.00000000000E+00  1.
</event>
<event>
 5   2   1.0000000E+00   6.2506338E+01   7.8125000E-03   1.3828702E-01
       -1   -1    0    0    0  502  0.00000000000E+00  0.00000000000E+00  8.19052711923E+01  8.19052711923E+01  0.00000000000E+00  0.00000000000E+00  1.
        1   -1    0    0  502    0  0.00000000000E+00  0.00000000000E+00 -4.77019634799E+01  4.77019634799E+01  0.00000000000E+00  0.00000000000E+00  1.
       39    2    1    2    0    0  0.00000000000E+00  0.00000000000E+00  3.42033077124E+01  1.29607234672E+02  1.25012675441E+02  0.00000000000E+00  1.
       22    1    3    3    0    0  3.11292333677E+01  5.27732638212E+00 -3.88269329156E+01  5.00440812028E+01  0.00000000000E+00  0.00000000000E+00  1.
       22    1    3    3    0    0 -3.11292333677E+01 -5.27732638212E+00  7.30302406280E+01  7.95631534693E+01  0.00000000000E+00  0.00000000000E+00  1.
</event>
<event>
 5   2   1.0000000E+00   6.2505994E+01   7.8125000E-03   1.3828715E-01
       -2   -1    0    0    0  502  0.00000000000E+00  0.00000000000E+00  8.85264401656E+01  8.85264401656E+01  0.00000000000E+00  0.00000000000E+00  1.
        2   -1    0    0  502    0  0.00000000000E+00  0.00000000000E+00 -4.41336995442E+01  4.41336995442E+01  0.00000000000E+00  0.00000000000E+00  1.
       39    2    1    2    0    0  0.00000000000E+00  0.00000000000E+00  4.43927406214E+01  1.32660139710E+02  1.25011988417E+02  0.00000000000E+00  1.
       22    1    3    3    0    0 -4.05742938306E+01  2.27725623208E+01 -2.20960960961E+01  5.15082554276E+01  0.00000000000E+00  0.00000000000E+00  1.
       22    1    3    3    0    0  4.05742938306E+01 -2.27725623208E+01  6.64888367175E+01  8.11518842822E+01  0.00000000000E+00  0.00000000000E+00  1.
</event>
<event>
 5   2   1.0000000E+00   6.2501553E+01   7.8125000E-03   1.3828881E-01
        2   -1    0    0  501    0  0.00000000000E+00  0.00000000000E+00  1.50332319455E+03  1.50332319455E+03  0.00000000000E+00  0.00000000000E+00  1.
       -2   -1    0    0    0  501  0.00000000000E+00  0.00000000000E+00 -2.59853910196E+00  2.59853910196E+00  0.00000000000E+00  0.00000000000E+00  1.
       39    2    1    2    0    0  0.00000000000E+00  0.00000000000E+00  1.50072465545E+03  1.50592173365E+03  1.25003105624E+02  0.00000000000E+00  1.
       22    1    3    3    0    0  2.61645885439E+01 -5.66318453641E+01  7.04184929344E+02  7.06942831011E+02  1.07895932188E-05  0.00000000000E+00  1.
       22    1    3    3    0    0 -2.61645885439E+01  5.66318453641E+01  7.96539726104E+02  7.98978902641E+02  0.00000000000E+00  0.00000000000E+00  1.
</event>
<event>
 5   2   1.0000000E+00   6.2495541E+01   7.8125000E-03   1.3829105E-01
        3   -1    0    0  501    0  0.00000000000E+00  0.00000000000E+00  3.31282370366E+02  3.31282370366E+02  0.00000000000E+00  0.00000000000E+00  1.
       -3   -1    0    0    0  501  0.00000000000E+00  0.00000000000E+00 -1.17896181282E+01  1.17896181282E+01  0.00000000000E+00  0.00000000000E+00  1.
       39    2    1    2    0    0  0.00000000000E+00  0.00000000000E+00  3.19492752237E+02  3.43071988494E+02  1.24991081909E+02  0.00000000000E+00  1.
       22    1    3    3    0    0  3.82037791979E+01  4.65041017975E+01  1.13528755073E+02  1.28494896620E+02  0.00000000000E+00  0.00000000000E+00  1.
       22    1    3    3    0    0 -3.82037791979E+01 -4.65041017975E+01  2.05963997164E+02  2.14577091873E+02  0.00000000000E+00  0.00000000000E+00  1.
</event>
<event>
 5   2   1.0000000E+00   6.2478780E+01   7.8125000E-03   1.3829731E-01
       -1   -1    0    0    0  502  0.00000000000E+00  0.00000000000E+00  6.43531010227E+01  6.43531010227E+01  0.00000000000E+00  0.00000000000E+00  1.
        1   -1    0    0  502    0  0.00000000000E+00  0.00000000000E+00 -6.06590489309E+01  6.06590489309E+01  0.00000000000E+00  0.00000000000E+00  1.
       39    2    1    2    0    0  0.00000000000E+00  0.00000000000E+00  3.69405209183E+00  1.25012149954E+02  1.24957559256E+02  0.00000000000E+00  1.
       22    1    3    3    0    0  4.80293709397E+01  3.94657602076E+01  8.11324403089E+00  6.26912388642E+01  0.00000000000E+00  0.00000000000E+00  1.
       22    1    3    3    0    0 -4.80293709397E+01 -3.94657602076E+01 -4.41919193906E+00  6.23209110894E+01  0.00000000000E+00  0.00000000000E+00  1.
</event>
<event>
 5   2   1.0000000E+00   6.2498859E+01   7.8125000E-03   1.3828981E-01
        2   -1    0    0  501    0  0.00000000000E+00  0.00000000000E+00  1.29274221787E+03  1.29274221787E+03  0.00000000000E+00  0.00000000000E+00  1.
       -2   -1    0    0    0  501  0.00000000000E+00  0.00000000000E+00 -3.02156707601E+00  3.02156707601E+00  0.00000000000E+00  0.00000000000E+00  1.
       39    2    1    2    0    0  0.00000000000E+00  0.00000000000E+00  1.28972065080E+03  1.29576378495E+03  1.24997717152E+02  0.00000000000E+00  1.
       22    1    3    3    0    0 -4.87252750972E+01  3.91325563023E+01  6.52876144804E+02  6.55860328005E+02  1.07895932188E-05  0.00000000000E+00  1.
       22    1    3    3    0    0  4.87252750972E+01 -3.91325563023E+01  6.36844505991E+02  6.39903456942E+02  0.00000000000E+00  0.00000000000E+00  1.
</event>
<event>
 5   2   1.0000000E+00   6.2499486E+01   7.8125000E-03   1.3828958E-01
       -2   -1    0    0    0  502  0.00000000000E+00  0.00000000000E+00  1.79380489294E+00  1.79380489294E+00  0.00000000000E+00  0.00000000000E+00  1.
        2   -1    0    0  502    0  0.00000000000E+00  0.00000000000E+00 -2.17759787000E+03  2.17759787000E+03  0.00000000000E+00  0.00000000000E+00  1.
       39    2    1    2    0    0  0.00000000000E+00  0.00000000000E+00 -2.17580406511E+03  2.17939167489E+03  1.24998971421E+02  0.00000000000E+00  1.
       22    1    3    3    0    0 -3.55684501036E+01  2.54516563041E+01 -1.86632110313E+03  1.86683351198E+03  3.73762472959E-05  0.00000000000E+00  1.
       22    1    3    3    0    0  3.55684501036E+01 -2.54516563041E+01 -3.09482961978E+02  3.12558162917E+02  1.00927402918E-05  0.00000000000E+00  1.
</event>
<event>
 5   2   1.0000000E+00   6.2513263E+01   7.8125000E-03   1.3828443E-01
       -2   -1    0    0    0  502  0.00000000000E+00  0.00000000000E+00  1.38874625633E+00  1.38874625633E+00  0.00000000000E+00  0.00000000000E+00  1.
        2   -1    0    0  502    0  0.00000000000E+00  0.00000000000E+00 -2.81398281634E+03  2.81398281634E+03  0.00000000000E+00  0.00000000000E+00  1.
       39    2    1    2    0    0  0.00000000000E+00  0.00000000000E+00 -2.81259407008E+03  2.81537156259E+03  1.25026526810E+02  0.00000000000E+00  1.
       22    1    3    3    0    0  2.30312914577E+01  5.06621019071E+01 -2.04750004196E+03  2.04825621219E+03  0.00000000000E+00  0.00000000000E+00  1.
       22    1    3    3    0    0 -2.30312914577E+01 -5.06621019071E+01 -7.65094028123E+02  7.67115350404E+02  1.07895932188E-05  0.00000000000E+00  1.
</event>
<event>
 5   2   1.0000000E+00   6.2499285E+01   7.8125000E-03   1.3828965E-01
        1   -1    0    0  501    0  0.00000000000E+00  0.00000000000E+00  4.93446767548E+02  4.93446767548E+02  0.00000000000E+00  0.00000000000E+00  1.
       -1   -1    0    0    0  501  0.00000000000E+00  0.00000000000E+00 -7.91607306862E+00  7.91607306862E+00  0.00000000000E+00  0.00000000000E+00  1.
       39    2    1    2    0    0  0.00000000000E+00  0.00000000000E+00  4.85530694480E+02  5.01362840617E+02  1.24998570670E+02  0.00000000000E+00  1.
       22    1    3    3    0    0 -4.45935725017E+01 -4.31023757785E+01  2.11759090291E+02  2.20654285766E+02  0.00000000000E+00  0.00000000000E+00  1.
       22    1    3    3    0    0  4.45935725017E+01  4.31023757785E+01  2.73771604189E+02  2.80708554851E+02  0.00000000000E+00  0.00000000000E+00  1.
</event>
<event>
 5   2   1.0000000E+00   6.2499239E+01   7.8125000E-03   1.3828967E-01
        2   -1    0    0  501    0  0.00000000000E+00  0.00000000000E+00  1.34972847566E+02  1.34972847566E+02  0.00000000000E+00  0.00000000000E+00  1.
       -2   -1    0    0    0  501  0.00000000000E+00  0.00000000000E+00 -2.89403013957E+01  2.89403013957E+01  0.00000000000E+00  0.00000000000E+00  1.
       39    2    1    2    0    0  0.00000000000E+00  0.00000000000E+00  1.06032546170E+02  1.63913148962E+02  1.24998478211E+02  0.00000000000E+00  1.
       22    1    3    3    0    0  5.14026119847E+01  2.39386939162E+01  8.74834536267E+01  1.04252790100E+02  0.00000000000E+00  0.00000000000E+00  1.
       22    1    3    3    0    0 -5.14026119847E+01 -2.39386939162E+01  1.85490925434E+01  5.96603588612E+01  0.00000000000E+00  0.00000000000E+00  1.
</event>
<event>
 5   2   1.0000000E+00   6.2499338E+01   7.8125000E-03   1.3828963E-01
       -2   -1    0    0    0  502  0.00000000000E+00  0.00000000000E+00  1.33281818264E+01  1.33281818264E+01  0.00000000000E+00  0.00000000000E+00  1.
        2   -1    0    0  502    0  0.00000000000E+00  0.00000000000E+00 -2.93075778643E+02  2.93075778643E+02  0.00000000000E+00  0.00000000000E+00  1.
       39    2    1    2    0    0  0.00000000000E+00  0.00000000000E+00 -2.79747596817E+02  3.06403960469E+02  1.24998676260E+02  0.00000000000E+00  1.
       22    1    3    3    0    0  2.77991774517E+01  4.09406498717E+01 -2.33447526899E+02  2.38635032831E+02  0.00000000000E+00  0.00000000000E+00  1.
       22    1    3    3    0    0 -2.77991774517E+01 -4.09406498717E+01 -4.63000699178E+01  6.77689276387E+01  0.00000000000E+00  0.00000000000E+00  1.
</event>
<event>
 5   2   1.0000000E+00   6.2495676E+01   7.8125000E-03   1.3829100E-01
        2   -1    0    0  501    0  0.00000000000E+00  0.00000000000E+00  1.10459188015E+02  1.10459188015E+02  0.00000000000E+00  0.00000000000E+00  1.
       -2   -1    0    0    0  501  0.00000000000E+00  0.00000000000E+00 -3.53588471527E+01  3.53588471527E+01  0.00000000000E+00  0.00000000000E+00  1.
       39    2    1    2    0    0  0.00000000000E+00  0.00000000000E+00  7.51003408626E+01  1.45818035168E+02  1.24991352431E+02  0.00000000000E+00  1.
       22    1    3    3    0    0 -5.59371226080E+01  2.36956610117E+01  5.46667302693E+01  8.17245216246E+01  0.00000000000E+00  0.00000000000E+00  1.
       22    1    3    3    0    0  5.59371226080E+01 -2.36956610117E+01  2.04336105933E+01  6.40935135432E+01  0.00000000000E+00  0.00000000000E+00  1.
</event>
<event>
 5   2   1.0000000E+00   6.2498713E+01   7.8125000E-03   1.3828987E-01
       -1   -1    0    0    0  502  0.00000000000E+00  0.00000000000E+00  1.40952397679E+00  1.40952397679E+00  0.00000000000E+00  0.00000000000E+00  1.
        1   -1    0    0  502    0  0.00000000000E+00  0.00000000000E+00 -2.77121156864E+03  2.77121156864E+03  0.00000000000E+00  0.00000000000E+00  1.
       39    2    1    2    0    0  0.00000000000E+00  0.00000000000E+00 -2.76980204467E+03  2.77262109262E+03  1.24997426386E+02  0.00000000000E+00  1.
       22    1    3    3    0    0  2.36929885464E+00  4.80521500824E+01 -5.00013248183E+02  5.02322477163E+02  1.07895932188E-05  0.00000000000E+00  1.
       22    1    3    3    0    0 -2.36929885464E+00 -4.80521500824E+01 -2.26978879648E+03  2.27029861546E+03  3.05175781250E-05  0.00000000000E+00  1.
</event>
<event>
 5   2   1.0000000E+00   6.2499827E+01   7.8125000E-03   1.3828945E-01
        2   -1    0    0  501    0  0.00000000000E+00  0.00000000000E+00  8.27625599434E+02  8.27625599434E+02  0.00000000000E+00  0.00000000000E+00  1.
       -2   -1    0    0    0  501  0.00000000000E+00  0.00000000000E+00 -4.71980126946E+00  4.71980126946E+00  0.00000000000E+00  0.00000000000E+00  1.
       39    2    1    2    0    0  0.00000000000E+00  0.00000000000E+00  8.22905798164E+02  8.32345400703E+02  1.24999653677E+02  0.00000000000E+00  1.
       22    1    3    3    0    0 -3.64011435908E+01 -5.62735991326E+00  7.47673104238E+02  7.48579842926E+02  1.52587890625E-05  0.00000000000E+00  1.
       22    1    3    3    0    0  3.64011435908E+01  5.62735991326E+00  7.52326939264E+01  8.37655577772E+01  0.00000000000E+00  0.00000000000E+00  1.
</event>
<event>
 5   2   1.0000000E+00   6.2497891E+01   7.8125000E-03   1.3829017E-01
       -1   -1    0    0    0  502  0.00000000000E+00  0.00000000000E+00  3.99336629270E+02  3.99336629270E+02  0.00000000000E+00  0.00000000000E+00  1.
        1   -1    0    0  502    0  0.00000000000E+00  0.00000000000E+00 -9.78118740833E+00  9.78118740833E+00  0.00000000000E+00  0.00000000000E+00  1.
       39    2    1    2    0    0  0.00000000000E+00  0.00000000000E+00  3.89555441862E+02  4.09117816678E+02  1.24995782487E+02  0.00000000000E+00  1.
       22    1    3    3    0    0  4.56699371959E+01  3.11428760593E+01  2.90223251946E+02  2.95440616475E+02  0.00000000000E+00  0.00000000000E+00  1.
       22    1    3    3    0    0 -4.56699371959E+01 -3.11428760593E+01  9.93321899153E+01  1.13677200203E+02  0.00000000000E+00  0.00000000000E+00  1.
</event>
<event>
 5   2   1.0000000E+00   6.2505324E+01   7.8125000E-03   1.3828740E-01
       -1   -1    0    0    0  502  0.00000000000E+00  0.00000000000E+00  4.95808129952E+00  4.95808129952E+00  0.00000000000E+00  0.00000000000E+00  1.
        1   -1    0    0  502    0  0.00000000000E+00  0.00000000000E+00 -7.87989410906E+02  7.87989410906E+02  0.00000000000E+00  0.00000000000E+00  1.
       39    2    1    2    0    0  0.00000000000E+00  0.00000000000E+00 -7.83031329607E+02  7.92947492206E+02  1.25010648545E+02  0.00000000000E+00  1.
       22    1    3    3    0    0  5.11139556316E+01  1.10791335531E+01 -1.74408337337E+02  1.82081442748E+02  0.00000000000E+00  0.00000000000E+00  1.
       22    1    3    3    0    0 -5.11139556316E+01 -1.10791335531E+01 -6.08622992270E+02  6.10866049458E+02  1.07895932188E-05  0.00000000000E+00  1.
</event>
<event>
 5   2   1.0000000E+00   6.2499156E+01   7.8125000E-03   1.3828970E-01
        2   -1    0    0  501    0  0.00000000000E+00  0.00000000000E+00  1.56995637208E+02  1.56995637208E+02  0.00000000000E+00  0.00000000000E+00  1.
       -2   -1    0    0    0  501  0.00000000000E+00  0.00000000000E+00 -2.48805929605E+01  2.48805929605E+01  0.00000000000E+00  0.00000000000E+00  1.
       39    2    1    2    0    0  0.00000000000E+00  0.00000000000E+00  1.32115044247E+02  1.81876230168E+02  1.24998312724E+02  0.00000000000E+00  1.
       22    1    3    3    0    0 -3.35793263316E+01  4.54513297575E+01  2.72120494992E+01  6.27207315930E+01  0.00000000000E+00  0.00000000000E+00  1.
       22    1    3    3    0    0  3.35793263316E+01 -4.54513297575E+01  1.04902994748E+02  1.19155498575E+02  0.00000000000E+00  0.00000000000E+00  1.
</event>
<event>
 5   2   1.0000000E+00   6.2500196E+01   7.8125000E-03   1.3828931E-01
        2   -1    0    0  501    0  0.00000000000E+00  0.00000000000E+00  1.43409792247E+03  1.43409792247E+03  0.00000000000E+00  0.00000000000E+00  1.
       -2   -1    0    0    0  501  0.00000000000E+00  0.00000000000E+00 -2.72385475918E+00  2.72385475918E+00  0.00000000000E+00  0.00000000000E+00  1.
       39    2    1    2    0    0  0.00000000000E+00  0.00000000000E+00  1.43137406771E+03  1.43682177723E+03  1.25000391219E+02  0.00000000000E+00  1.
       22    1    3    3    0    0  8.40556994878E+00 -3.41100126467E+01  1.30986993358E+03  1.31034094398E+03  1.52587890625E-05  0.00000000000E+00  1.
       22    1    3    3    0    0 -8.40556994878E+00  3.41100126467E+01  1.21504134126E+02  1.26480833246E+02  0.00000000000E+00  0.00000000000E+00  1.
</event>
<event>
 5   2   1.0000000E+00   6.2500310E+01   7.8125000E-03   1.3828927E-01
       -5   -1    0    0    0  502  0.00000000000E+00  0.00000000000E+00  2.26517754189E+01  2.26517754189E+01  0.00000000000E+00  0.00000000000E+00  1.
        5   -1    0    0  502    0  0.00000000000E+00  0.00000000000E+00 -1.72449562953E+02  1.72449562953E+02  0.00000000000E+00  0.00000000000E+00  1.
       39    2    1    2    0    0  0.00000000000E+00  0.00000000000E+00 -1.49797787534E+02  1.95101338372E+02  1.25000620336E+02  0.00000000000E+00  1.
       22    1    3    3    0    0 -4.86539874922E+01 -3.76057236817E+01 -5.74564183224E+01  8.41584277357E+01  0.00000000000E+00  0.00000000000E+00  1.
       22    1    3    3    0    0  4.86539874922E+01  3.76057236817E+01 -9.23413692115E+01  1.10942910636E+02  0.00000000000E+00  0.00000000000E+00  1.
</event>
<event>
 5   2   1.0000000E+00   6.2498959E+01   7.8125000E-03   1.3828977E-01
        2   -1    0    0  501    0  0.00000000000E+00  0.00000000000E+00  8.08289617210E+01  8.08289617210E+01  0.00000000000E+00  0.00000000000E+00  1.
       -2   -1    0    0    0  501  0.00000000000E+00  0.00000000000E+00 -4.83257463151E+01  4.83257463151E+01  0.00000000000E+00  0.00000000000E+00  1.
       39    2    1    2    0    0  0.00000000000E+00  0.00000000000E+00  3.25032154059E+01  1.29154708036E+02  1.24997918367E+02  0.00000000000E+00  1.
       22    1    3    3    0    0  1.77200950315E+01 -4.98614453345E+01 -1.81102054391E+01  5.59298224547E+01  0.00000000000E+00  0.00000000000E+00  1.
       22    1    3    3    0    0 -1.77200950315E+01  4.98614453345E+01  5.06134208450E+01  7.32248855813E+01  0.00000000000E+00  0.00000000000E+00  1.
</event>
<event>
 5   2   1.0000000E+00   6.2499575E+01   7.8125000E-03   1.3828954E-01
        2   -1    0    0  501    0  0.00000000000E+00  0.00000000000E+00  2.63583217372E+00  2.63583217372E+00  0.00000000000E+00  0.00000000000E+00  1.
       -2   -1    0    0    0  501  0.00000000000E+00  0.00000000000E+00 -1.48195965316E+03  1.48195965316E+03  0.00000000000E+00  0.00000000000E+00  1.
       39    2    1    2    0    0  0.00000000000E+00  0.00000000000E+00 -1.47932382099E+03  1.48459548534E+03  1.24999150941E+02  0.00000000000E+00  1.
       22    1    3    3    0    0  1.59606582930E+01  2.90616338727E+01 -1.36889661469E+03  1.36929809132E+03  0.00000000000E+00  0.00000000000E+00  1.
       22    1    3    3    0    0 -1.59606582930E+01 -2.90616338727E+01 -1.10427206297E+02  1.15297394017E+02  0.00000000000E+00  0.00000000000E+00  1.
</event>
<event>
 5   2   1.0000000E+00   6.2500112E+01   7.8125000E-03   1.3828934E-01
        2   -1    0    0  501    0  0.00000000000E+00  0.00000000000E+00  2.17009151808E+02  2.17009151808E+02  0.00000000000E+00  0.00000000000E+00  1.
       -2   -1    0    0    0  501  0.00000000000E+00  0.00000000000E+00 -1.80004571836E+01  1.80004571836E+01  0.00000000000E+00  0.00000000000E+00  1.
       39    2    1    2    0    0  0.00000000000E+00  0.00000000000E+00  1.99008694624E+02  2.35009608991E+02  1.25000223129E+02  0.00000000000E+00  1.
       22    1    3    3    0    0  1.27153499686E+01  4.98177158240E+01  1.66313891540E+02  1.74079853671E+02  0.00000000000E+00  0.00000000000E+00  1.
       22    1    3    3    0    0 -1.27153499686E+01 -4.98177158240E+01  3.26948030840E+01  6.09297553207E+01  0.00000000000E+00  0.00000000000E+00  1.
</event>
<event>
 5   2   1.0000000E+00   6.2499782E+01   7.8125000E-03   1.3828947E-01
        2   -1    0    0  501    0  0.00000000000E+00  0.00000000000E+00  1.43716996021E+03  1.43716996021E+03  0.00000000000E+00  0.00000000000E+00  1.
       -2   -1    0    0    0  501  0.00000000000E+00  0.00000000000E+00 -2.71799639284E+00  2.71799639284E+00  0.00000000000E+00  0.00000000000E+00  1.
       39    2    1    2    0    0  0.00000000000E+00  0.00000000000E+00  1.43445196382E+03  1.43988795660E+03  1.24999564283E+02  0.00000000000E+00  1.
       22    1    3    3    0    0 -5.40824365350E+01 -2.63531064413E+01  9.12313695048E+02  9.14295178994E+02  1.07895932188E-05  0.00000000000E+00  1.
       22    1    3    3    0    0  5.40824365350E+01  2.63531064413E+01  5.22138268771E+02  5.25592777610E+02  0.00000000000E+00  0.00000000000E+00  1.
</event>
<event>
 5   2   1.0000000E+00   6.2472068E+01   7.8125000E-03   1.3829982E-01
       -4   -1    0    0    0  502  0.00000000000E+00  0.00000000000E+00  4.12422571377E+01  4.12422571377E+01  0.00000000000E+00  0.00000000000E+00  1.
        4   -1    0    0  502    0  0.00000000000E+00  0.00000000000E+00 -9.46301098755E+01  9.46301098755E+01  0.00000000000E+00  0.00000000000E+00  1.
       39    2    1    2    0    0  0.00000000000E+00  0.00000000000E+00 -5.33878527378E+01  1.35872367013E+02  1.24944136708E+02  0.00000000000E+00  1.
       22    1    3    3    0    0 -2.05821529008E+01  3.04212226560E+00  3.73639409851E+01  4.27661503043E+01  0.00000000000E+00  0.00000000000E+00  1.
       22    1    3    3    0    0  2.05821529008E+01 -3.04212226560E+00 -9.07517937229E+01  9.31062167088E+01  0.00000000000E+00  0.00000000000E+00  1.
</event>
<event>
 5   2   1.0000000E+00   6.2500656E+01   7.8125000E-03   1.3828914E-01
        2   -1    0    0  501    0  0.00000000000E+00  0.00000000000E+00  2.91623291074E+02  2.91623291074E+02  0.00000000000E+00  0.00000000000E+00  1.
       -2   -1    0    0    0  501  0.00000000000E+00  0.00000000000E+00 -1.33951305346E+01  1.33951305346E+01  0.00000000000E+00  0.00000000000E+00  1.
       39    2    1    2    0    0  0.00000000000E+00  0.00000000000E+00  2.78228160539E+02  3.05018421608E+02  1.25001312807E+02  0.00000000000E+00  1.
       22    1    3    3    0    0  3.76092348494E+01 -4.92362341495E+01  1.59187066908E+02  1.70819154576E+02  0.00000000000E+00  0.00000000000E+00  1.
       22    1    3    3    0    0 -3.76092348494E+01  4.92362341495E+01  1.19041093631E+02  1.34199267033E+02  0.00000000000E+00  0.00000000000E+00  1.
</event>
<event>
 5   2   1.0000000E+00   6.2499508E+01   7.8125000E-03   1.3828957E-01
        2   -1    0    0  501    0  0.00000000000E+00  0.00000000000E+00  1.13982332980E+02  1.13982332980E+02  0.00000000000E+00  0.00000000000E+00  1.
       -2   -1    0    0    0  501  0.00000000000E+00  0.00000000000E+00 -3.42701219976E+01  3.42701219976E+01  0.00000000000E+00  0.00000000000E+00  1.
       39    2    1    2    0    0  0.00000000000E+00  0.00000000000E+00  7.97122109822E+01  1.48252454977E+02  1.24999015305E+02  0.00000000000E+00  1.
       22    1    3    3    0    0  1.69301632901E+01 -5.98177168222E+01  3.22249714226E+01  7.00231280224E+01  0.00000000000E+00  0.00000000000E+00  1.
       22    1    3    3    0    0 -1.69301632901E+01  5.98177168222E+01  4.74872395595E+01  7.82293269550E+01  0.00000000000E+00  0.00000000000E+00  1.
</event>
<event>
 5   2   1.0000000E+00   6.2500431E+01   7.8125000E-03   1.3828923E-01
        2   -1    0    0  501    0  0.00000000000E+00  0.00000000000E+00  1.21096367321E+03  1.21096367321E+03  0.00000000000E+00  0.00000000000E+00  1.
       -2   -1    0    0    0  501  0.00000000000E+00  0.00000000000E+00 -3.22578120996E+00  3.22578120996E+00  0.00000000000E+00  0.00000000000E+00  1.
       39    2    1    2    0    0  0.00000000000E+00  0.00000000000E+00  1.20773789200E+03  1.21418945442E+03  1.25000861805E+02  0.00000000000E+00  1.
       22    1    3    3    0    0 -1.48899820160E+01 -5.54652581407E+00  1.67210351505E+01  2.30666107079E+01  0.00000000000E+00  0.00000000000E+00  1.
       22    1    3    3    0    0  1.48899820160E+01  5.54652581407E+00  1.19101685685E+03  1.19112284371E+03  2.15791864376E-05  0.00000000000E+00  1.
</event>
<event>
 5   2   1.0000000E+00   6.2500901E+01   7.8125000E-03   1.3828905E-01
       -5   -1    0    0    0  502  0.00000000000E+00  0.00000000000E+00  3.59374973074E+00  3.59374973074E+00  0.00000000000E+00  0.00000000000E+00  1.
        5   -1    0    0  502    0  0.00000000000E+00  0.00000000000E+00 -1.08698793698E+03  1.08698793698E+03  0.00000000000E+00  0.00000000000E+00  1.
       39    2    1    2    0    0  0.00000000000E+00  0.00000000000E+00 -1.08339418725E+03  1.09058168671E+03  1.25001801680E+02  0.00000000000E+00  1.
       22    1    3    3    0    0 -1.69621670972E+01  5.05112583623E+01 -8.26718251269E+02  8.28433563610E+02  1.07895932188E-05  0.00000000000E+00  1.
       22    1    3    3    0    0  1.69621670972E+01 -5.05112583623E+01 -2.56675935979E+02  2.62148123100E+02  0.00000000000E+00  0.00000000000E+00  1.
</event>
<event>
 5   2   1.0000000E+00   6.2497822E+01   7.8125000E-03   1.3829020E-01
        2   -1    0    0  501    0  0.00000000000E+00  0.00000000000E+00  3.25576199843E+02  3.25576199843E+02  0.00000000000E+00  0.00000000000E+00  1.
       -2   -1    0    0    0  501  0.00000000000E+00  0.00000000000E+00 -1.19971230815E+01  1.19971230815E+01  0.00000000000E+00  0.00000000000E+00  1.
       39    2    1    2    0    0  0.00000000000E+00  0.00000000000E+00  3.13579076762E+02  3.37573322924E+02  1.24995643795E+02  0.00000000000E+00  1.
       22    1    3    3    0    0 -7.68046364572E+00 -5.94333199952E+01  2.04696652500E+02  2.13288603990E+02  0.00000000000E+00  0.00000000000E+00  1.
       22    1    3    3    0    0  7.68046364572E+00  5.94333199952E+01  1.08882424262E+02  1.24284718934E+02  0.00000000000E+00  0.00000000000E+00  1.
</event>
<event>
 5   2   1.0000000E+00   6.2501388E+01   7.8125000E-03   1.3828887E-01
        2   -1    0    0  501    0  0.00000000000E+00  0.00000000000E+00  5.00839409387E+01  5.00839409387E+01  0.00000000000E+00  0.00000000000E+00  1.
       -2   -1    0    0    0  501  0.00000000000E+00  0.00000000000E+00 -7.79975271750E+01  7.79975271750E+01  0.00000000000E+00  0.00000000000E+00  1.
       39    2    1    2    0    0  0.00000000000E+00  0.00000000000E+00 -2.79135862363E+01  1.28081468114E+02  1.25002776680E+02  0.00000000000E+00  1.
       22    1    3    3    0    0 -4.50815532851E+01 -3.75261920078E+01  8.15863166565E+00  5.92209828005E+01  0.00000000000E+00  0.00000000000E+00  1.
       22    1    3    3    0    0  4.50815532851E+01  3.75261920078E+01 -3.60722179019E+01  6.88604853132E+01  0.00000000000E+00  0.00000000000E+00  1.
</event>
<event>
 5   2   1.0000000E+00   6.2501902E+01   7.8125000E-03   1.3828868E-01
       -5   -1    0    0    0  502  0.00000000000E+00  0.00000000000E+00  1.46145962333E+02  1.46145962333E+02  0.00000000000E+00  0.00000000000E+00  1.
        5   -1    0    0  502    0  0.00000000000E+00  0.00000000000E+00 -2.67300418945E+01  2.67300418945E+01  0.00000000000E+00  0.00000000000E+00  1.
       39    2    1    2    0    0  0.00000000000E+00  0.00000000000E+00  1.19415920438E+02  1.72876004227E+02  1.25003803076E+02  0.00000000000E+00  1.
       22    1    3    3    0    0 -5.96118549498E+01 -7.41705129777E+00  3.58382003417E+01  6.99497141112E+01  0.00000000000E+00  0.00000000000E+00  1.
       22    1    3    3    0    0  5.96118549498E+01  7.41705129777E+00  8.35777200965E+01  1.02926290116E+02  0.00000000000E+00  0.00000000000E+00  1.
</event>
<event>
 5   2   1.0000000E+00   6.2498337E+01   7.8125000E-03   1.3829001E-01
        2   -1    0    0  501    0  0.00000000000E+00  0.00000000000E+00  2.49861624275E+02  2.49861624275E+02  0.00000000000E+00  0.00000000000E+00  1.
       -2   -1    0    0    0  501  0.00000000000E+00  0.00000000000E+00 -1.56328212436E+01  1.56328212436E+01  0.00000000000E+00  0.00000000000E+00  1.
       39    2    1    2    0    0  0.00000000000E+00  0.00000000000E+00  2.34228803032E+02  2.65494445519E+02  1.24996673682E+02  0.00000000000E+00  1.
       22    1    3    3    0    0 -4.39897707025E+01 -3.49617283228E+01  1.75229318143E+02  1.84018304282E+02  0.00000000000E+00  0.00000000000E+00  1.
       22    1    3    3    0    0  4.39897707025E+01  3.49617283228E+01  5.89994848883E+01  8.14761412370E+01  0.00000000000E+00  0.00000000000E+00  1.
</event>
<event>
 5   2   1.0000000E+00   6.2506684E+01   7.8125000E-03   1.3828689E-01
        2   -1    0    0  501    0  0.00000000000E+00  0.00000000000E+00  1.26448367299E+01  1.26448367299E+01  0.00000000000E+00  0.00000000000E+00  1.
       -2   -1    0    0    0  501  0.00000000000E+00  0.00000000000E+00 -3.08986631587E+02  3.08986631587E+02  0.00000000000E+00  0.00000000000E+00  1.
       39    2    1    2    0    0  0.00000000000E+00  0.00000000000E+00 -2.96341794858E+02  3.21631468317E+02  1.25013367415E+02  0.00000000000E+00  1.
       22    1    3    3    0    0 -4.75564707945E+01  4.05643440452E+01 -1.48068440906E+02  1.60721333726E+02  0.00000000000E+00  0.00000000000E+00  1.
       22    1    3    3    0    0  4.75564707945E+01 -4.05643440452E+01 -1.48273353951E+02  1.60910134591E+02  0.00000000000E+00  0.00000000000E+00  1.
</event>
<event>
 5   2   1.0000000E+00   6.2500854E+01   7.8125000E-03   1.3828907E-01
        2   -1    0    0  501    0  0.00000000000E+00  0.00000000000E+00  1.47236325242E+03  1.47236325242E+03  0.00000000000E+00  0.00000000000E+00  1.
       -2   -1    0    0    0  501  0.00000000000E+00  0.00000000000E+00 -2.65312026514E+00  2.65312026514E+00  0.00000000000E+00  0.00000000000E+00  1.
       39    2    1    2    0    0  0.00000000000E+00  0.00000000000E+00  1.46971013215E+03  1.47501637268E+03  1.25001708510E+02  0.00000000000E+00  1.
       22    1    3    3    0    0 -4.82541683485E+00 -5.53789434000E+01  1.07198017205E+03  1.07342051466E+03  2.15791864376E-05  0.00000000000E+00  1.
       22    1    3    3    0    0  4.82541683485E+00  5.53789434000E+01  3.97729960102E+02  4.01595858024E+02  1.07895932188E-05  0.00000000000E+00  1.
</event>
<event>
 5   2   1.0000000E+00   6.2500973E+01   7.8125000E-03   1.3828902E-01
        2   -1    0    0  501    0  0.00000000000E+00  0.00000000000E+00  4.43977414350E+02  4.43977414350E+02  0.00000000000E+00  0.00000000000E+00  1.
       -2   -1    0    0    0  501  0.00000000000E+00  0.00000000000E+00 -8.79858197939E+00  8.79858197939E+00  0.00000000000E+00  0.00000000000E+00  1.
       39    2    1    2    0    0  0.00000000000E+00  0.00000000000E+00  4.35178832371E+02  4.52775996329E+02  1.25001946819E+02  0.00000000000E+00  1.
       22    1    3    3    0    0  3.34461830688E+01 -1.83850704971E+01  3.96866295308E+02  3.98697271537E+02  0.00000000000E+00  0.00000000000E+00  1.
       22    1    3    3    0    0 -3.34461830688E+01  1.83850704971E+01  3.83125370624E+01  5.40787247928E+01  0.00000000000E+00  0.00000000000E+00  1.
</event>
<event>
 5   2   1.0000000E+00   6.2500196E+01   7.8125000E-03   1.3828931E-01
        2   -1    0    0  501    0  0.00000000000E+00  0.00000000000E+00  4.49935397048E+00  4.49935397048E+00  0.00000000000E+00  0.00000000000E+00  1.
       -2   -1    0    0    0  501  0.00000000000E+00  0.00000000000E+00 -8.68185650088E+02  8.68185650088E+02  0.00000000000E+00  0.00000000000E+00  1.
       39    2    1    2    0    0  0.00000000000E+00  0.00000000000E+00 -8.63686296117E+02  8.72685004058E+02  1.25000392829E+02  0.00000000000E+00  1.
       22    1    3    3    0    0 -7.17457742529E+00 -5.95515843222E+01 -3.09237772244E+02  3.15001373868E+02  0.00000000000E+00  0.00000000000E+00  1.
       22    1    3    3    0    0  7.17457742529E+00  5.95515843222E+01 -5.54448523873E+02  5.57683630190E+02  0.00000000000E+00  0.00000000000E+00  1.
</event>
<event>
 5   2   1.0000000E+00   6.2500381E+01   7.8125000E-03   1.3828924E-01
        2   -1    0    0  501    0  0.00000000000E+00  0.00000000000E+00  5.97048309199E+02  5.97048309199E+02  0.00000000000E+00  0.00000000000E+00  1.
       -2   -1    0    0    0  501  0.00000000000E+00  0.00000000000E+00 -6.54268261405E+00  6.54268261405E+00  0.00000000000E+00  0.00000000000E+00  1.
       39    2    1    2    0    0  0.00000000000E+00  0.00000000000E+00  5.90505626585E+02  6.03590991813E+02  1.25000761475E+02  0.00000000000E+00  1.
       22    1    3    3    0    0  2.80463442739E+01  4.16575947089E+01  1.15592457992E+02  1.26030032011E+02  0.00000000000E+00  0.00000000000E+00  1.
       22    1    3    3    0    0 -2.80463442739E+01 -4.16575947089E+01  4.74913168593E+02  4.77560959802E+02  0.00000000000E+00  0.00000000000E+00  1.
</event>
<event>
 5   2   1.0000000E+00   6.2501201E+01   7.8125000E-03   1.3828894E-01
       -5   -1    0    0    0  502  0.00000000000E+00  0.00000000000E+00  3.28797366352E+02  3.28797366352E+02  0.00000000000E+00  0.00000000000E+00  1.
        5   -1    0    0  502    0  0.00000000000E+00  0.00000000000E+00 -1.18808741652E+01  1.18808741652E+01  0.00000000000E+00  0.00000000000E+00  1.
       39    2    1    2    0    0  0.00000000000E+00  0.00000000000E+00  3.16916492187E+02  3.40678240517E+02  1.25002402144E+02  0.00000000000E+00  1.
       22    1    3    3    0    0  2.19540220434E+01 -5.53638310562E+01  1.06800570681E+02  1.22284482952E+02  0.00000000000E+00  0.00000000000E+00  1.
       22    1    3    3    0    0 -2.19540220434E+01  5.53638310562E+01  2.10115921506E+02  2.18393757565E+02  0.00000000000E+00  0.00000000000E+00  1.
</event>
</LesHouchesEvents>
