<LesHouchesEvents version="1.0">
<!--
Output from the JHUGenerator v7.5.1 described in arXiv:1001.3396 [hep-ph], arXiv:1208.4018 [hep-ph], arXiv:1309.4819 [hep-ph], arXiv:1606.03107 [hep-ph]
   
   Command line: ./JHUGen Seed=765543533 PDFSet=3 Process=2 PChannel=1 VegasNc0=100000 VegasNc2=100 DataFile=compare_to_reference/qq_spin2_WW DecayMode1=11 DecayMode2=11 a1=0.937975757145835,0.0862675302011808 a2=0.525646610895282,0.270023242162833 a3=0.828619106655766,0.907278117187348 a4=0.853796956695806,0.883046297308361 a5=0.196874483378909,0.400008066791416 graviton_qq_left=0.5049181979003,0.327360285207962 graviton_qq_right=0.474004828998714,0.337826183822731 b1=0.773894454518313,0.356509253551872 b2=0.611963485285581,0.517604060575373 b3=0.517046784436693,0.278595934220158 b4=0.498002413656408,0.719085874763941 b5=0.37181772187872,0.255137246282311 b6=0.497431828513849,0.714324156704701 b7=0.131774490564963,0.238483964950039 b8=0.312064180125662,0.479555186522064 b9=0.221471678113706,0.976703560709093 b10=0.907566021052922,0.940674709510495
   
   Input Parameter:
    Collider: P-P, sqrt(s)=13000.00
    Resonance: spin=2, mass= 125.00 width=   0.00407
    DecayMode1:11  DecayMode2:11
    W boson: mass=80.399, width=2.0850
    Random seed:   765543533
    To reproduce results using this seed, JHUGen should be compiled with the same compiler:
      GNU Fortran (GCC) 6.3.0
    
    OffXVV: TTT
    WidthScheme:   2
    PChannel: 1
    PDFSet:   3
    Unweighted: T
    Interference: F
    
    Spin-2-VV couplings: 
      generate_bis=T
      use_dynamic_MG=T
      a1 =  0.93797576E+00  0.86267530E-01i
      a2 =  0.52564661E+00  0.27002324E+00i
      a3 =  0.82861911E+00  0.90727812E+00i
      a4 =  0.85379696E+00  0.88304630E+00i
      a5 =  0.19687448E+00  0.40000807E+00i
      b1 =  0.77389445E+00  0.35650925E+00i
      b2 =  0.61196349E+00  0.51760406E+00i
      b3 =  0.51704678E+00  0.27859593E+00i
      b4 =  0.49800241E+00  0.71908587E+00i
      b5 =  0.37181772E+00  0.25513725E+00i
      b6 =  0.49743183E+00  0.71432416E+00i
      b7 =  0.13177449E+00  0.23848396E+00i
      b8 =  0.31206418E+00  0.47955519E+00i
      b9 =  0.22147168E+00  0.97670356E+00i
      b10=  0.90756602E+00  0.94067471E+00i
    
    LHE output: compare_to_reference/qq_spin2_WW.lhe
    Histogram output: compare_to_reference/qq_spin2_WW.dat
    Log file: compare_to_reference/qq_spin2_WW.log
    
-->
<init>
2212 2212   6500.0000000000000000    6500.0000000000000000 0 0  263000  263000  3  1
 9.1389006E+07  2.7498263E+05  1.0000000E+00   2
</init>
<event>
 9   2   1.0000000E+00   6.2500137E+01   7.8125000E-03   1.3828934E-01
       -2   -1    0    0    0  502  0.00000000000E+00  0.00000000000E+00  2.27335397339E+01  2.27335397339E+01  0.00000000000E+00  0.00000000000E+00  1.
        2   -1    0    0  502    0  0.00000000000E+00  0.00000000000E+00 -1.71828369918E+02  1.71828369918E+02  0.00000000000E+00  0.00000000000E+00  1.
       39    2    1    2    0    0  0.00000000000E+00  0.00000000000E+00 -1.49094830184E+02  1.94561909652E+02  1.25000273199E+02  0.00000000000E+00  1.
      -24    2    3    3    0    0 -2.39559277128E+01 -2.14476661088E+01 -1.05411905578E+02  1.37529148146E+02  8.22721574896E+01  0.00000000000E+00  1.
       24    2    3    3    0    0  2.39559277128E+01  2.14476661088E+01 -4.36829246056E+01  5.70327615058E+01  1.76252412403E+01  0.00000000000E+00  1.
        3    1    4    4  804    0  8.32347436323E-01  1.30077334316E+01  8.77203897772E+00  1.57112252580E+01  2.83607894263E-06  0.00000000000E+00  1.
       -2    1    4    4    0  804 -2.47882751492E+01 -3.44553995404E+01 -1.14183944556E+02  1.21817922888E+02  2.69739830470E-06  0.00000000000E+00  1.
        2    1    5    5  803    0  1.08341561298E+01  2.07781306878E+01 -2.59779112907E+01  3.49851616539E+01  0.00000000000E+00  0.00000000000E+00  1.
       -1    1    5    5    0  803  1.31217715831E+01  6.69535420988E-01 -1.77050133149E+01  2.20476000519E+01  0.00000000000E+00  0.00000000000E+00  1.
</event>
<event>
 9   2   1.0000000E+00   6.2499037E+01   7.8125000E-03   1.3828975E-01
       -2   -1    0    0    0  502  0.00000000000E+00  0.00000000000E+00  8.78230022067E+01  8.78230022067E+01  0.00000000000E+00  0.00000000000E+00  1.
        2   -1    0    0  502    0  0.00000000000E+00  0.00000000000E+00 -4.44772954745E+01  4.44772954745E+01  0.00000000000E+00  0.00000000000E+00  1.
       39    2    1    2    0    0  1.77635683940E-15  3.55271367880E-15  4.33457067322E+01  1.32300297681E+02  1.24998073883E+02  0.00000000000E+00  1.
       24    2    3    3    0    0 -4.54351952151E+00 -1.63672483269E+01  7.56000493521E+00  4.46438659412E+01  4.05880611033E+01  0.00000000000E+00  1.
      -24    2    3    3    0    0  4.54351952151E+00  1.63672483269E+01  3.57857017970E+01  8.76564317399E+01  7.81952887636E+01  0.00000000000E+00  1.
        4    1    4    4  804    0  1.36887587690E+01  6.00516529482E+00  4.25793757723E+00  1.55948640348E+01  1.27500000000E+00  0.00000000000E+00  1.
       -3    1    4    4    0  804 -1.82322782905E+01 -2.23724136217E+01  3.30206735797E+00  2.90490019064E+01  0.00000000000E+00  0.00000000000E+00  1.
        3    1    5    5  803    0 -1.82833902409E+01  3.22993388846E+01 -5.83243837204E+00  3.75705602295E+01  1.09257118582E-06  0.00000000000E+00  1.
       -4    1    5    5    0  803  2.28269097624E+01 -1.59320905577E+01  4.16181401690E+01  5.00858716104E+01  1.27500000000E+00  0.00000000000E+00  1.
</event>
<event>
 9   2   1.0000000E+00   6.2500839E+01   7.8125000E-03   1.3828907E-01
        1   -1    0    0  501    0  0.00000000000E+00  0.00000000000E+00  1.61824107006E+03  1.61824107006E+03  0.00000000000E+00  0.00000000000E+00  1.
       -1   -1    0    0    0  501  0.00000000000E+00  0.00000000000E+00 -2.41395112256E+00  2.41395112256E+00  0.00000000000E+00  0.00000000000E+00  1.
       39    2    1    2    0    0  1.77635683940E-15 -1.77635683940E-15  1.61582711894E+03  1.62065502118E+03  1.25001677551E+02  0.00000000000E+00  1.
      -24    2    3    3    0    0 -9.85094195988E+00  1.06758700952E+01  7.73764470001E+02  7.74613460746E+02  3.32196218176E+01  0.00000000000E+00  1.
       24    2    3    3    0    0  9.85094195988E+00 -1.06758700952E+01  8.42062648935E+02  8.46041560434E+02  8.06585518820E+01  0.00000000000E+00  1.
        1    1    4    4  804    0 -1.99685292329E+01  1.18209480066E+01  6.55781894617E+02  6.56192327302E+02  7.62939453125E-06  0.00000000000E+00  1.
       -2    1    4    4    0  804  1.01175872730E+01 -1.14507791139E+00  1.17982575383E+02  1.18421133644E+02  4.67203091199E-06  0.00000000000E+00  1.
        4    1    5    5  803    0 -3.50905352771E+01 -4.05277841472E+00  2.98937575799E+02  3.01020050044E+02  1.27499999999E+00  0.00000000000E+00  1.
       -3    1    5    5    0  803  4.49414772370E+01 -6.62309168045E+00  5.43125073135E+02  5.45021510490E+02  7.62939453125E-06  0.00000000000E+00  1.
</event>
<event>
 9   2   1.0000000E+00   6.2497747E+01   7.8125000E-03   1.3829023E-01
        3   -1    0    0  501    0  0.00000000000E+00  0.00000000000E+00  1.40230151666E+02  1.40230151666E+02  0.00000000000E+00  0.00000000000E+00  1.
       -3   -1    0    0    0  501  0.00000000000E+00  0.00000000000E+00 -2.78539842827E+01  2.78539842827E+01  0.00000000000E+00  0.00000000000E+00  1.
       39    2    1    2    0    0  0.00000000000E+00  3.55271367880E-15  1.12376167383E+02  1.68084135949E+02  1.24995494966E+02  0.00000000000E+00  1.
      -24    2    3    3    0    0  5.40377406088E+00  1.12209181333E+01  7.14311983315E+01  7.65889911097E+01  2.46647052745E+01  0.00000000000E+00  1.
       24    2    3    3    0    0 -5.40377406088E+00 -1.12209181333E+01  4.09449690517E+01  9.14951448389E+01  8.08687903990E+01  0.00000000000E+00  1.
        3    1    4    4  803    0 -7.75147528804E-01 -4.29106061255E+00  1.39441590502E+00  4.57804003785E+00  0.00000000000E+00  0.00000000000E+00  1.
       -4    1    4    4    0  803  6.17892158969E+00  1.55119787459E+01  7.00367824265E+01  7.20109510719E+01  1.27500000000E+00  0.00000000000E+00  1.
       14    1    5    5    0    0  1.67527450288E+01  6.37797091954E-01  5.84904028355E+01  6.08456118974E+01  0.00000000000E+00  0.00000000000E+00  1.
      -13    1    5    5    0    0 -2.21565190897E+01 -1.18587152253E+01 -1.75454337838E+01  3.06495330416E+01  1.05659999994E-01  0.00000000000E+00  1.
</event>
<event>
 9   2   1.0000000E+00   6.2497983E+01   7.8125000E-03   1.3829014E-01
        1   -1    0    0  501    0  0.00000000000E+00  0.00000000000E+00  6.93397281489E+01  6.93397281489E+01  0.00000000000E+00  0.00000000000E+00  1.
       -1   -1    0    0    0  501  0.00000000000E+00  0.00000000000E+00 -5.63313117537E+01  5.63313117537E+01  0.00000000000E+00  0.00000000000E+00  1.
       39    2    1    2    0    0  1.77635683940E-15  0.00000000000E+00  1.30084163952E+01  1.25671039903E+02  1.24995965427E+02  0.00000000000E+00  1.
      -24    2    3    3    0    0  4.42934532471E+00 -9.68999978821E-01  2.90182371289E+01  8.62041269695E+01  8.10465012171E+01  0.00000000000E+00  1.
       24    2    3    3    0    0 -4.42934532471E+00  9.68999978821E-01 -1.60098207337E+01  3.94669129331E+01  3.57877743870E+01  0.00000000000E+00  1.
        3    1    4    4  804    0 -1.23211062118E+01  3.58896128910E+01  2.51280259008E+01  4.55114453454E+01  1.01152436426E-06  0.00000000000E+00  1.
       -4    1    4    4    0  804  1.67504515365E+01 -3.68586128698E+01  3.89021122809E+00  4.06926816242E+01  1.27500000000E+00  0.00000000000E+00  1.
        2    1    5    5  803    0  5.02517251062E+00  1.55984449900E+01 -9.07750505641E-01  1.64130392020E+01  0.00000000000E+00  0.00000000000E+00  1.
       -1    1    5    5    0  803 -9.45451783533E+00 -1.46294450112E+01 -1.51020702281E+01  2.30538737310E+01  0.00000000000E+00  0.00000000000E+00  1.
</event>
<event>
 9   2   1.0000000E+00   6.2505614E+01   7.8125000E-03   1.3828729E-01
        3   -1    0    0  501    0  0.00000000000E+00  0.00000000000E+00  8.70435350913E+01  8.70435350913E+01  0.00000000000E+00  0.00000000000E+00  1.
       -3   -1    0    0    0  501  0.00000000000E+00  0.00000000000E+00 -4.48850315266E+01  4.48850315266E+01  0.00000000000E+00  0.00000000000E+00  1.
       39    2    1    2    0    0 -5.32907051820E-15  1.06581410364E-14  4.21585035647E+01  1.31928566618E+02  1.25011228564E+02  0.00000000000E+00  1.
      -24    2    3    3    0    0 -1.14116105281E+01 -2.89786433461E+01 -8.78714445027E+00  3.38571134157E+01  9.95507891635E+00  0.00000000000E+00  1.
       24    2    3    3    0    0  1.14116105281E+01  2.89786433461E+01  5.09456480150E+01  9.80714532022E+01  7.77982278493E+01  0.00000000000E+00  1.
       15    1    4    4    0    0  6.32291183522E-01 -5.37047983459E+00 -3.91951735657E+00  6.91096811908E+00  1.77680000000E+00  0.00000000000E+00  1.
      -16    1    4    4    0    0 -1.20439017116E+01 -2.36081635115E+01 -4.86762709370E+00  2.69461452966E+01  0.00000000000E+00  0.00000000000E+00  1.
       14    1    5    5    0    0  2.83154090699E+01  4.95805159690E+01  3.63767666814E+01  6.76997718515E+01  0.00000000000E+00  0.00000000000E+00  1.
      -13    1    5    5    0    0 -1.69037985418E+01 -2.06018726230E+01  1.45688813337E+01  3.03716813507E+01  1.05660000002E-01  0.00000000000E+00  1.
</event>
<event>
 9   2   1.0000000E+00   6.2501585E+01   7.8125000E-03   1.3828879E-01
        1   -1    0    0  501    0  0.00000000000E+00  0.00000000000E+00  4.62270073037E+01  4.62270073037E+01  0.00000000000E+00  0.00000000000E+00  1.
       -1   -1    0    0    0  501  0.00000000000E+00  0.00000000000E+00 -8.45057536398E+01  8.45057536398E+01  0.00000000000E+00  0.00000000000E+00  1.
       39    2    1    2    0    0  0.00000000000E+00  3.55271367880E-15 -3.82787463361E+01  1.30732760943E+02  1.25003169411E+02  0.00000000000E+00  1.
       24    2    3    3    0    0 -6.42038228173E+00 -2.20094051144E+01 -4.22584189375E+01  9.39053397600E+01  8.06647608452E+01  0.00000000000E+00  1.
      -24    2    3    3    0    0  6.42038228173E+00  2.20094051144E+01  3.97967260147E+00  3.68274211835E+01  2.85444554139E+01  0.00000000000E+00  1.
        4    1    4    4  803    0  8.84948873526E+00 -4.36040776717E+01 -5.45794178807E-01  4.45146330633E+01  1.27500000000E+00  0.00000000000E+00  1.
       -3    1    4    4    0  803 -1.52698710170E+01  2.15946725573E+01 -4.17126247587E+01  4.93907066967E+01  1.06624029994E-06  0.00000000000E+00  1.
        3    1    5    5  804    0  1.65899809897E+01  1.65636388482E+01 -2.43034914036E+00  2.35687972283E+01  0.00000000000E+00  0.00000000000E+00  1.
       -4    1    5    5    0  804 -1.01695987079E+01  5.44576626620E+00  6.41002174183E+00  1.32586240552E+01  1.27500000000E+00  0.00000000000E+00  1.
</event>
<event>
 9   2   1.0000000E+00   6.2498750E+01   7.8125000E-03   1.3828985E-01
        2   -1    0    0  501    0  0.00000000000E+00  0.00000000000E+00  2.17086727273E+02  2.17086727273E+02  0.00000000000E+00  0.00000000000E+00  1.
       -2   -1    0    0    0  501  0.00000000000E+00  0.00000000000E+00 -1.79932406860E+01  1.79932406860E+01  0.00000000000E+00  0.00000000000E+00  1.
       39    2    1    2    0    0  0.00000000000E+00  0.00000000000E+00  1.99093486588E+02  2.35079967959E+02  1.24997499712E+02  0.00000000000E+00  1.
       24    2    3    3    0    0  1.83623609752E+01 -2.72749386860E+00  1.40865991079E+02  1.63635119166E+02  8.11702486042E+01  0.00000000000E+00  1.
      -24    2    3    3    0    0 -1.83623609752E+01  2.72749386860E+00  5.82274955089E+01  7.14448487936E+01  3.70041843920E+01  0.00000000000E+00  1.
        2    1    4    4  803    0 -2.25345695836E+01  9.01339134520E+00  1.05653649084E+02  1.08405450115E+02  0.00000000000E+00  0.00000000000E+00  1.
       -1    1    4    4    0  803  4.08969305587E+01 -1.17408852138E+01  3.52123419948E+01  5.52296690511E+01  0.00000000000E+00  0.00000000000E+00  1.
        3    1    5    5  804    0 -2.58714270568E+01 -1.04706218877E+00  2.12301627153E+01  3.34835316656E+01  0.00000000000E+00  0.00000000000E+00  1.
       -4    1    5    5    0  804  7.50906608168E+00  3.77455605737E+00  3.69973327935E+01  3.79613172280E+01  1.27500000000E+00  0.00000000000E+00  1.
</event>
<event>
 9   2   1.0000000E+00   6.2503278E+01   7.8125000E-03   1.3828816E-01
        1   -1    0    0  501    0  0.00000000000E+00  0.00000000000E+00  1.10244755453E+01  1.10244755453E+01  0.00000000000E+00  0.00000000000E+00  1.
       -1   -1    0    0    0  501  0.00000000000E+00  0.00000000000E+00 -3.54362410160E+02  3.54362410160E+02  0.00000000000E+00  0.00000000000E+00  1.
       39    2    1    2    0    0  0.00000000000E+00  2.66453525910E-15 -3.43337934615E+02  3.65386885705E+02  1.25006555428E+02  0.00000000000E+00  1.
      -24    2    3    3    0    0 -1.88047907355E+01  2.66237461808E+00 -2.26357940246E+02  2.43196497053E+02  8.68672013687E+01  0.00000000000E+00  1.
       24    2    3    3    0    0  1.88047907355E+01 -2.66237461808E+00 -1.16979994369E+02  1.22190388652E+02  2.97567404646E+01  0.00000000000E+00  1.
        1    1    4    4  804    0  2.04876021048E+01 -1.00212969164E+01 -1.37820633591E+01  2.66479549370E+01  1.39020726558E-06  0.00000000000E+00  1.
       -2    1    4    4    0  804 -3.92923928403E+01  1.26836715345E+01 -2.12575876886E+02  2.16548542116E+02  0.00000000000E+00  0.00000000000E+00  1.
        4    1    5    5  803    0  2.46496777778E+01 -8.49286746666E+00 -7.51719187548E+01  7.95749860612E+01  1.27500000000E+00  0.00000000000E+00  1.
       -3    1    5    5    0  803 -5.84488704228E+00  5.83049284858E+00 -4.18080756142E+01  4.26154025906E+01  1.34869915235E-06  0.00000000000E+00  1.
</event>
<event>
 9   2   1.0000000E+00   6.2499466E+01   7.8125000E-03   1.3828959E-01
        1   -1    0    0  501    0  0.00000000000E+00  0.00000000000E+00  7.02725954067E+00  7.02725954067E+00  0.00000000000E+00  0.00000000000E+00  1.
       -1   -1    0    0    0  501  0.00000000000E+00  0.00000000000E+00 -5.55861536803E+02  5.55861536803E+02  0.00000000000E+00  0.00000000000E+00  1.
       39    2    1    2    0    0 -5.32907051820E-15  5.32907051820E-15 -5.48834277262E+02  5.62888796344E+02  1.24998932600E+02  0.00000000000E+00  1.
      -24    2    3    3    0    0 -1.39313548877E+01 -1.35242622253E+01 -3.80389610748E+02  3.89378190358E+02  8.08834398606E+01  0.00000000000E+00  1.
       24    2    3    3    0    0  1.39313548877E+01  1.35242622253E+01 -1.68444666514E+02  1.73510605986E+02  3.68148936527E+01  0.00000000000E+00  1.
        1    1    4    4  803    0  2.64217978669E+01 -2.81470058690E+01 -2.19115826472E+02  2.22490698125E+02  0.00000000000E+00  0.00000000000E+00  1.
       -2    1    4    4    0  803 -4.03531527546E+01  1.46227436437E+01 -1.61273784276E+02  1.66887492233E+02  3.30362473978E-06  0.00000000000E+00  1.
       12    1    5    5    0    0  5.84272929059E+00 -7.46767592563E+00 -1.16733480641E+02  1.17117928481E+02  2.33601545599E-06  0.00000000000E+00  1.
      -11    1    5    5    0    0  8.08862559711E+00  2.09919381509E+01 -5.17111858737E+01  5.63926775044E+01  5.11004382147E-04  0.00000000000E+00  1.
</event>
<event>
 9   2   1.0000000E+00   6.2499711E+01   7.8125000E-03   1.3828949E-01
        1   -1    0    0  501    0  0.00000000000E+00  0.00000000000E+00  4.71824558763E+01  4.71824558763E+01  0.00000000000E+00  0.00000000000E+00  1.
       -1   -1    0    0    0  501  0.00000000000E+00  0.00000000000E+00 -8.27895410480E+01  8.27895410480E+01  0.00000000000E+00  0.00000000000E+00  1.
       39    2    1    2    0    0  8.88178419700E-16  0.00000000000E+00 -3.56070851717E+01  1.29971996924E+02  1.24999421879E+02  0.00000000000E+00  1.
      -24    2    3    3    0    0 -1.15262438310E+00 -7.88356625536E+00 -9.38494912147E-01  4.18904185912E+01  4.11150487921E+01  0.00000000000E+00  1.
       24    2    3    3    0    0  1.15262438310E+00  7.88356625536E+00 -3.46685902595E+01  8.80815783330E+01  8.05789931135E+01  0.00000000000E+00  1.
       11    1    4    4    0    0 -5.45420982606E+00  1.24177161019E+01  1.14259438174E+01  1.77341554745E+01  5.11000071632E-04  0.00000000000E+00  1.
      -12    1    4    4    0    0  4.30158544296E+00 -2.03012823572E+01 -1.23644387295E+01  2.41562631168E+01  0.00000000000E+00  0.00000000000E+00  1.
       14    1    5    5    0    0 -6.57871281267E+00  3.76371461083E+01 -4.16881294731E+01  5.65485135058E+01  0.00000000000E+00  0.00000000000E+00  1.
      -13    1    5    5    0    0  7.73133719577E+00 -2.97535798529E+01  7.01953921354E+00  3.15330649272E+01  1.05660000000E-01  0.00000000000E+00  1.
</event>
<event>
 9   2   1.0000000E+00   6.2495828E+01   7.8125000E-03   1.3829094E-01
        2   -1    0    0  501    0  0.00000000000E+00  0.00000000000E+00  9.24817912398E+02  9.24817912398E+02  0.00000000000E+00  0.00000000000E+00  1.
       -2   -1    0    0    0  501  0.00000000000E+00  0.00000000000E+00 -4.22324061669E+00  4.22324061669E+00  0.00000000000E+00  0.00000000000E+00  1.
       39    2    1    2    0    0 -1.42108547152E-14  0.00000000000E+00  9.20594671782E+02  9.29041153015E+02  1.24991656853E+02  0.00000000000E+00  1.
      -24    2    3    3    0    0 -2.34662283963E+01 -1.26958796810E+01  2.62182661345E+02  2.65276165716E+02  3.03289787349E+01  0.00000000000E+00  1.
       24    2    3    3    0    0  2.34662283963E+01  1.26958796810E+01  6.58412010437E+02  6.63764987299E+02  7.97855478181E+01  0.00000000000E+00  1.
        3    1    4    4  804    0 -1.84176777120E+01  7.23962615089E+00  1.27804249223E+02  1.29327294816E+02  1.90734863281E-06  0.00000000000E+00  1.
       -4    1    4    4    0  804 -5.04855068428E+00 -1.99355058319E+01  1.34378412122E+02  1.35948871000E+02  1.27500000000E+00  0.00000000000E+00  1.
        4    1    5    5  803    0 -1.63161327093E+01  1.28137395379E+01  5.12995297346E+01  5.53504786206E+01  1.27500000006E+00  0.00000000000E+00  1.
       -3    1    5    5    0  803  3.97823611056E+01 -1.17859856877E-01  6.07112480702E+02  6.08414508679E+02  7.62939453125E-06  0.00000000000E+00  1.
</event>
<event>
 9   2   1.0000000E+00   6.2499982E+01   7.8125000E-03   1.3828939E-01
        2   -1    0    0  501    0  0.00000000000E+00  0.00000000000E+00  8.29128734966E+02  8.29128734966E+02  0.00000000000E+00  0.00000000000E+00  1.
       -2   -1    0    0    0  501  0.00000000000E+00  0.00000000000E+00 -4.71126815956E+00  4.71126815956E+00  0.00000000000E+00  0.00000000000E+00  1.
       39    2    1    2    0    0 -1.77635683940E-15  0.00000000000E+00  8.24417466806E+02  8.33840003126E+02  1.24999964948E+02  0.00000000000E+00  1.
      -24    2    3    3    0    0  1.86990020894E+00  1.03345917768E+01  4.15142806053E+02  4.17019399087E+02  3.80963185003E+01  0.00000000000E+00  1.
       24    2    3    3    0    0 -1.86990020894E+00 -1.03345917768E+01  4.09274660754E+02  4.16820604039E+02  7.82519501502E+01  0.00000000000E+00  1.
       15    1    4    4    0    0 -1.06391937356E+01  1.87096023515E+01  1.62542691702E+02  1.63971111198E+02  1.77679999999E+00  0.00000000000E+00  1.
      -16    1    4    4    0    0  1.25090939446E+01 -8.37501057466E+00  2.52600114351E+02  2.53048287989E+02  4.67203091199E-06  0.00000000000E+00  1.
       14    1    5    5    0    0  3.14651054803E+01 -6.11552285654E+00  3.17037317188E+02  3.18653594105E+02  3.81469726562E-06  0.00000000000E+00  1.
      -13    1    5    5    0    0 -3.33350056892E+01 -4.21906892027E+00  9.22373435656E+01  9.81670100335E+01  1.05659999901E-01  0.00000000000E+00  1.
</event>
<event>
 9   2   1.0000000E+00   6.2501364E+01   7.8125000E-03   1.3828888E-01
       -1   -1    0    0    0  502  0.00000000000E+00  0.00000000000E+00  4.22848582032E+00  4.22848582032E+00  0.00000000000E+00  0.00000000000E+00  1.
        1   -1    0    0  502    0  0.00000000000E+00  0.00000000000E+00 -9.23834376223E+02  9.23834376223E+02  0.00000000000E+00  0.00000000000E+00  1.
       39    2    1    2    0    0 -1.77635683940E-15  5.32907051820E-15 -9.19605890403E+02  9.28062862043E+02  1.25002728933E+02  0.00000000000E+00  1.
      -24    2    3    3    0    0  1.04095513392E+01  8.39944565473E+00 -5.18543450636E+02  5.18955407000E+02  1.57637181826E+01  0.00000000000E+00  1.
       24    2    3    3    0    0 -1.04095513392E+01 -8.39944565473E+00 -4.01062439767E+02  4.09107455043E+02  7.96173331242E+01  0.00000000000E+00  1.
        3    1    4    4  804    0  2.14365686367E+00  7.79576469569E+00 -4.13080927395E+02  4.13160043796E+02  5.39479660939E-06  0.00000000000E+00  1.
       -4    1    4    4    0  804  8.26589447550E+00  6.03680959039E-01 -1.05462523240E+02  1.05795363204E+02  1.27500000002E+00  0.00000000000E+00  1.
        2    1    5    5  803    0 -1.26590037972E+01  3.35971586422E+01 -1.32771308609E+02  1.37539957233E+02  3.30362473978E-06  0.00000000000E+00  1.
       -1    1    5    5    0  803  2.24945245799E+00 -4.19966042969E+01 -2.68291131158E+02  2.71567497810E+02  3.81469726562E-06  0.00000000000E+00  1.
</event>
<event>
 9   2   1.0000000E+00   6.2497587E+01   7.8125000E-03   1.3829029E-01
       -1   -1    0    0    0  502  0.00000000000E+00  0.00000000000E+00  2.78007175888E+00  2.78007175888E+00  0.00000000000E+00  0.00000000000E+00  1.
        1   -1    0    0  502    0  0.00000000000E+00  0.00000000000E+00 -1.40498115944E+03  1.40498115944E+03  0.00000000000E+00  0.00000000000E+00  1.
       39    2    1    2    0    0  1.77635683940E-15  0.00000000000E+00 -1.40220108768E+03  1.40776123119E+03  1.24995174996E+02  0.00000000000E+00  1.
       24    2    3    3    0    0 -1.30407795805E+01  9.04577657695E-03 -1.01096810031E+03  1.01419835003E+03  7.98231253259E+01  0.00000000000E+00  1.
      -24    2    3    3    0    0  1.30407795805E+01 -9.04577657695E-03 -3.91232987364E+02  3.93562881165E+02  4.07238138683E+01  0.00000000000E+00  1.
        4    1    4    4  803    0 -9.86248450623E+00  2.86045605252E+01 -8.58818754364E+02  8.59352528335E+02  1.27500000004E+00  0.00000000000E+00  1.
       -3    1    4    4    0  803 -3.17829507423E+00 -2.85955147486E+01 -1.52149345949E+02  1.54845821694E+02  4.67203091199E-06  0.00000000000E+00  1.
        3    1    5    5  804    0  6.82729194400E+00 -1.73996381832E+01 -9.93136128491E+01  1.01057177091E+02  2.33601545599E-06  0.00000000000E+00  1.
       -4    1    5    5    0  804  6.21348763646E+00  1.73905924067E+01 -2.91919374514E+02  2.92505704175E+02  1.27500000001E+00  0.00000000000E+00  1.
</event>
<event>
 9   2   1.0000000E+00   6.2500818E+01   7.8125000E-03   1.3828908E-01
       -4   -1    0    0    0  502  0.00000000000E+00  0.00000000000E+00  5.13568352515E+01  5.13568352515E+01  0.00000000000E+00  0.00000000000E+00  1.
        4   -1    0    0  502    0  0.00000000000E+00  0.00000000000E+00 -7.60629478062E+01  7.60629478062E+01  0.00000000000E+00  0.00000000000E+00  1.
       39    2    1    2    0    0  8.88178419700E-16 -3.55271367880E-15 -2.47061125548E+01  1.27419783058E+02  1.25001636457E+02  0.00000000000E+00  1.
      -24    2    3    3    0    0  7.04386295894E+00  1.17963897186E+01 -1.48903521600E+01  8.29224722658E+01  8.04092221293E+01  0.00000000000E+00  1.
       24    2    3    3    0    0 -7.04386295894E+00 -1.17963897186E+01 -9.81576039475E+00  4.44973107919E+01  4.11690502660E+01  0.00000000000E+00  1.
       15    1    4    4    0    0 -7.07918421477E-01  4.54296322652E+01 -1.64971573890E+01  4.83700925821E+01  1.77680000000E+00  0.00000000000E+00  1.
      -16    1    4    4    0    0  7.75178138042E+00 -3.36332425465E+01  1.60680522899E+00  3.45523796837E+01  1.04308128357E-06  0.00000000000E+00  1.
        2    1    5    5  803    0 -2.60305514270E+00  1.55080552557E+01 -4.08083920738E+00  1.62458895039E+01  0.00000000000E+00  0.00000000000E+00  1.
       -1    1    5    5    0  803 -4.44080781624E+00 -2.73044449743E+01 -5.73492118737E+00  2.82514214880E+01  0.00000000000E+00  0.00000000000E+00  1.
</event>
<event>
 9   2   1.0000000E+00   6.2499577E+01   7.8125000E-03   1.3828954E-01
        5   -1    0    0  501    0  0.00000000000E+00  0.00000000000E+00  6.59570081862E+02  6.59570081862E+02  0.00000000000E+00  0.00000000000E+00  1.
       -5   -1    0    0    0  501  0.00000000000E+00  0.00000000000E+00 -5.92233821253E+00  5.92233821253E+00  0.00000000000E+00  0.00000000000E+00  1.
       39    2    1    2    0    0 -7.10542735760E-15 -5.32907051820E-15  6.53647743650E+02  6.65492420075E+02  1.24999153592E+02  0.00000000000E+00  1.
       24    2    3    3    0    0 -1.56111858289E+01  9.33558711111E+00  1.39161075406E+02  1.44727641256E+02  3.53471770559E+01  0.00000000000E+00  1.
      -24    2    3    3    0    0  1.56111858289E+01 -9.33558711111E+00  5.14486668244E+02  5.20764778818E+02  7.85401855576E+01  0.00000000000E+00  1.
        4    1    4    4  803    0 -2.57440892790E+01  1.31305408077E+01  1.02308252975E+02  1.06319205633E+02  1.27500000000E+00  0.00000000000E+00  1.
       -3    1    4    4    0  803  1.01329034501E+01 -3.79495369662E+00  3.68528224308E+01  3.84084357230E+01  1.26159253648E-06  0.00000000000E+00  1.
        3    1    5    5  804    0 -3.15212104423E+01 -2.75289940820E-01  2.46996520552E+02  2.48999886961E+02  2.69739830470E-06  0.00000000000E+00  1.
       -4    1    5    5    0  804  4.71323962711E+01 -9.06029717029E+00  2.67490147692E+02  2.71764891957E+02  1.27500000001E+00  0.00000000000E+00  1.
</event>
<event>
 9   2   1.0000000E+00   6.2499731E+01   7.8125000E-03   1.3828949E-01
       -4   -1    0    0    0  502  0.00000000000E+00  0.00000000000E+00  7.52787424547E+00  7.52787424547E+00  0.00000000000E+00  0.00000000000E+00  1.
        4   -1    0    0  502    0  0.00000000000E+00  0.00000000000E+00 -5.18900327238E+02  5.18900327238E+02  0.00000000000E+00  0.00000000000E+00  1.
       39    2    1    2    0    0 -2.66453525910E-15  3.55271367880E-15 -5.11372452992E+02  5.26428201483E+02  1.24999462549E+02  0.00000000000E+00  1.
      -24    2    3    3    0    0  1.67579997212E+00  2.37717955607E+01 -3.04366507726E+02  3.15096590288E+02  7.79678370598E+01  0.00000000000E+00  1.
       24    2    3    3    0    0 -1.67579997212E+00 -2.37717955607E+01 -2.07005945266E+02  2.11331611196E+02  3.52375076482E+01  0.00000000000E+00  1.
       11    1    4    4    0    0  1.64549060099E+01  4.25045905602E+01 -2.66283063544E+02  2.70155647879E+02  5.10984358804E-04  0.00000000000E+00  1.
      -12    1    4    4    0    0 -1.47791060378E+01 -1.87327949995E+01 -3.80834441821E+01  4.49409425082E+01  3.93209993898E-06  0.00000000000E+00  1.
        2    1    5    5  803    0 -6.47676130869E+00 -1.34913973513E+00 -5.72581261106E+00  8.74948827827E+00  2.21902256834E-06  0.00000000000E+00  1.
       -1    1    5    5    0  803  4.80096133657E+00 -2.24226558255E+01 -2.01280132655E+02  2.02582122917E+02  2.69739830470E-06  0.00000000000E+00  1.
</event>
<event>
 9   2   1.0000000E+00   6.2502352E+01   7.8125000E-03   1.3828851E-01
       -1   -1    0    0    0  502  0.00000000000E+00  0.00000000000E+00  5.91989527876E+00  5.91989527876E+00  0.00000000000E+00  0.00000000000E+00  1.
        1   -1    0    0  502    0  0.00000000000E+00  0.00000000000E+00 -6.59900871141E+02  6.59900871141E+02  0.00000000000E+00  0.00000000000E+00  1.
       39    2    1    2    0    0  2.66453525910E-15  0.00000000000E+00 -6.53980975863E+02  6.65820766420E+02  1.25004704736E+02  0.00000000000E+00  1.
       24    2    3    3    0    0  5.57780008151E+00  2.41223034379E+01 -2.93493830294E+02  2.95616433373E+02  2.52477698505E+01  0.00000000000E+00  1.
      -24    2    3    3    0    0 -5.57780008151E+00 -2.41223034379E+01 -3.60487145569E+02  3.70204333048E+02  8.05435826744E+01  0.00000000000E+00  1.
        2    1    4    4  803    0 -5.89111897880E+00  2.24838862391E+01 -2.18541608629E+02  2.19774123066E+02  2.69739830470E-06  0.00000000000E+00  1.
       -1    1    4    4    0  803  1.14689190603E+01  1.63841719880E+00 -7.49522216649E+01  7.58423105067E+01  3.30362473978E-06  0.00000000000E+00  1.
       11    1    5    5    0    0 -3.24690252979E+01  6.04467101965E+00 -2.56881464389E+02  2.58995873324E+02  5.10998597706E-04  0.00000000000E+00  1.
      -12    1    5    5    0    0  2.68912252164E+01 -3.01669744575E+01 -1.03605681179E+02  1.11208459724E+02  3.30362473978E-06  0.00000000000E+00  1.
</event>
<event>
 9   2   1.0000000E+00   6.2501636E+01   7.8125000E-03   1.3828878E-01
        2   -1    0    0  501    0  0.00000000000E+00  0.00000000000E+00  1.32431700866E+02  1.32431700866E+02  0.00000000000E+00  0.00000000000E+00  1.
       -2   -1    0    0    0  501  0.00000000000E+00  0.00000000000E+00 -2.94978803584E+01  2.94978803584E+01  0.00000000000E+00  0.00000000000E+00  1.
       39    2    1    2    0    0  7.10542735760E-15 -1.77635683940E-15  1.02933820508E+02  1.61929581225E+02  1.25003271442E+02  0.00000000000E+00  1.
      -24    2    3    3    0    0  2.04602646988E+01 -2.37387514834E+00  6.47728932149E+01  1.06112317963E+02  8.14864320809E+01  0.00000000000E+00  1.
       24    2    3    3    0    0 -2.04602646988E+01  2.37387514834E+00  3.81609272929E+01  5.58172632617E+01  3.51433178770E+01  0.00000000000E+00  1.
       11    1    4    4    0    0  4.69553464117E+01 -1.83704124495E+01  2.67235736632E+01  5.70651031700E+01  5.11001044978E-04  0.00000000000E+00  1.
      -12    1    4    4    0    0 -2.64950817129E+01  1.59965373012E+01  3.80493195517E+01  4.90472147930E+01  0.00000000000E+00  0.00000000000E+00  1.
        2    1    5    5  803    0  1.66147667913E+00 -1.10199462297E+01  1.94018856821E+00  1.13121197661E+01  0.00000000000E+00  0.00000000000E+00  1.
       -1    1    5    5    0  803 -2.21217413780E+01  1.33938213780E+01  3.62207387247E+01  4.45051436956E+01  0.00000000000E+00  0.00000000000E+00  1.
</event>
<event>
 9   2   1.0000000E+00   6.2499451E+01   7.8125000E-03   1.3828959E-01
        5   -1    0    0  501    0  0.00000000000E+00  0.00000000000E+00  1.22024065565E+02  1.22024065565E+02  0.00000000000E+00  0.00000000000E+00  1.
       -5   -1    0    0    0  501  0.00000000000E+00  0.00000000000E+00 -3.20115652498E+01  3.20115652498E+01  0.00000000000E+00  0.00000000000E+00  1.
       39    2    1    2    0    0  0.00000000000E+00  0.00000000000E+00  9.00125003152E+01  1.54035630815E+02  1.24998901385E+02  0.00000000000E+00  1.
       24    2    3    3    0    0  2.90481800815E+01  8.03414892320E+00  3.21756203655E+01  5.06164753685E+01  2.48679053774E+01  0.00000000000E+00  1.
      -24    2    3    3    0    0 -2.90481800815E+01 -8.03414892320E+00  5.78368799497E+01  1.03419155446E+02  8.02625237328E+01  0.00000000000E+00  1.
        2    1    4    4  804    0  7.71690759393E+00 -8.83240220980E+00  7.70210149016E+00  1.40315487019E+01  0.00000000000E+00  0.00000000000E+00  1.
       -1    1    4    4    0  804  2.13312724875E+01  1.68665511330E+01  2.44735188753E+01  3.65849266666E+01  0.00000000000E+00  0.00000000000E+00  1.
        1    1    5    5  803    0 -1.53543403717E+01 -4.05999174225E+01  1.10464904970E+01  4.47898875219E+01  0.00000000000E+00  0.00000000000E+00  1.
       -2    1    5    5    0  803 -1.36938397098E+01  3.25657684993E+01  4.67903894527E+01  5.86292680245E+01  0.00000000000E+00  0.00000000000E+00  1.
</event>
<event>
 9   2   1.0000000E+00   6.2499842E+01   7.8125000E-03   1.3828944E-01
       -2   -1    0    0    0  502  0.00000000000E+00  0.00000000000E+00  4.28945333184E+00  4.28945333184E+00  0.00000000000E+00  0.00000000000E+00  1.
        2   -1    0    0  502    0  0.00000000000E+00  0.00000000000E+00 -9.10659238504E+02  9.10659238504E+02  0.00000000000E+00  0.00000000000E+00  1.
       39    2    1    2    0    0  3.55271367880E-15 -3.55271367880E-15 -9.06369785172E+02  9.14948691836E+02  1.24999684876E+02  0.00000000000E+00  1.
       24    2    3    3    0    0 -1.97629963471E+01 -1.29593493537E+00 -6.22673230655E+02  6.27629402047E+02  7.61869980173E+01  0.00000000000E+00  1.
      -24    2    3    3    0    0  1.97629963471E+01  1.29593493537E+00 -2.83696554517E+02  2.87319289789E+02  4.09436657885E+01  0.00000000000E+00  1.
       14    1    4    4    0    0 -1.42464501819E-01  1.47143103035E+01 -2.22703091258E+01  2.66926561511E+01  1.34869915235E-06  0.00000000000E+00  1.
      -13    1    4    4    0    0 -1.96205318452E+01 -1.60102452388E+01 -6.00402921530E+02  6.00936745896E+02  1.05659999677E-01  0.00000000000E+00  1.
        1    1    5    5  803    0  2.44596735226E+01  1.59357082380E+01 -1.56765048262E+02  1.59460035063E+02  0.00000000000E+00  0.00000000000E+00  1.
       -2    1    5    5    0  803 -4.69667717558E+00 -1.46397733026E+01 -1.26931506255E+02  1.27859254826E+02  3.01578298585E-06  0.00000000000E+00  1.
</event>
<event>
 9   2   1.0000000E+00   6.2499515E+01   7.8125000E-03   1.3828957E-01
       -1   -1    0    0    0  502  0.00000000000E+00  0.00000000000E+00  2.03912685419E+02  2.03912685419E+02  0.00000000000E+00  0.00000000000E+00  1.
        1   -1    0    0  502    0  0.00000000000E+00  0.00000000000E+00 -1.91561859412E+01  1.91561859412E+01  0.00000000000E+00  0.00000000000E+00  1.
       39    2    1    2    0    0  0.00000000000E+00  1.77635683940E-15  1.84756499478E+02  2.23068871360E+02  1.24999029079E+02  0.00000000000E+00  1.
      -24    2    3    3    0    0  1.66691478322E+01  1.31146513949E+01  5.68700607575E+01  7.03660222178E+01  3.55994199605E+01  0.00000000000E+00  1.
       24    2    3    3    0    0 -1.66691478322E+01 -1.31146513949E+01  1.27886438720E+02  1.52702849142E+02  8.07054171478E+01  0.00000000000E+00  1.
       15    1    4    4    0    0  2.01808765066E+01  1.22097845412E+01  1.42971973917E+01  2.76389849057E+01  1.77680000000E+00  0.00000000000E+00  1.
      -16    1    4    4    0    0 -3.51172867440E+00  9.04866853663E-01  4.25728633658E+01  4.27270374121E+01  1.06624029994E-06  0.00000000000E+00  1.
        2    1    5    5  804    0  1.93984046405E+00 -4.31518392220E+01  9.53163974032E+01  1.04647311591E+02  1.34869915235E-06  0.00000000000E+00  1.
       -1    1    5    5    0  804 -1.86089882963E+01  3.00371878271E+01  3.25700413170E+01  4.80555375515E+01  1.06624029994E-06  0.00000000000E+00  1.
</event>
<event>
 9   2   1.0000000E+00   6.2499965E+01   7.8125000E-03   1.3828940E-01
        4   -1    0    0  501    0  0.00000000000E+00  0.00000000000E+00  7.61135857278E+01  7.61135857278E+01  0.00000000000E+00  0.00000000000E+00  1.
       -4   -1    0    0    0  501  0.00000000000E+00  0.00000000000E+00 -5.13212668741E+01  5.13212668741E+01  0.00000000000E+00  0.00000000000E+00  1.
       39    2    1    2    0    0  3.55271367880E-15 -8.88178419700E-16  2.47923188538E+01  1.27434852602E+02  1.24999930334E+02  0.00000000000E+00  1.
      -24    2    3    3    0    0  7.11425547017E+00 -5.02834084840E+00  4.40118716529E+00  8.14119574648E+01  8.08247457602E+01  0.00000000000E+00  1.
       24    2    3    3    0    0 -7.11425547017E+00  5.02834084840E+00  2.03911316885E+01  4.60228951371E+01  4.03287959488E+01  0.00000000000E+00  1.
        3    1    4    4  804    0  2.95491304451E+01 -2.87495386045E+01  1.92755698229E+01  4.55108192854E+01  0.00000000000E+00  0.00000000000E+00  1.
       -4    1    4    4    0  804 -2.24348749750E+01  2.37211977561E+01 -1.48743826576E+01  3.59011381793E+01  1.27500000000E+00  0.00000000000E+00  1.
        4    1    5    5  803    0 -1.64223572203E+01  2.01472391210E+00 -6.17985317555E+00  1.77078835377E+01  1.27500000000E+00  0.00000000000E+00  1.
       -3    1    5    5    0  803  9.30810175016E+00  3.01361693630E+00  2.65709848640E+01  2.83150115994E+01  0.00000000000E+00  0.00000000000E+00  1.
</event>
<event>
 9   2   1.0000000E+00   6.2500360E+01   7.8125000E-03   1.3828925E-01
        2   -1    0    0  501    0  0.00000000000E+00  0.00000000000E+00  1.49034196812E+01  1.49034196812E+01  0.00000000000E+00  0.00000000000E+00  1.
       -2   -1    0    0    0  501  0.00000000000E+00  0.00000000000E+00 -2.62107294606E+02  2.62107294606E+02  0.00000000000E+00  0.00000000000E+00  1.
       39    2    1    2    0    0 -1.77635683940E-15 -3.55271367880E-15 -2.47203874925E+02  2.77010714287E+02  1.25000720206E+02  0.00000000000E+00  1.
       24    2    3    3    0    0 -4.67134035593E+00 -1.39859160535E+01 -1.61297460950E+02  1.80238714480E+02  7.90676673495E+01  0.00000000000E+00  1.
      -24    2    3    3    0    0  4.67134035593E+00  1.39859160535E+01 -8.59064139747E+01  9.67719998065E+01  4.20414166744E+01  0.00000000000E+00  1.
        2    1    4    4  804    0  2.54892329064E+01  9.70307905693E+00 -1.23193196299E+02  1.26176124333E+02  1.34869915235E-06  0.00000000000E+00  1.
       -1    1    4    4    0  804 -3.01605732623E+01 -2.36889951104E+01 -3.81042646507E+01  5.40625902472E+01  1.58148993986E-06  0.00000000000E+00  1.
       13    1    5    5    0    0  4.07443652948E+00  3.62691405727E+00  3.68368448686E+00  6.58302620729E+00  1.05660000009E-01  0.00000000000E+00  1.
      -14    1    5    5    0    0  5.96903826444E-01  1.03590019962E+01 -8.95900984615E+01  9.01889735992E+01  1.65181236989E-06  0.00000000000E+00  1.
</event>
<event>
 9   2   1.0000000E+00   6.2499599E+01   7.8125000E-03   1.3828954E-01
       -2   -1    0    0    0  502  0.00000000000E+00  0.00000000000E+00  3.13233866713E+01  3.13233866713E+01  0.00000000000E+00  0.00000000000E+00  1.
        2   -1    0    0  502    0  0.00000000000E+00  0.00000000000E+00 -1.24705540503E+02  1.24705540503E+02  0.00000000000E+00  0.00000000000E+00  1.
       39    2    1    2    0    0  1.77635683940E-15 -3.55271367880E-15 -9.33821538317E+01  1.56028927174E+02  1.24999197841E+02  0.00000000000E+00  1.
       24    2    3    3    0    0 -1.06286850522E+01 -1.49207036943E+01 -4.29727570337E+01  6.31041256280E+01  4.24249511435E+01  0.00000000000E+00  1.
      -24    2    3    3    0    0  1.06286850522E+01  1.49207036943E+01 -5.04093967979E+01  9.29248015463E+01  7.58835628592E+01  0.00000000000E+00  1.
        4    1    4    4  803    0 -1.05725389162E+01 -1.12042120891E+01 -5.15171964676E+01  5.37862445664E+01  1.27500000000E+00  0.00000000000E+00  1.
       -3    1    4    4    0  803 -5.61461359436E-02 -3.71649160517E+00  8.54443943387E+00  9.31788106165E+00  1.11191023029E-06  0.00000000000E+00  1.
        3    1    5    5  804    0 -1.56734833238E+01 -2.54302315860E+01 -1.99369260306E+01  3.59142838541E+01  0.00000000000E+00  0.00000000000E+00  1.
       -4    1    5    5    0  804  2.63021683760E+01  4.03509352803E+01 -3.04724707673E+01  5.70105177922E+01  1.27500000000E+00  0.00000000000E+00  1.
</event>
<event>
 9   2   1.0000000E+00   6.2499522E+01   7.8125000E-03   1.3828956E-01
       -1   -1    0    0    0  502  0.00000000000E+00  0.00000000000E+00  5.28411541847E+00  5.28411541847E+00  0.00000000000E+00  0.00000000000E+00  1.
        1   -1    0    0  502    0  0.00000000000E+00  0.00000000000E+00 -7.39232569970E+02  7.39232569970E+02  0.00000000000E+00  0.00000000000E+00  1.
       39    2    1    2    0    0 -3.55271367880E-15 -1.77635683940E-15 -7.33948454551E+02  7.44516685388E+02  1.24999043529E+02  0.00000000000E+00  1.
      -24    2    3    3    0    0  9.35081432625E+00  2.55372093121E+00 -2.84177937870E+02  2.89732912095E+02  5.56246416630E+01  0.00000000000E+00  1.
       24    2    3    3    0    0 -9.35081432625E+00 -2.55372093121E+00 -4.49770516682E+02  4.54783773293E+02  6.66393544045E+01  0.00000000000E+00  1.
        1    1    4    4  804    0 -2.07631914214E+01 -1.08612790731E+01 -1.11346186760E+02  1.13785108120E+02  2.33601545599E-06  0.00000000000E+00  1.
       -2    1    4    4    0  804  3.01140057476E+01  1.34150000043E+01 -1.72831751110E+02  1.75947804175E+02  1.90734863281E-06  0.00000000000E+00  1.
       16    1    5    5    0    0 -1.94164199273E+01 -2.18438446588E+01 -3.90981334557E+02  3.92072129696E+02  5.39479660939E-06  0.00000000000E+00  1.
      -15    1    5    5    0    0  1.00656056010E+01  1.92901237275E+01 -5.87891821246E+01  6.27116435972E+01  1.77680000000E+00  0.00000000000E+00  1.
</event>
<event>
 9   2   1.0000000E+00   6.2499376E+01   7.8125000E-03   1.3828962E-01
       -2   -1    0    0    0  502  0.00000000000E+00  0.00000000000E+00  1.27388021985E+01  1.27388021985E+01  0.00000000000E+00  0.00000000000E+00  1.
        2   -1    0    0  502    0  0.00000000000E+00  0.00000000000E+00 -3.06635735234E+02  3.06635735234E+02  0.00000000000E+00  0.00000000000E+00  1.
       39    2    1    2    0    0  3.55271367880E-15  8.88178419700E-16 -2.93896933036E+02  3.19374537433E+02  1.24998751644E+02  0.00000000000E+00  1.
      -24    2    3    3    0    0  9.23817117126E+00 -7.61190154216E+00 -1.30420457031E+02  1.36199281086E+02  3.73826658282E+01  0.00000000000E+00  1.
       24    2    3    3    0    0 -9.23817117126E+00  7.61190154216E+00 -1.63476476004E+02  1.83175256347E+02  8.17638763707E+01  0.00000000000E+00  1.
       11    1    4    4    0    0 -1.30081001821E+01  3.70967174247E+00 -3.37913002186E+01  3.63981360169E+01  5.11000155062E-04  0.00000000000E+00  1.
      -12    1    4    4    0    0  2.22462713534E+01 -1.13215732846E+01 -9.66291568129E+01  9.98011450693E+01  2.33601545599E-06  0.00000000000E+00  1.
        4    1    5    5  804    0 -3.75275191063E+01 -3.27445290288E+00 -1.39572108484E+02  1.44571905375E+02  1.27500000001E+00  0.00000000000E+00  1.
       -3    1    5    5    0  804  2.82893479350E+01  1.08863544450E+01 -2.39043675206E+01  3.86033509718E+01  2.18514237163E-06  0.00000000000E+00  1.
</event>
<event>
 9   2   1.0000000E+00   6.2498964E+01   7.8125000E-03   1.3828977E-01
       -3   -1    0    0    0  502  0.00000000000E+00  0.00000000000E+00  2.48202413223E+02  2.48202413223E+02  0.00000000000E+00  0.00000000000E+00  1.
        3   -1    0    0  502    0  0.00000000000E+00  0.00000000000E+00 -1.57376412916E+01  1.57376412916E+01  0.00000000000E+00  0.00000000000E+00  1.
       39    2    1    2    0    0 -5.32907051820E-15  1.77635683940E-15  2.32464771932E+02  2.63940054515E+02  1.24997928735E+02  0.00000000000E+00  1.
      -24    2    3    3    0    0  7.56081545396E+00  9.86864801138E+00  1.61570317111E+02  1.80164606027E+02  7.87385658351E+01  0.00000000000E+00  1.
       24    2    3    3    0    0 -7.56081545396E+00 -9.86864801138E+00  7.08944548208E+01  8.37754484876E+01  4.28689386509E+01  0.00000000000E+00  1.
       13    1    4    4    0    0  4.05886201533E+01  1.30800208326E+01  1.17492764827E+02  1.24992335692E+02  1.05660000004E-01  0.00000000000E+00  1.
      -14    1    4    4    0    0 -3.30278046993E+01 -3.21137282119E+00  4.40775522838E+01  5.51722704356E+01  0.00000000000E+00  0.00000000000E+00  1.
        2    1    5    5  804    0  1.39941157301E+01  2.33748376916E+00  8.25226743201E+00  1.64133793964E+01  0.00000000000E+00  0.00000000000E+00  1.
       -1    1    5    5    0  804 -2.15549311841E+01 -1.22061317805E+01  6.26421873888E+01  6.73620690912E+01  0.00000000000E+00  0.00000000000E+00  1.
</event>
<event>
 9   2   1.0000000E+00   6.2498577E+01   7.8125000E-03   1.3828992E-01
       -5   -1    0    0    0  502  0.00000000000E+00  0.00000000000E+00  4.28866359224E+02  4.28866359224E+02  0.00000000000E+00  0.00000000000E+00  1.
        5   -1    0    0  502    0  0.00000000000E+00  0.00000000000E+00 -9.10790035397E+00  9.10790035397E+00  0.00000000000E+00  0.00000000000E+00  1.
       39    2    1    2    0    0  1.77635683940E-15  5.32907051820E-15  4.19758458871E+02  4.37974259578E+02  1.24997153007E+02  0.00000000000E+00  1.
      -24    2    3    3    0    0 -1.23339793028E+01 -1.29599666798E+01  2.82219264214E+02  2.93629711658E+02  7.90607784758E+01  0.00000000000E+00  1.
       24    2    3    3    0    0  1.23339793028E+01  1.29599666798E+01  1.37539194657E+02  1.44344547921E+02  3.99778772042E+01  0.00000000000E+00  1.
       11    1    4    4    0    0 -1.82926601396E+00 -4.34440846343E+01  1.07516401842E+02  1.15976339696E+02  5.10995038018E-04  0.00000000000E+00  1.
      -12    1    4    4    0    0 -1.05047132888E+01  3.04841179545E+01  1.74702862371E+02  1.77653371962E+02  2.69739830470E-06  0.00000000000E+00  1.
        2    1    5    5  804    0 -4.07169992733E+00  1.75945528509E+01  1.13184158311E+02  1.14615883380E+02  2.33601545599E-06  0.00000000000E+00  1.
       -1    1    5    5    0  804  1.64056792301E+01 -4.63458617107E+00  2.43550363457E+01  2.97286645408E+01  1.90734863281E-06  0.00000000000E+00  1.
</event>
<event>
 9   2   1.0000000E+00   6.2498218E+01   7.8125000E-03   1.3829005E-01
       -1   -1    0    0    0  502  0.00000000000E+00  0.00000000000E+00  2.36105035179E+01  2.36105035179E+01  0.00000000000E+00  0.00000000000E+00  1.
        1   -1    0    0  502    0  0.00000000000E+00  0.00000000000E+00 -1.65436000621E+02  1.65436000621E+02  0.00000000000E+00  0.00000000000E+00  1.
       39    2    1    2    0    0 -3.55271367880E-15  1.77635683940E-15 -1.41825497103E+02  1.89046504139E+02  1.24996436344E+02  0.00000000000E+00  1.
       24    2    3    3    0    0 -1.37486902116E+01 -1.51159943238E+01 -1.00176101439E+02  1.26781139637E+02  7.49712364913E+01  0.00000000000E+00  1.
      -24    2    3    3    0    0  1.37486902116E+01  1.51159943238E+01 -4.16493956636E+01  6.22653645022E+01  4.15305151728E+01  0.00000000000E+00  1.
        4    1    4    4  803    0 -2.03965454316E+01  2.60909418846E+01 -2.79163453343E+01  4.33324852252E+01  1.27500000000E+00  0.00000000000E+00  1.
       -3    1    4    4    0  803  6.64785521999E+00 -4.12069362084E+01 -7.22597561051E+01  8.34486545115E+01  0.00000000000E+00  0.00000000000E+00  1.
        1    1    5    5  804    0 -1.40029496943E+01 -1.04547132086E+00 -1.48503382830E+01  2.04379099134E+01  0.00000000000E+00  0.00000000000E+00  1.
       -2    1    5    5    0  804  2.77516399059E+01  1.61614656447E+01 -2.67990573806E+01  4.18274547887E+01  0.00000000000E+00  0.00000000000E+00  1.
</event>
<event>
 9   2   1.0000000E+00   6.2500321E+01   7.8125000E-03   1.3828927E-01
        1   -1    0    0  501    0  0.00000000000E+00  0.00000000000E+00  1.18545692101E+03  1.18545692101E+03  0.00000000000E+00  0.00000000000E+00  1.
       -1   -1    0    0    0  501  0.00000000000E+00  0.00000000000E+00 -3.29517681714E+00  3.29517681714E+00  0.00000000000E+00  0.00000000000E+00  1.
       39    2    1    2    0    0 -7.10542735760E-15  8.88178419700E-16  1.18216174419E+03  1.18875209782E+03  1.25000642619E+02  0.00000000000E+00  1.
       24    2    3    3    0    0  2.32481819376E+01  7.03498035836E+00  9.04811946009E+02  9.08666748332E+02  8.00039559670E+01  0.00000000000E+00  1.
      -24    2    3    3    0    0 -2.32481819376E+01 -7.03498035836E+00  2.77349798179E+02  2.80085349491E+02  3.05765193817E+01  0.00000000000E+00  1.
        2    1    4    4  804    0  1.50065683152E+01  8.75674752593E+00  3.76687283966E+01  4.14826569441E+01  9.18453230107E-06  0.00000000000E+00  1.
       -1    1    4    4    0  804  8.24161362242E+00 -1.72176716757E+00  8.67143217613E+02  8.67184091488E+02  0.00000000000E+00  0.00000000000E+00  1.
        3    1    5    5  803    0 -2.48245343957E+01 -3.47983456401E+00  2.72864434535E+02  2.74013441989E+02  5.39479660939E-06  0.00000000000E+00  1.
       -4    1    5    5    0  803  1.57635245810E+00 -3.55514579435E+00  4.48536364326E+00  6.07190750123E+00  1.27499999999E+00  0.00000000000E+00  1.
</event>
<event>
 9   2   1.0000000E+00   6.2498747E+01   7.8125000E-03   1.3828985E-01
       -2   -1    0    0    0  502  0.00000000000E+00  0.00000000000E+00  1.45196853947E+01  1.45196853947E+01  0.00000000000E+00  0.00000000000E+00  1.
        2   -1    0    0  502    0  0.00000000000E+00  0.00000000000E+00 -2.69020520161E+02  2.69020520161E+02  0.00000000000E+00  0.00000000000E+00  1.
       39    2    1    2    0    0  8.88178419700E-16 -5.32907051820E-15 -2.54500834766E+02  2.83540205555E+02  1.24997493054E+02  0.00000000000E+00  1.
      -24    2    3    3    0    0 -2.61712178243E+00  1.16812821998E+01 -1.40542928594E+02  1.62119680404E+02  7.99197992762E+01  0.00000000000E+00  1.
       24    2    3    3    0    0  2.61712178243E+00 -1.16812821998E+01 -1.13957906172E+02  1.21420525151E+02  4.01651324983E+01  0.00000000000E+00  1.
        1    1    4    4  803    0 -1.12843098951E+01 -1.78096905175E+01 -3.13478040037E+00  2.13154304272E+01  0.00000000000E+00  0.00000000000E+00  1.
       -2    1    4    4    0  803  8.66718811271E+00  2.94909727174E+01 -1.37408148193E+02  1.40804249977E+02  3.30362473978E-06  0.00000000000E+00  1.
        4    1    5    5  804    0  9.57739936323E+00  9.53222704441E+00 -7.74252632227E+01  7.86058963507E+01  1.27500000000E+00  0.00000000000E+00  1.
       -3    1    5    5    0  804 -6.96027758080E+00 -2.12135092442E+01 -3.65326429496E+01  4.28146288007E+01  0.00000000000E+00  0.00000000000E+00  1.
</event>
<event>
 9   2   1.0000000E+00   6.2499272E+01   7.8125000E-03   1.3828966E-01
       -2   -1    0    0    0  502  0.00000000000E+00  0.00000000000E+00  4.03677679268E+01  4.03677679268E+01  0.00000000000E+00  0.00000000000E+00  1.
        2   -1    0    0  502    0  0.00000000000E+00  0.00000000000E+00 -9.67643062441E+01  9.67643062441E+01  0.00000000000E+00  0.00000000000E+00  1.
       39    2    1    2    0    0  0.00000000000E+00 -6.21724893790E-15 -5.63965383174E+01  1.37132074171E+02  1.24998544920E+02  0.00000000000E+00  1.
      -24    2    3    3    0    0  1.63163792275E+01 -3.28407147368E+00 -1.76241026103E+01  8.39865420728E+01  8.04121937270E+01  0.00000000000E+00  1.
       24    2    3    3    0    0 -1.63163792275E+01  3.28407147368E+00 -3.87724357070E+01  5.31455320980E+01  3.23131003587E+01  0.00000000000E+00  1.
        1    1    4    4  804    0  2.39536779089E+01 -3.88857525961E+01 -8.61398682421E+00  4.64766739196E+01  0.00000000000E+00  0.00000000000E+00  1.
       -2    1    4    4    0  804 -7.63729868138E+00  3.56016811225E+01 -9.01011578611E+00  3.75098682532E+01  1.01852461640E-06  0.00000000000E+00  1.
        4    1    5    5  803    0  5.85452267273E+00 -7.62260568495E+00 -3.99973917927E+00  1.04882358696E+01  1.27500000000E+00  0.00000000000E+00  1.
       -3    1    5    5    0  803 -2.21709019002E+01  1.09066771586E+01 -3.47726965278E+01  4.26572963285E+01  0.00000000000E+00  0.00000000000E+00  1.
</event>
<event>
 9   2   1.0000000E+00   6.2492491E+01   7.8125000E-03   1.3829219E-01
        2   -1    0    0  501    0  0.00000000000E+00  0.00000000000E+00  1.20942559068E+03  1.20942559068E+03  0.00000000000E+00  0.00000000000E+00  1.
       -2   -1    0    0    0  501  0.00000000000E+00  0.00000000000E+00 -3.22906304290E+00  3.22906304290E+00  0.00000000000E+00  0.00000000000E+00  1.
       39    2    1    2    0    0  0.00000000000E+00  3.55271367880E-15  1.20619652763E+03  1.21265465372E+03  1.24984982746E+02  0.00000000000E+00  1.
       24    2    3    3    0    0  4.67630312244E+00 -1.04806039269E+01  5.69285005787E+02  5.74983216463E+02  7.99285338951E+01  0.00000000000E+00  1.
      -24    2    3    3    0    0 -4.67630312244E+00  1.04806039269E+01  6.36911521847E+02  6.37671437257E+02  2.89286080236E+01  0.00000000000E+00  1.
        2    1    4    4  803    0 -1.56018727967E+01  2.96012836775E+01  1.77029393768E+02  1.80163982771E+02  0.00000000000E+00  0.00000000000E+00  1.
       -1    1    4    4    0  803  2.02781759192E+01 -4.00818876044E+01  3.92255612019E+02  3.94819233792E+02  5.39479660939E-06  0.00000000000E+00  1.
       13    1    5    5    0    0  7.43902859762E-01  1.77261911141E+01  2.39237942203E+02  2.39894925741E+02  1.05659999918E-01  0.00000000000E+00  1.
      -14    1    5    5    0    0 -5.42020598220E+00 -7.24558718719E+00  3.97673579644E+02  3.97776511516E+02  5.39479660939E-06  0.00000000000E+00  1.
</event>
<event>
 9   2   1.0000000E+00   6.2500568E+01   7.8125000E-03   1.3828917E-01
       -1   -1    0    0    0  502  0.00000000000E+00  0.00000000000E+00  1.77560923269E+02  1.77560923269E+02  0.00000000000E+00  0.00000000000E+00  1.
        1   -1    0    0  502    0  0.00000000000E+00  0.00000000000E+00 -2.19998915015E+01  2.19998915015E+01  0.00000000000E+00  0.00000000000E+00  1.
       39    2    1    2    0    0 -3.55271367880E-15  3.55271367880E-15  1.55561031768E+02  1.99560814771E+02  1.25001136744E+02  0.00000000000E+00  1.
      -24    2    3    3    0    0 -1.08534922727E+01 -6.88862870576E+00  1.35744163929E+02  1.57741633152E+02  7.93138908937E+01  0.00000000000E+00  1.
       24    2    3    3    0    0  1.08534922727E+01  6.88862870576E+00  1.98168678385E+01  4.18191816186E+01  3.45091900855E+01  0.00000000000E+00  1.
        1    1    4    4  804    0  1.97689627716E+01  2.58492088226E+01  3.68514290041E+01  4.91632109946E+01  1.06624029994E-06  0.00000000000E+00  1.
       -2    1    4    4    0  804 -3.06224550443E+01 -3.27378375284E+01  9.88927349251E+01  1.08578422258E+02  0.00000000000E+00  0.00000000000E+00  1.
        4    1    5    5  803    0  7.45992152605E+00  2.09826294216E+01  1.12831153199E+01  2.49971094917E+01  1.27500000000E+00  0.00000000000E+00  1.
       -3    1    5    5    0  803  3.39357074663E+00 -1.40940007159E+01  8.53375251865E+00  1.68220721268E+01  0.00000000000E+00  0.00000000000E+00  1.
</event>
<event>
 9   2   1.0000000E+00   6.2500542E+01   7.8125000E-03   1.3828918E-01
        1   -1    0    0  501    0  0.00000000000E+00  0.00000000000E+00  1.95350917286E+03  1.95350917286E+03  0.00000000000E+00  0.00000000000E+00  1.
       -1   -1    0    0    0  501  0.00000000000E+00  0.00000000000E+00 -1.99964134252E+00  1.99964134252E+00  0.00000000000E+00  0.00000000000E+00  1.
       39    2    1    2    0    0  0.00000000000E+00  0.00000000000E+00  1.95150953152E+03  1.95550881420E+03  1.25001083276E+02  0.00000000000E+00  1.
       24    2    3    3    0    0  1.52869887493E+00  1.29517529787E+00  9.84211297984E+02  9.84913325978E+02  3.71263546530E+01  0.00000000000E+00  1.
      -24    2    3    3    0    0 -1.52869887493E+00 -1.29517529787E+00  9.67298233535E+02  9.70595488227E+02  7.99106674110E+01  0.00000000000E+00  1.
        4    1    4    4  804    0 -7.65631915730E-01 -1.47004526365E+01  7.49865133199E+02  7.50010688666E+02  1.27499999999E+00  0.00000000000E+00  1.
       -3    1    4    4    0  804  2.29433079066E+00  1.59956279344E+01  2.34346164785E+02  2.34902637312E+02  3.81469726562E-06  0.00000000000E+00  1.
       15    1    5    5    0    0 -2.93871789248E+01 -2.71988697991E+01  3.92968826791E+02  3.95007646320E+02  1.77680000000E+00  0.00000000000E+00  1.
      -16    1    5    5    0    0  2.78584800499E+01  2.59036945012E+01  5.74329406744E+02  5.75587841906E+02  1.07895932188E-05  0.00000000000E+00  1.
</event>
<event>
 9   2   1.0000000E+00   6.2500610E+01   7.8125000E-03   1.3828916E-01
       -2   -1    0    0    0  502  0.00000000000E+00  0.00000000000E+00  3.70740622699E+00  3.70740622699E+00  0.00000000000E+00  0.00000000000E+00  1.
        2   -1    0    0  502    0  0.00000000000E+00  0.00000000000E+00 -1.05365477629E+03  1.05365477629E+03  0.00000000000E+00  0.00000000000E+00  1.
       39    2    1    2    0    0 -1.77635683940E-15 -3.55271367880E-15 -1.04994737007E+03  1.05736218252E+03  1.25001220454E+02  0.00000000000E+00  1.
       24    2    3    3    0    0 -3.93194374060E+00  3.73883855054E+00 -4.57431420544E+02  4.59433625135E+02  4.25007330251E+01  0.00000000000E+00  1.
      -24    2    3    3    0    0  3.93194374060E+00 -3.73883855054E+00 -5.92515949521E+02  5.97928557385E+02  8.00872661809E+01  0.00000000000E+00  1.
       12    1    4    4    0    0  1.37209577676E+01  1.45617492783E+01 -2.96712948673E+02  2.97386756824E+02  0.00000000000E+00  0.00000000000E+00  1.
      -11    1    4    4    0    0 -1.76529015082E+01 -1.08229107277E+01 -1.60718471872E+02  1.62046868311E+02  5.11005717009E-04  0.00000000000E+00  1.
        1    1    5    5  803    0  3.40710487507E+01 -1.77259101032E+01 -4.47949111262E+02  4.49592538442E+02  5.39479660939E-06  0.00000000000E+00  1.
       -2    1    5    5    0  803 -3.01391050101E+01  1.39870715527E+01 -1.44566838259E+02  1.48336019143E+02  2.69739830470E-06  0.00000000000E+00  1.
</event>
<event>
 9   2   1.0000000E+00   6.2502023E+01   7.8125000E-03   1.3828863E-01
        2   -1    0    0  501    0  0.00000000000E+00  0.00000000000E+00  5.99956892020E+01  5.99956892020E+01  0.00000000000E+00  0.00000000000E+00  1.
       -2   -1    0    0    0  501  0.00000000000E+00  0.00000000000E+00 -6.51130595324E+01  6.51130595324E+01  0.00000000000E+00  0.00000000000E+00  1.
       39    2    1    2    0    0  0.00000000000E+00  0.00000000000E+00 -5.11737033048E+00  1.25108748734E+02  1.25004046058E+02  0.00000000000E+00  1.
       24    2    3    3    0    0  2.26669048043E+01 -1.82955847471E+01  3.64186318696E+00  8.33046941177E+01  7.79608356801E+01  0.00000000000E+00  1.
      -24    2    3    3    0    0 -2.26669048043E+01  1.82955847471E+01 -8.75923351744E+00  4.18040546166E+01  2.86764331104E+01  0.00000000000E+00  1.
        4    1    4    4  803    0  6.32984676226E+00  2.11329093074E+01 -2.38689709669E+01  3.25272226888E+01  1.27500000000E+00  0.00000000000E+00  1.
       -3    1    4    4    0  803  1.63370580420E+01 -3.94284940545E+01  2.75108341539E+01  5.07774714289E+01  0.00000000000E+00  0.00000000000E+00  1.
       11    1    5    5    0    0 -2.54766599439E+01  2.17361634614E+01 -1.78670995338E+00  3.35367460652E+01  5.11000185914E-04  0.00000000000E+00  1.
      -12    1    5    5    0    0  2.80975513961E+00 -3.44057871436E+00 -6.97252356406E+00  8.26730865150E+00  0.00000000000E+00  0.00000000000E+00  1.
</event>
<event>
 9   2   1.0000000E+00   6.2505267E+01   7.8125000E-03   1.3828742E-01
       -2   -1    0    0    0  502  0.00000000000E+00  0.00000000000E+00  5.09423214722E+00  5.09423214722E+00  0.00000000000E+00  0.00000000000E+00  1.
        2   -1    0    0  502    0  0.00000000000E+00  0.00000000000E+00 -7.66927829681E+02  7.66927829681E+02  0.00000000000E+00  0.00000000000E+00  1.
       39    2    1    2    0    0 -1.77635683940E-15  0.00000000000E+00 -7.61833597533E+02  7.72022061828E+02  1.25010534029E+02  0.00000000000E+00  1.
       24    2    3    3    0    0 -1.36556160577E+01  4.21845152779E+00 -2.89236867327E+02  2.94371911749E+02  5.28449223906E+01  0.00000000000E+00  1.
      -24    2    3    3    0    0  1.36556160577E+01 -4.21845152779E+00 -4.72596730207E+02  4.77650150079E+02  6.78065283382E+01  0.00000000000E+00  1.
       14    1    4    4    0    0  1.86034417333E+01 -5.28685661565E+00 -1.43956820671E+02  1.45250146795E+02  2.69739830470E-06  0.00000000000E+00  1.
      -13    1    4    4    0    0 -3.22590577909E+01  9.50530814344E+00 -1.45280046656E+02  1.49121765054E+02  1.05660000038E-01  0.00000000000E+00  1.
       13    1    5    5    0    0  2.52705178913E+01  1.32540720670E+01 -8.86263995223E+01  9.31070317278E+01  1.05660000030E-01  0.00000000000E+00  1.
      -14    1    5    5    0    0 -1.16149018336E+01 -1.74725235948E+01 -3.83970330685E+02  3.84543118351E+02  5.39479660939E-06  0.00000000000E+00  1.
</event>
<event>
 9   2   1.0000000E+00   6.2505843E+01   7.8125000E-03   1.3828720E-01
       -2   -1    0    0    0  502  0.00000000000E+00  0.00000000000E+00  9.05517455946E+01  9.05517455946E+01  0.00000000000E+00  0.00000000000E+00  1.
        2   -1    0    0  502    0  0.00000000000E+00  0.00000000000E+00 -4.31463847681E+01  4.31463847681E+01  0.00000000000E+00  0.00000000000E+00  1.
       39    2    1    2    0    0  0.00000000000E+00 -1.77635683940E-15  4.74053608266E+01  1.33698130363E+02  1.25011686763E+02  0.00000000000E+00  1.
      -24    2    3    3    0    0  3.03060265575E+00 -1.35426334677E+01  5.02206904808E+01  9.49660672346E+01  7.93967801610E+01  0.00000000000E+00  1.
       24    2    3    3    0    0 -3.03060265575E+00  1.35426334677E+01 -2.81532965430E+00  3.87320631281E+01  3.60507858360E+01  0.00000000000E+00  1.
        3    1    4    4  803    0 -3.42739213445E+01 -4.34108598590E-01  4.60445432023E+00  3.45845505131E+01  0.00000000000E+00  0.00000000000E+00  1.
       -4    1    4    4    0  803  3.73045240003E+01 -1.31085248691E+01  4.56162361606E+01  6.03815167215E+01  1.27500000000E+00  0.00000000000E+00  1.
       14    1    5    5    0    0 -5.97567935590E-01  5.69413694933E+00 -1.93977913480E+01  2.02250980768E+01  0.00000000000E+00  0.00000000000E+00  1.
      -13    1    5    5    0    0 -2.43303472016E+00  7.84849651838E+00  1.65824616937E+01  1.85069650512E+01  1.05660000000E-01  0.00000000000E+00  1.
</event>
<event>
 9   2   1.0000000E+00   6.2499531E+01   7.8125000E-03   1.3828956E-01
        2   -1    0    0  501    0  0.00000000000E+00  0.00000000000E+00  2.90928113330E+01  2.90928113330E+01  0.00000000000E+00  0.00000000000E+00  1.
       -2   -1    0    0    0  501  0.00000000000E+00  0.00000000000E+00 -1.34266547516E+02  1.34266547516E+02  0.00000000000E+00  0.00000000000E+00  1.
       39    2    1    2    0    0 -7.10542735760E-15  3.55271367880E-15 -1.05173736183E+02  1.63359358849E+02  1.24999061360E+02  0.00000000000E+00  1.
      -24    2    3    3    0    0 -1.83759553646E+01 -1.43117814406E+01 -6.06159528517E+01  1.02339004127E+02  7.90978836756E+01  0.00000000000E+00  1.
       24    2    3    3    0    0  1.83759553646E+01  1.43117814406E+01 -4.45577833309E+01  6.10203547219E+01  3.45772296672E+01  0.00000000000E+00  1.
       15    1    4    4    0    0  3.79646054357E+00 -3.72872868897E+01 -5.95577436448E+01  7.03920217251E+01  1.77680000000E+00  0.00000000000E+00  1.
      -16    1    4    4    0    0 -2.21724159081E+01  2.29755054491E+01 -1.05820920692E+00  3.19469824016E+01  0.00000000000E+00  0.00000000000E+00  1.
        4    1    5    5  804    0  2.22806732385E+01 -4.15448428889E+00 -2.20600569940E+01  3.16537498450E+01  1.27500000000E+00  0.00000000000E+00  1.
       -3    1    5    5    0  804 -3.90471787399E+00  1.84662657295E+01 -2.24977263369E+01  2.93666049769E+01  0.00000000000E+00  0.00000000000E+00  1.
</event>
<event>
 9   2   1.0000000E+00   6.2498616E+01   7.8125000E-03   1.3828990E-01
        2   -1    0    0  501    0  0.00000000000E+00  0.00000000000E+00  1.09999647126E+02  1.09999647126E+02  0.00000000000E+00  0.00000000000E+00  1.
       -2   -1    0    0    0  501  0.00000000000E+00  0.00000000000E+00 -3.55099049175E+01  3.55099049175E+01  0.00000000000E+00  0.00000000000E+00  1.
       39    2    1    2    0    0 -3.55271367880E-15 -8.88178419700E-15  7.44897422085E+01  1.45509552043E+02  1.24997232136E+02  0.00000000000E+00  1.
      -24    2    3    3    0    0  3.97424937408E+00  9.99576742797E+00  7.74196145037E+01  1.18146750918E+02  8.85954175901E+01  0.00000000000E+00  1.
       24    2    3    3    0    0 -3.97424937408E+00 -9.99576742797E+00 -2.92987229516E+00  2.73628011257E+01  2.49885715722E+01  0.00000000000E+00  1.
        3    1    4    4  804    0  3.77200762312E+01 -1.84293290517E+01  2.23177433016E+01  4.75449890763E+01  1.03924249257E-06  0.00000000000E+00  1.
       -4    1    4    4    0  804 -3.37458268572E+01  2.84250964797E+01  5.51018712021E+01  7.06017618415E+01  1.27500000000E+00  0.00000000000E+00  1.
        2    1    5    5  803    0  8.12077022712E+00 -2.57489497532E+00  6.15820939605E+00  1.05119236243E+01  0.00000000000E+00  0.00000000000E+00  1.
       -1    1    5    5    0  803 -1.20950196012E+01 -7.42087245265E+00 -9.08808169120E+00  1.68508777014E+01  0.00000000000E+00  0.00000000000E+00  1.
</event>
<event>
 9   2   1.0000000E+00   6.2502005E+01   7.8125000E-03   1.3828864E-01
       -3   -1    0    0    0  502  0.00000000000E+00  0.00000000000E+00  3.48626205225E+01  3.48626205225E+01  0.00000000000E+00  0.00000000000E+00  1.
        3   -1    0    0  502    0  0.00000000000E+00  0.00000000000E+00 -1.12054128908E+02  1.12054128908E+02  0.00000000000E+00  0.00000000000E+00  1.
       39    2    1    2    0    0 -3.55271367880E-15  7.10542735760E-15 -7.71915083850E+01  1.46916749430E+02  1.25004009121E+02  0.00000000000E+00  1.
      -24    2    3    3    0    0 -1.99958116328E+01  2.50663701621E+01 -1.24548634695E+01  3.67299986824E+01  1.28768700860E+01  0.00000000000E+00  1.
       24    2    3    3    0    0  1.99958116328E+01 -2.50663701621E+01 -6.47366449155E+01  1.10186750748E+02  8.31993476504E+01  0.00000000000E+00  1.
       11    1    4    4    0    0 -8.69784684053E+00  2.05992472801E+01 -8.95601274360E+00  2.40871686317E+01  5.11000016013E-04  0.00000000000E+00  1.
      -12    1    4    4    0    0 -1.12979647922E+01  4.46712288202E+00 -3.49885072588E+00  1.26428301507E+01  0.00000000000E+00  0.00000000000E+00  1.
        2    1    5    5  803    0  3.97405744275E+01 -3.32715901550E+01 -1.18865133513E+01  5.31751932535E+01  1.37994729314E-06  0.00000000000E+00  1.
       -1    1    5    5    0  803 -1.97447627947E+01  8.20521999286E+00 -5.28501315642E+01  5.70115576941E+01  1.34869915235E-06  0.00000000000E+00  1.
</event>
<event>
 9   2   1.0000000E+00   6.2499835E+01   7.8125000E-03   1.3828945E-01
       -1   -1    0    0    0  502  0.00000000000E+00  0.00000000000E+00  1.00178852069E+00  1.00178852069E+00  0.00000000000E+00  0.00000000000E+00  1.
        1   -1    0    0  502    0  0.00000000000E+00  0.00000000000E+00 -3.89925550491E+03  3.89925550491E+03  0.00000000000E+00  0.00000000000E+00  1.
       39    2    1    2    0    0  0.00000000000E+00  0.00000000000E+00 -3.89825371639E+03  3.90025729343E+03  1.24999670464E+02  0.00000000000E+00  1.
      -24    2    3    3    0    0 -3.80023693406E+00  7.22935714183E+00 -1.68445887100E+03  1.68576844520E+03  6.59307009287E+01  0.00000000000E+00  1.
       24    2    3    3    0    0  3.80023693406E+00 -7.22935714183E+00 -2.21379484539E+03  2.21448884823E+03  5.48318892150E+01  0.00000000000E+00  1.
        1    1    4    4  804    0  2.37436119131E+01 -1.62892181412E+01 -9.22491778123E+02  9.22941048293E+02  1.86881236479E-05  0.00000000000E+00  1.
       -2    1    4    4    0  804 -2.75438488472E+01  2.35185752830E+01 -7.61967092881E+02  7.62827397008E+02  0.00000000000E+00  0.00000000000E+00  1.
        2    1    5    5  803    0  2.20215509192E+01 -2.04087797656E+01 -8.97863432801E+02  8.98365299284E+02  1.52587890625E-05  0.00000000000E+00  1.
       -1    1    5    5    0  803 -1.82213139851E+01  1.31794226237E+01 -1.31593141259E+03  1.31612354895E+03  0.00000000000E+00  0.00000000000E+00  1.
</event>
<event>
 9   2   1.0000000E+00   6.2465171E+01   7.8125000E-03   1.3830239E-01
        2   -1    0    0  501    0  0.00000000000E+00  0.00000000000E+00  2.13237941132E+01  2.13237941132E+01  0.00000000000E+00  0.00000000000E+00  1.
       -2   -1    0    0    0  501  0.00000000000E+00  0.00000000000E+00 -1.82983270224E+02  1.82983270224E+02  0.00000000000E+00  0.00000000000E+00  1.
       39    2    1    2    0    0  0.00000000000E+00  0.00000000000E+00 -1.61659476111E+02  2.04307064337E+02  1.24930341878E+02  0.00000000000E+00  1.
      -24    2    3    3    0    0  1.86140955252E+01 -6.69368703319E+00 -9.26335217072E+01  1.24580344436E+02  8.09197310769E+01  0.00000000000E+00  1.
       24    2    3    3    0    0 -1.86140955252E+01  6.69368703319E+00 -6.90259544035E+01  7.97267199012E+01  3.46479073909E+01  0.00000000000E+00  1.
        3    1    4    4  804    0  4.46554904151E+01  1.30688894657E+01 -3.46841513967E+01  5.80336028021E+01  1.71926082395E-06  0.00000000000E+00  1.
       -4    1    4    4    0  804 -2.60413948899E+01 -1.97625764989E+01 -5.79493703105E+01  6.65467416337E+01  1.27500000000E+00  0.00000000000E+00  1.
        2    1    5    5  803    0  7.81188840318E+00  2.47265811056E+00 -3.43158457922E+00  8.88343475557E+00  0.00000000000E+00  0.00000000000E+00  1.
       -1    1    5    5    0  803 -2.64259839284E+01  4.22102892263E+00 -6.55943698242E+01  7.08432853456E+01  0.00000000000E+00  0.00000000000E+00  1.
</event>
<event>
 9   2   1.0000000E+00   6.2499504E+01   7.8125000E-03   1.3828957E-01
       -2   -1    0    0    0  502  0.00000000000E+00  0.00000000000E+00  4.09635603927E+00  4.09635603927E+00  0.00000000000E+00  0.00000000000E+00  1.
        2   -1    0    0  502    0  0.00000000000E+00  0.00000000000E+00 -9.53576287190E+02  9.53576287190E+02  0.00000000000E+00  0.00000000000E+00  1.
       39    2    1    2    0    0  0.00000000000E+00  1.77635683940E-15 -9.49479931151E+02  9.57672643229E+02  1.24999007723E+02  0.00000000000E+00  1.
      -24    2    3    3    0    0 -1.96862162160E+00  7.95944674793E+00 -6.49024442524E+02  6.53968978821E+02  7.98465403337E+01  0.00000000000E+00  1.
       24    2    3    3    0    0  1.96862162160E+00 -7.95944674793E+00 -3.00455488627E+02  3.03703664408E+02  4.35337439847E+01  0.00000000000E+00  1.
       11    1    4    4    0    0  2.35500317952E+01 -2.30984300616E+01 -4.31690307608E+02  4.32948799688E+02  5.11027074320E-04  0.00000000000E+00  1.
      -12    1    4    4    0    0 -2.55186534168E+01  3.10578768096E+01 -2.17334134916E+02  2.21020179233E+02  4.67203091199E-06  0.00000000000E+00  1.
        2    1    5    5  803    0  1.29059561585E+01 -2.18629982795E+01 -2.10483738859E+02  2.12009336404E+02  3.81469726562E-06  0.00000000000E+00  1.
       -1    1    5    5    0  803 -1.09373345369E+01  1.39035515316E+01 -8.99717497676E+01  9.16943280045E+01  0.00000000000E+00  0.00000000000E+00  1.
</event>
<event>
 9   2   1.0000000E+00   6.2501530E+01   7.8125000E-03   1.3828881E-01
        1   -1    0    0  501    0  0.00000000000E+00  0.00000000000E+00  7.06954813958E+01  7.06954813958E+01  0.00000000000E+00  0.00000000000E+00  1.
       -1   -1    0    0    0  501  0.00000000000E+00  0.00000000000E+00 -5.52572974905E+01  5.52572974905E+01  0.00000000000E+00  0.00000000000E+00  1.
       39    2    1    2    0    0 -7.10542735760E-15  7.10542735760E-15  1.54381839052E+01  1.25952778886E+02  1.25003059910E+02  0.00000000000E+00  1.
      -24    2    3    3    0    0 -1.48556756176E+01 -2.77952974723E+01  7.34309253410E+00  3.91737912188E+01  2.20770299376E+01  0.00000000000E+00  1.
       24    2    3    3    0    0  1.48556756176E+01  2.77952974723E+01  8.09509137113E+00  8.67789876674E+01  8.04474520209E+01  0.00000000000E+00  1.
        1    1    4    4  803    0 -1.14412570779E+01 -1.21742565373E+00  3.94261345328E+00  1.21625939676E+01  0.00000000000E+00  0.00000000000E+00  1.
       -2    1    4    4    0  803 -3.41441853962E+00 -2.65778718186E+01  3.40047908082E+00  2.70111973513E+01  0.00000000000E+00  0.00000000000E+00  1.
        4    1    5    5  804    0  3.82547342897E+01  1.16868213835E+01  3.07289757583E+01  5.04569327821E+01  1.27500000000E+00  0.00000000000E+00  1.
       -3    1    5    5    0  804 -2.33990586721E+01  1.61084760889E+01 -2.26338843871E+01  3.63220548854E+01  0.00000000000E+00  0.00000000000E+00  1.
</event>
<event>
 9   2   1.0000000E+00   6.2499103E+01   7.8125000E-03   1.3828972E-01
       -1   -1    0    0    0  502  0.00000000000E+00  0.00000000000E+00  4.04514954338E+02  4.04514954338E+02  0.00000000000E+00  0.00000000000E+00  1.
        1   -1    0    0  502    0  0.00000000000E+00  0.00000000000E+00 -9.65634970922E+00  9.65634970922E+00  0.00000000000E+00  0.00000000000E+00  1.
       39    2    1    2    0    0  5.32907051820E-15 -8.88178419700E-16  3.94858604628E+02  4.14171304047E+02  1.24998205774E+02  0.00000000000E+00  1.
       24    2    3    3    0    0  5.82871154528E+00  3.56913207577E+00  1.69014536387E+02  1.73947746212E+02  4.05609704019E+01  0.00000000000E+00  1.
      -24    2    3    3    0    0 -5.82871154528E+00 -3.56913207577E+00  2.25844068241E+02  2.40223557835E+02  8.15788085052E+01  0.00000000000E+00  1.
        2    1    4    4  804    0 -1.44142421934E+01 -4.31608205935E+00  1.10702233950E+02  1.11720112531E+02  1.34869915235E-06  0.00000000000E+00  1.
       -1    1    4    4    0  804  2.02429537387E+01  7.88521413512E+00  5.83123024369E+01  6.22276337808E+01  1.90734863281E-06  0.00000000000E+00  1.
       15    1    5    5    0    0 -3.39297059651E+00 -4.25286001418E+01  1.11252959090E+02  1.19166152930E+02  1.77680000000E+00  0.00000000000E+00  1.
      -16    1    5    5    0    0 -2.43574094877E+00  3.89594680661E+01  1.14591109151E+02  1.21057404905E+02  1.90734863281E-06  0.00000000000E+00  1.
</event>
<event>
 9   2   1.0000000E+00   6.2499754E+01   7.8125000E-03   1.3828948E-01
       -2   -1    0    0    0  502  0.00000000000E+00  0.00000000000E+00  1.53791263759E+01  1.53791263759E+01  0.00000000000E+00  0.00000000000E+00  1.
        2   -1    0    0  502    0  0.00000000000E+00  0.00000000000E+00 -2.53994874459E+02  2.53994874459E+02  0.00000000000E+00  0.00000000000E+00  1.
       39    2    1    2    0    0 -3.55271367880E-15  0.00000000000E+00 -2.38615748083E+02  2.69374000835E+02  1.24999508369E+02  0.00000000000E+00  1.
      -24    2    3    3    0    0  1.31868359854E+01 -1.33994309050E+01 -9.07628367534E+01  9.83373242103E+01  3.28466041690E+01  0.00000000000E+00  1.
       24    2    3    3    0    0 -1.31868359854E+01  1.33994309050E+01 -1.47852911329E+02  1.71036676624E+02  8.39024670091E+01  0.00000000000E+00  1.
        3    1    4    4  803    0  1.97977023361E+01  3.06035670257E+00 -4.61272298439E+01  5.02895231038E+01  0.00000000000E+00  0.00000000000E+00  1.
       -4    1    4    4    0  803 -6.61086635069E+00 -1.64597876075E+01 -4.46356069095E+01  4.80478011065E+01  1.27500000000E+00  0.00000000000E+00  1.
        2    1    5    5  804    0 -1.02085525725E+01  2.97867111196E+00 -1.56691273653E+02  1.57051718444E+02  0.00000000000E+00  0.00000000000E+00  1.
       -1    1    5    5    0  804 -2.97828341282E+00  1.04207597930E+01  8.83836232336E+00  1.39849582805E+01  2.00541065231E-06  0.00000000000E+00  1.
</event>
<event>
 9   2   1.0000000E+00   6.2498531E+01   7.8125000E-03   1.3828993E-01
        1   -1    0    0  501    0  0.00000000000E+00  0.00000000000E+00  2.39705180556E+03  2.39705180556E+03  0.00000000000E+00  0.00000000000E+00  1.
       -1   -1    0    0    0  501  0.00000000000E+00  0.00000000000E+00 -1.62952941643E+00  1.62952941643E+00  0.00000000000E+00  0.00000000000E+00  1.
       39    2    1    2    0    0 -3.55271367880E-15  0.00000000000E+00  2.39542227614E+03  2.39868133497E+03  1.24997062843E+02  0.00000000000E+00  1.
       24    2    3    3    0    0 -1.69550746466E+01 -2.47813424724E+01  8.36399899726E+02  8.37583241889E+02  3.28527828403E+01  0.00000000000E+00  1.
      -24    2    3    3    0    0  1.69550746466E+01  2.47813424724E+01  1.55902237641E+03  1.56109809308E+03  7.46652300606E+01  0.00000000000E+00  1.
       14    1    4    4    0    0 -1.13178351652E+01 -1.89672306547E+01  7.99497997523E+02  7.99803036550E+02  0.00000000000E+00  0.00000000000E+00  1.
      -13    1    4    4    0    0 -5.63723948135E+00 -5.81411181773E+00  3.69019022030E+01  3.77802053387E+01  1.05659999490E-01  0.00000000000E+00  1.
        1    1    5    5  803    0 -1.20440868730E+01  1.61011538104E+00  1.21814905681E+03  1.21820966057E+03  2.15791864376E-05  0.00000000000E+00  1.
       -2    1    5    5    0  803  2.89991615196E+01  2.31712270914E+01  3.40873319607E+02  3.42888432517E+02  2.08939574244E-05  0.00000000000E+00  1.
</event>
<event>
 9   2   1.0000000E+00   6.2501441E+01   7.8125000E-03   1.3828885E-01
       -2   -1    0    0    0  502  0.00000000000E+00  0.00000000000E+00  4.06962454117E+00  4.06962454117E+00  0.00000000000E+00  0.00000000000E+00  1.
        2   -1    0    0  502    0  0.00000000000E+00  0.00000000000E+00 -9.59899385981E+02  9.59899385981E+02  0.00000000000E+00  0.00000000000E+00  1.
       39    2    1    2    0    0  1.77635683940E-15  1.33226762955E-15 -9.55829761440E+02  9.63969010522E+02  1.25002881539E+02  0.00000000000E+00  1.
       24    2    3    3    0    0  9.49478979111E+00 -1.71373419405E+00 -2.24400824435E+02  2.27996922212E+02  3.91634857064E+01  0.00000000000E+00  1.
      -24    2    3    3    0    0 -9.49478979111E+00  1.71373419405E+00 -7.31428937005E+02  7.35972088311E+02  8.10773517483E+01  0.00000000000E+00  1.
       12    1    4    4    0    0  1.75273207192E+01  1.29776227064E+01 -9.24250430243E+01  9.49632258284E+01  1.34869915235E-06  0.00000000000E+00  1.
      -11    1    4    4    0    0 -8.03253092805E+00 -1.46913569005E+01 -1.31975781411E+02  1.33033696483E+02  5.10998597706E-04  0.00000000000E+00  1.
        3    1    5    5  804    0 -4.51182581583E+01  9.65992433644E-01 -3.54587956643E+02  3.57448191151E+02  5.39479660939E-06  0.00000000000E+00  1.
       -4    1    5    5    0  804  3.56234683672E+01  7.47741760409E-01 -3.76840980362E+02  3.78523897160E+02  1.27500000002E+00  0.00000000000E+00  1.
</event>
<event>
 9   2   1.0000000E+00   6.2502773E+01   7.8125000E-03   1.3828835E-01
       -1   -1    0    0    0  502  0.00000000000E+00  0.00000000000E+00  6.74156465466E+00  6.74156465466E+00  0.00000000000E+00  0.00000000000E+00  1.
        1   -1    0    0  502    0  0.00000000000E+00  0.00000000000E+00 -5.79479222491E+02  5.79479222491E+02  0.00000000000E+00  0.00000000000E+00  1.
       39    2    1    2    0    0 -4.44089209850E-16  1.42108547152E-14 -5.72737657836E+02  5.86220787146E+02  1.25005546188E+02  0.00000000000E+00  1.
      -24    2    3    3    0    0 -2.65480696669E+00  1.40742255034E+01 -2.55298493452E+02  2.58591606221E+02  3.85637942325E+01  0.00000000000E+00  1.
       24    2    3    3    0    0  2.65480696669E+00 -1.40742255034E+01 -3.17439164385E+02  3.27629180925E+02  7.98005343636E+01  0.00000000000E+00  1.
       13    1    4    4    0    0 -4.09336196910E+00 -7.26158486919E+00 -1.83177859503E+02  1.83367460590E+02  1.05660000021E-01  0.00000000000E+00  1.
      -14    1    4    4    0    0  1.43855500241E+00  2.13358103726E+01 -7.21206339487E+01  7.52241457310E+01  0.00000000000E+00  0.00000000000E+00  1.
       16    1    5    5    0    0  2.40793549840E+01 -3.76031971350E+01 -2.35777479271E+02  2.39968405217E+02  0.00000000000E+00  0.00000000000E+00  1.
      -15    1    5    5    0    0 -2.14245480174E+01  2.35289716315E+01 -8.16616851139E+01  8.76607757077E+01  1.77680000000E+00  0.00000000000E+00  1.
</event>
<event>
 9   2   1.0000000E+00   6.2510685E+01   7.8125000E-03   1.3828540E-01
       -1   -1    0    0    0  502  0.00000000000E+00  0.00000000000E+00  5.79196900886E+01  5.79196900886E+01  0.00000000000E+00  0.00000000000E+00  1.
        1   -1    0    0  502    0  0.00000000000E+00  0.00000000000E+00 -6.74655836988E+01  6.74655836988E+01  0.00000000000E+00  0.00000000000E+00  1.
       39    2    1    2    0    0  0.00000000000E+00  3.55271367880E-15 -9.54589361016E+00  1.25385273787E+02  1.25021369365E+02  0.00000000000E+00  1.
      -24    2    3    3    0    0  4.51625048755E+00 -1.59288209647E+01  2.25810438418E+01  8.62977360340E+01  8.16288665106E+01  0.00000000000E+00  1.
       24    2    3    3    0    0 -4.51625048755E+00  1.59288209647E+01 -3.21269374520E+01  3.90875377534E+01  1.48852827244E+01  0.00000000000E+00  1.
       13    1    4    4    0    0  4.86316477058E+00 -4.73674275091E+01  2.66953479846E+01  5.45891594410E+01  1.05659999995E-01  0.00000000000E+00  1.
      -14    1    4    4    0    0 -3.46914283030E-01  3.14386065444E+01 -4.11430414280E+00  3.17085766930E+01  1.55201155738E-06  0.00000000000E+00  1.
       14    1    5    5    0    0 -4.96731335989E+00  2.25439082673E+00 -2.02421114983E+01  2.09642447497E+01  0.00000000000E+00  0.00000000000E+00  1.
      -13    1    5    5    0    0  4.51062872337E-01  1.36744301380E+01 -1.18848259537E+01  1.81232930037E+01  1.05660000000E-01  0.00000000000E+00  1.
</event>
<event>
 9   2   1.0000000E+00   6.2498581E+01   7.8125000E-03   1.3828992E-01
       -2   -1    0    0    0  502  0.00000000000E+00  0.00000000000E+00  3.59625737816E+00  3.59625737816E+00  0.00000000000E+00  0.00000000000E+00  1.
        2   -1    0    0  502    0  0.00000000000E+00  0.00000000000E+00 -1.08614936386E+03  1.08614936386E+03  0.00000000000E+00  0.00000000000E+00  1.
       39    2    1    2    0    0  4.44089209850E-15  1.77635683940E-15 -1.08255310649E+03  1.08974562124E+03  1.24997162585E+02  0.00000000000E+00  1.
      -24    2    3    3    0    0 -2.93850520297E+00 -1.15051604013E+01 -1.00208587351E+03  1.00549625581E+03  8.18878442110E+01  0.00000000000E+00  1.
       24    2    3    3    0    0  2.93850520297E+00  1.15051604013E+01 -8.04672329725E+01  8.42493654296E+01  2.19539623836E+01  0.00000000000E+00  1.
        1    1    4    4  803    0  2.86710430625E+01 -1.18827737623E+01 -1.69980031560E+02  1.72790162196E+02  4.26496119976E-06  0.00000000000E+00  1.
       -2    1    4    4    0  803 -3.16095482655E+01  3.77613361057E-01 -8.32105841953E+02  8.32706093716E+02  1.07895932188E-05  0.00000000000E+00  1.
        4    1    5    5  804    0  1.64839201499E+00 -5.14790489756E+00 -4.12658815613E+01  4.16379241450E+01  1.27500000000E+00  0.00000000000E+00  1.
       -3    1    5    5    0  804  1.29011318798E+00  1.66530652988E+01 -3.92013514112E+01  4.26114412846E+01  1.06624029994E-06  0.00000000000E+00  1.
</event>
<event>
 9   2   1.0000000E+00   6.2496945E+01   7.8125000E-03   1.3829053E-01
       -1   -1    0    0    0  502  0.00000000000E+00  0.00000000000E+00  1.13733180221E+02  1.13733180221E+02  0.00000000000E+00  0.00000000000E+00  1.
        1   -1    0    0  502    0  0.00000000000E+00  0.00000000000E+00 -3.43423805882E+01  3.43423805882E+01  0.00000000000E+00  0.00000000000E+00  1.
       39    2    1    2    0    0  0.00000000000E+00  0.00000000000E+00  7.93907996326E+01  1.48075560809E+02  1.24993890421E+02  0.00000000000E+00  1.
      -24    2    3    3    0    0  2.89726178044E+01 -5.19364204865E+00  6.66148365277E+00  3.53042758830E+01  1.83202082684E+01  0.00000000000E+00  1.
       24    2    3    3    0    0 -2.89726178044E+01  5.19364204865E+00  7.27293159799E+01  1.12771284926E+02  8.10026098394E+01  0.00000000000E+00  1.
       11    1    4    4    0    0  1.27523680461E+01 -1.54478896380E+00  1.22641524952E+01  1.77600309800E+01  5.11000071632E-04  0.00000000000E+00  1.
      -12    1    4    4    0    0  1.62202497583E+01 -3.64885308485E+00 -5.60266884243E+00  1.75442449030E+01  0.00000000000E+00  0.00000000000E+00  1.
       14    1    5    5    0    0  7.17659078985E+00  3.71264917311E+01  3.51338948153E+01  5.16165710651E+01  0.00000000000E+00  0.00000000000E+00  1.
      -13    1    5    5    0    0 -3.61492085942E+01 -3.19328496825E+01  3.75954211646E+01  6.11547138609E+01  1.05660000010E-01  0.00000000000E+00  1.
</event>
<event>
 9   2   1.0000000E+00   6.2499209E+01   7.8125000E-03   1.3828968E-01
        1   -1    0    0  501    0  0.00000000000E+00  0.00000000000E+00  2.51599541669E+02  2.51599541669E+02  0.00000000000E+00  0.00000000000E+00  1.
       -1   -1    0    0    0  501  0.00000000000E+00  0.00000000000E+00 -1.55252714764E+01  1.55252714764E+01  0.00000000000E+00  0.00000000000E+00  1.
       39    2    1    2    0    0 -1.77635683940E-15  3.55271367880E-15  2.36074270193E+02  2.67124813146E+02  1.24998418994E+02  0.00000000000E+00  1.
      -24    2    3    3    0    0 -9.29048431899E+00  1.65174025589E+01  5.19863746531E+01  6.40581697533E+01  3.22758156581E+01  0.00000000000E+00  1.
       24    2    3    3    0    0  9.29048431899E+00 -1.65174025589E+01  1.84087895540E+02  2.03066643393E+02  8.35976715480E+01  0.00000000000E+00  1.
        3    1    4    4  804    0 -1.22079002587E+01  1.82955556144E+01  5.50589802331E+01  5.92895563171E+01  0.00000000000E+00  0.00000000000E+00  1.
       -4    1    4    4    0  804  2.91741593969E+00 -1.77815305553E+00 -3.07260557999E+00  4.76861343623E+00  1.27500000000E+00  0.00000000000E+00  1.
       12    1    5    5    0    0  2.23081916213E+01  1.56402634561E+01  1.56190214851E+02  1.58548593501E+02  2.69739830470E-06  0.00000000000E+00  1.
      -11    1    5    5    0    0 -1.30177073023E+01 -3.21576660150E+01  2.78976806893E+01  4.45180499915E+01  5.11001934892E-04  0.00000000000E+00  1.
</event>
<event>
 9   2   1.0000000E+00   6.2495461E+01   7.8125000E-03   1.3829108E-01
       -2   -1    0    0    0  502  0.00000000000E+00  0.00000000000E+00  1.20170161456E+02  1.20170161456E+02  0.00000000000E+00  0.00000000000E+00  1.
        2   -1    0    0  502    0  0.00000000000E+00  0.00000000000E+00 -3.25012685368E+01  3.25012685368E+01  0.00000000000E+00  0.00000000000E+00  1.
       39    2    1    2    0    0  1.77635683940E-15  0.00000000000E+00  8.76688929196E+01  1.52671429993E+02  1.24990922672E+02  0.00000000000E+00  1.
      -24    2    3    3    0    0 -4.63710234573E+00 -1.67879458003E+01  9.03023108159E+01  1.23144563197E+02  8.18946778729E+01  0.00000000000E+00  1.
       24    2    3    3    0    0  4.63710234573E+00  1.67879458003E+01 -2.63341789639E+00  2.95268667962E+01  2.36973232797E+01  0.00000000000E+00  1.
        1    1    4    4  804    0 -1.74974857451E+01 -4.72416024670E+01  4.94445977650E+01  7.05882374997E+01  1.90734863281E-06  0.00000000000E+00  1.
       -2    1    4    4    0  804  1.28603833993E+01  3.04536566668E+01  4.08577130509E+01  5.25563258972E+01  1.71926082395E-06  0.00000000000E+00  1.
        4    1    5    5  803    0 -8.50820234135E+00  1.03117533352E+01 -5.64338366267E+00  1.45669203365E+01  1.27500000000E+00  0.00000000000E+00  1.
       -3    1    5    5    0  803  1.31453046871E+01  6.47619246508E+00  3.00996576628E+00  1.49599465596E+01  0.00000000000E+00  0.00000000000E+00  1.
</event>
<event>
 9   2   1.0000000E+00   6.2495833E+01   7.8125000E-03   1.3829094E-01
        3   -1    0    0  501    0  0.00000000000E+00  0.00000000000E+00  2.09447397777E+01  2.09447397777E+01  0.00000000000E+00  0.00000000000E+00  1.
       -3   -1    0    0    0  501  0.00000000000E+00  0.00000000000E+00 -1.86477807388E+02  1.86477807388E+02  0.00000000000E+00  0.00000000000E+00  1.
       39    2    1    2    0    0  7.10542735760E-15 -1.77635683940E-15 -1.65533067610E+02  2.07422547166E+02  1.24991666123E+02  0.00000000000E+00  1.
      -24    2    3    3    0    0  1.45475999021E+01 -1.20063952642E+01 -1.25206046617E+01  3.43153747216E+01  2.57874622838E+01  0.00000000000E+00  1.
       24    2    3    3    0    0 -1.45475999021E+01  1.20063952642E+01 -1.53012462949E+02  1.73107172444E+02  7.87241585783E+01  0.00000000000E+00  1.
        1    1    4    4  803    0 -1.26333626999E+00 -1.45511367157E+01 -1.10281902037E+00  1.46474506646E+01  0.00000000000E+00  0.00000000000E+00  1.
       -2    1    4    4    0  803  1.58109361721E+01  2.54474145153E+00 -1.14177856413E+01  1.96679242570E+01  0.00000000000E+00  0.00000000000E+00  1.
        4    1    5    5  804    0  2.31719792635E+01 -1.18169341540E+01 -2.00700094052E+01  3.28787386971E+01  1.27500000000E+00  0.00000000000E+00  1.
       -3    1    5    5    0  804 -3.77195791656E+01  2.38233294182E+01 -1.32942453544E+02  1.40228433747E+02  4.26496119976E-06  0.00000000000E+00  1.
</event>
<event>
 9   2   1.0000000E+00   6.2488799E+01   7.8125000E-03   1.3829357E-01
        2   -1    0    0  501    0  0.00000000000E+00  0.00000000000E+00  3.25927467081E+01  3.25927467081E+01  0.00000000000E+00  0.00000000000E+00  1.
       -2   -1    0    0    0  501  0.00000000000E+00  0.00000000000E+00 -1.19807331427E+02  1.19807331427E+02  0.00000000000E+00  0.00000000000E+00  1.
       39    2    1    2    0    0 -3.55271367880E-15 -6.66133814775E-16 -8.72145847192E+01  1.52400078135E+02  1.24977598104E+02  0.00000000000E+00  1.
       24    2    3    3    0    0 -3.56538353646E-01  1.72065871863E-01 -4.39481121495E+01  5.97080488517E+01  4.04160588122E+01  0.00000000000E+00  1.
      -24    2    3    3    0    0  3.56538353646E-01 -1.72065871863E-01 -4.32664725698E+01  9.26920292837E+01  8.19735806089E+01  0.00000000000E+00  1.
       16    1    4    4    0    0  1.73789081723E+01 -8.05011414131E+00 -1.33185014812E+01  2.33283790404E+01  0.00000000000E+00  0.00000000000E+00  1.
      -15    1    4    4    0    0 -1.77354465260E+01  8.22218001317E+00 -3.06296106683E+01  3.63796698113E+01  1.77680000000E+00  0.00000000000E+00  1.
       13    1    5    5    0    0  3.36586158705E+01 -1.34790603549E+00 -4.84077505948E+01  5.89749163178E+01  1.05659999993E-01  0.00000000000E+00  1.
      -14    1    5    5    0    0 -3.33020775169E+01  1.17584016363E+00  5.14127802509E+00  3.37171130660E+01  1.21130951839E-06  0.00000000000E+00  1.
</event>
<event>
 9   2   1.0000000E+00   6.2496150E+01   7.8125000E-03   1.3829082E-01
       -1   -1    0    0    0  502  0.00000000000E+00  0.00000000000E+00  2.42840914307E+02  2.42840914307E+02  0.00000000000E+00  0.00000000000E+00  1.
        1   -1    0    0  502    0  0.00000000000E+00  0.00000000000E+00 -1.60836517948E+01  1.60836517948E+01  0.00000000000E+00  0.00000000000E+00  1.
       39    2    1    2    0    0  1.06581410364E-14  5.32907051820E-15  2.26757262512E+02  2.58924566101E+02  1.24992299079E+02  0.00000000000E+00  1.
      -24    2    3    3    0    0 -1.78730027702E+01  1.10587930008E+01  1.23372344036E+02  1.44270197251E+02  7.17733474988E+01  0.00000000000E+00  1.
       24    2    3    3    0    0  1.78730027702E+01 -1.10587930008E+01  1.03384918476E+02  1.14654368850E+02  4.48936721333E+01  0.00000000000E+00  1.
        1    1    4    4  803    0 -3.26573855439E+01  2.66461311930E+01  3.97633548747E+01  5.79451942839E+01  0.00000000000E+00  0.00000000000E+00  1.
       -2    1    4    4    0  803  1.47843827737E+01 -1.55873381922E+01  8.36089891615E+01  8.63250031670E+01  0.00000000000E+00  0.00000000000E+00  1.
       14    1    5    5    0    0 -9.75705854586E+00 -1.26402708449E+01  6.73562762587E+01  6.92231506790E+01  0.00000000000E+00  0.00000000000E+00  1.
      -13    1    5    5    0    0  2.76300613161E+01  1.58147784403E+00  3.60286422171E+01  4.54312181715E+01  1.05659999998E-01  0.00000000000E+00  1.
</event>
<event>
 9   2   1.0000000E+00   6.2500542E+01   7.8125000E-03   1.3828918E-01
       -1   -1    0    0    0  502  0.00000000000E+00  0.00000000000E+00  3.94845591026E+00  3.94845591026E+00  0.00000000000E+00  0.00000000000E+00  1.
        1   -1    0    0  502    0  0.00000000000E+00  0.00000000000E+00 -9.89327954591E+02  9.89327954591E+02  0.00000000000E+00  0.00000000000E+00  1.
       39    2    1    2    0    0 -1.77635683940E-15 -7.10542735760E-15 -9.85379498681E+02  9.93276410501E+02  1.25001084947E+02  0.00000000000E+00  1.
      -24    2    3    3    0    0  1.28386649447E+01  2.38972986314E+01 -4.71449749216E+02  4.73300959513E+02  3.18279757614E+01  0.00000000000E+00  1.
       24    2    3    3    0    0 -1.28386649447E+01 -2.38972986314E+01 -5.13929749465E+02  5.19975450988E+02  7.42614977337E+01  0.00000000000E+00  1.
        1    1    4    4  803    0  1.65879975995E+01  1.64026847142E+01 -4.43714920648E+02  4.44327740002E+02  7.62939453125E-06  0.00000000000E+00  1.
       -2    1    4    4    0  803 -3.74933265478E+00  7.49461391723E+00 -2.77348285681E+01  2.89732196109E+01  2.54561382581E-06  0.00000000000E+00  1.
        4    1    5    5  804    0 -3.74555675257E+00 -9.15099860751E+00 -4.91657600693E+02  4.91758672435E+02  1.27500000001E+00  0.00000000000E+00  1.
       -3    1    5    5    0  804 -9.09310819211E+00 -1.47463000239E+01 -2.22721487721E+01  2.82167785531E+01  8.78597534785E-06  0.00000000000E+00  1.
</event>
<event>
 9   2   1.0000000E+00   6.2499232E+01   7.8125000E-03   1.3828967E-01
       -2   -1    0    0    0  502  0.00000000000E+00  0.00000000000E+00  2.55052888710E+01  2.55052888710E+01  0.00000000000E+00  0.00000000000E+00  1.
        2   -1    0    0  502    0  0.00000000000E+00  0.00000000000E+00 -1.53150746965E+02  1.53150746965E+02  0.00000000000E+00  0.00000000000E+00  1.
       39    2    1    2    0    0 -4.44089209850E-15 -3.55271367880E-15 -1.27645458094E+02  1.78656035836E+02  1.24998464665E+02  0.00000000000E+00  1.
      -24    2    3    3    0    0 -6.89808470510E+00 -2.15234993411E+01 -6.84499337260E+00  3.20808962474E+01  2.17137139449E+01  0.00000000000E+00  1.
       24    2    3    3    0    0  6.89808470510E+00  2.15234993411E+01 -1.20800464721E+02  1.46575139588E+02  7.98791253834E+01  0.00000000000E+00  1.
        3    1    4    4  803    0 -1.93760086113E+00 -1.02031345536E+01 -1.42375895018E+01  1.76229171865E+01  0.00000000000E+00  0.00000000000E+00  1.
       -4    1    4    4    0  803 -4.96048384397E+00 -1.13203647875E+01  7.39259612919E+00  1.44579791609E+01  1.27500000000E+00  0.00000000000E+00  1.
        4    1    5    5  804    0 -2.84826772040E+01 -1.30791563634E+01 -6.37612761809E+01  7.10595046218E+01  1.27500000000E+00  0.00000000000E+00  1.
       -3    1    5    5    0  804  3.53807619091E+01  3.46026557045E+01 -5.70391885402E+01  7.55156349665E+01  0.00000000000E+00  0.00000000000E+00  1.
</event>
<event>
 9   2   1.0000000E+00   6.2499582E+01   7.8125000E-03   1.3828954E-01
       -1   -1    0    0    0  502  0.00000000000E+00  0.00000000000E+00  1.77945694484E+01  1.77945694484E+01  0.00000000000E+00  0.00000000000E+00  1.
        1   -1    0    0  502    0  0.00000000000E+00  0.00000000000E+00 -2.19516285143E+02  2.19516285143E+02  0.00000000000E+00  0.00000000000E+00  1.
       39    2    1    2    0    0  1.77635683940E-15  0.00000000000E+00 -2.01721715694E+02  2.37310854591E+02  1.24999164494E+02  0.00000000000E+00  1.
      -24    2    3    3    0    0  1.58910251303E+01 -1.60706937429E+01 -1.35799634926E+02  1.59635974489E+02  8.08165306596E+01  0.00000000000E+00  1.
       24    2    3    3    0    0 -1.58910251303E+01  1.60706937429E+01 -6.59220807684E+01  7.76748801025E+01  3.43056028811E+01  0.00000000000E+00  1.
        1    1    4    4  803    0 -3.27546886866E+01 -3.12405588766E+00 -4.40237292464E+01  5.49610598869E+01  1.34869915235E-06  0.00000000000E+00  1.
       -2    1    4    4    0  803  4.86457138169E+01 -1.29466378552E+01 -9.17759056795E+01  1.04674914802E+02  1.90734863281E-06  0.00000000000E+00  1.
       14    1    5    5    0    0 -5.24187232739E+00  2.40017179077E+01 -2.67798634723E+01  3.63417223433E+01  0.00000000000E+00  0.00000000000E+00  1.
      -13    1    5    5    0    0 -1.06491528029E+01 -7.93102416480E+00 -3.91422172961E+01  4.13331578592E+01  1.05659999998E-01  0.00000000000E+00  1.
</event>
<event>
 9   2   1.0000000E+00   6.2500471E+01   7.8125000E-03   1.3828921E-01
       -1   -1    0    0    0  502  0.00000000000E+00  0.00000000000E+00  4.84783674188E+02  4.84783674188E+02  0.00000000000E+00  0.00000000000E+00  1.
        1   -1    0    0  502    0  0.00000000000E+00  0.00000000000E+00 -8.05783909661E+00  8.05783909661E+00  0.00000000000E+00  0.00000000000E+00  1.
       39    2    1    2    0    0  0.00000000000E+00 -3.55271367880E-15  4.76725835092E+02  4.92841513285E+02  1.25000941489E+02  0.00000000000E+00  1.
       24    2    3    3    0    0 -9.33838276160E+00 -1.40235867428E+01  3.29344091440E+02  3.39023412976E+02  7.86478073546E+01  0.00000000000E+00  1.
      -24    2    3    3    0    0  9.33838276160E+00  1.40235867428E+01  1.47381743652E+02  1.53818100309E+02  4.06787812393E+01  0.00000000000E+00  1.
        2    1    4    4  804    0  5.98060139303E+00 -2.44546972725E+00  3.14972323699E+02  3.15038589084E+02  0.00000000000E+00  0.00000000000E+00  1.
       -1    1    4    4    0  804 -1.53189841546E+01 -1.15781170155E+01  1.43717677406E+01  2.39848238923E+01  5.59649209705E-06  0.00000000000E+00  1.
        1    1    5    5  803    0  2.10204936162E+01  6.08389610254E+00  1.27877857247E+02  1.29736738604E+02  3.30362473978E-06  0.00000000000E+00  1.
       -2    1    5    5    0  803 -1.16821108546E+01  7.93969064025E+00  1.95038864050E+01  2.40813618050E+01  1.21570098724E-06  0.00000000000E+00  1.
</event>
<event>
 9   2   1.0000000E+00   6.2490350E+01   7.8125000E-03   1.3829299E-01
       -2   -1    0    0    0  502  0.00000000000E+00  0.00000000000E+00  2.16808955619E+00  2.16808955619E+00  0.00000000000E+00  0.00000000000E+00  1.
        2   -1    0    0  502    0  0.00000000000E+00  0.00000000000E+00 -1.80114506878E+03  1.80114506878E+03  0.00000000000E+00  0.00000000000E+00  1.
       39    2    1    2    0    0  1.06581410364E-14 -1.44328993201E-15 -1.79897697922E+03  1.80331315834E+03  1.24980699515E+02  0.00000000000E+00  1.
       24    2    3    3    0    0  2.05909610456E+01 -5.96919072721E-01 -8.22766454228E+02  8.23700895203E+02  3.33793733531E+01  0.00000000000E+00  1.
      -24    2    3    3    0    0 -2.05909610456E+01  5.96919072721E-01 -9.76210524996E+02  9.79612263134E+02  7.89230826817E+01  0.00000000000E+00  1.
       14    1    4    4    0    0 -9.09629545634E+00 -9.18765427142E-01 -2.47537810082E+02  2.47706588912E+02  3.81469726562E-06  0.00000000000E+00  1.
      -13    1    4    4    0    0  2.96872565020E+01  3.21846354421E-01 -5.75228644147E+02  5.75994306391E+02  1.05660000228E-01  0.00000000000E+00  1.
        1    1    5    5  804    0  2.90033890726E+01 -9.65506771859E+00 -3.25085512958E+02  3.26519536492E+02  5.39479660939E-06  0.00000000000E+00  1.
       -4    1    5    5    0  804 -4.95943501182E+01  1.02519867913E+01 -6.51125012038E+02  6.53092726742E+02  1.27499999999E+00  0.00000000000E+00  1.
</event>
<event>
 9   2   1.0000000E+00   6.2501429E+01   7.8125000E-03   1.3828885E-01
       -1   -1    0    0    0  502  0.00000000000E+00  0.00000000000E+00  6.78634037096E+00  6.78634037096E+00  0.00000000000E+00  0.00000000000E+00  1.
        1   -1    0    0  502    0  0.00000000000E+00  0.00000000000E+00 -5.75631101851E+02  5.75631101851E+02  0.00000000000E+00  0.00000000000E+00  1.
       39    2    1    2    0    0  0.00000000000E+00  3.55271367880E-15 -5.68844761480E+02  5.82417442222E+02  1.25002857332E+02  0.00000000000E+00  1.
       24    2    3    3    0    0 -1.01005549499E+01 -2.06400427697E+01 -2.98933993621E+02  3.10619223191E+02  8.12079841997E+01  0.00000000000E+00  1.
      -24    2    3    3    0    0  1.01005549499E+01  2.06400427697E+01 -2.69910767859E+02  2.71798219031E+02  2.22354825962E+01  0.00000000000E+00  1.
       16    1    4    4    0    0  1.67510615494E+01 -2.36169459605E+01 -3.55591079395E+01  4.58563884988E+01  2.38418579102E-06  0.00000000000E+00  1.
      -15    1    4    4    0    0 -2.68516164993E+01  2.97690319076E+00 -2.63374885682E+02  2.64762834792E+02  1.77680000000E+00  0.00000000000E+00  1.
       11    1    5    5    0    0 -3.46417593576E+00  4.91711066910E+00 -1.48695849623E+02  1.48817452564E+02  5.10991478305E-04  0.00000000000E+00  1.
      -12    1    5    5    0    0  1.35647308857E+01  1.57229321006E+01 -1.21214918236E+02  1.22980766467E+02  2.33601545599E-06  0.00000000000E+00  1.
</event>
<event>
 9   2   1.0000000E+00   6.2500882E+01   7.8125000E-03   1.3828906E-01
        3   -1    0    0  501    0  0.00000000000E+00  0.00000000000E+00  9.97525336032E+02  9.97525336032E+02  0.00000000000E+00  0.00000000000E+00  1.
       -3   -1    0    0    0  501  0.00000000000E+00  0.00000000000E+00 -3.91605118813E+00  3.91605118813E+00  0.00000000000E+00  0.00000000000E+00  1.
       39    2    1    2    0    0  1.77635683940E-15  1.77635683940E-15  9.93609284843E+02  1.00144138722E+03  1.25001764425E+02  0.00000000000E+00  1.
       24    2    3    3    0    0 -5.55414607093E+00  7.88469411072E+00  6.18197071301E+02  6.23584951347E+02  8.12253386691E+01  0.00000000000E+00  1.
      -24    2    3    3    0    0  5.55414607093E+00 -7.88469411072E+00  3.75412213543E+02  3.77856435873E+02  4.18107535634E+01  0.00000000000E+00  1.
       12    1    4    4    0    0  6.46622138856E+00  3.89937562086E+01  1.88715606506E+02  1.92810542294E+02  3.81469726562E-06  0.00000000000E+00  1.
      -11    1    4    4    0    0 -1.20203674595E+01 -3.11090620979E+01  4.29481464795E+02  4.30774409153E+02  5.10941639717E-04  0.00000000000E+00  1.
        1    1    5    5  803    0  1.48219690737E+01 -1.47860225315E+01  9.83641227441E+01  1.00567479300E+02  3.81469726562E-06  0.00000000000E+00  1.
       -2    1    5    5    0  803 -9.26782300272E+00  6.90132842077E+00  2.77048090799E+02  2.77288956772E+02  3.81469726562E-06  0.00000000000E+00  1.
</event>
<event>
 9   2   1.0000000E+00   6.2499703E+01   7.8125000E-03   1.3828950E-01
        2   -1    0    0  501    0  0.00000000000E+00  0.00000000000E+00  1.69170098312E+02  1.69170098312E+02  0.00000000000E+00  0.00000000000E+00  1.
       -2   -1    0    0    0  501  0.00000000000E+00  0.00000000000E+00 -2.30904455012E+01  2.30904455012E+01  0.00000000000E+00  0.00000000000E+00  1.
       39    2    1    2    0    0  0.00000000000E+00  0.00000000000E+00  1.46079652811E+02  1.92260543813E+02  1.24999406967E+02  0.00000000000E+00  1.
       24    2    3    3    0    0  1.13932120786E+01 -6.12540271213E-02  8.58410844949E+01  1.16627886913E+02  7.81253043838E+01  0.00000000000E+00  1.
      -24    2    3    3    0    0 -1.13932120786E+01  6.12540271213E-02  6.02385683161E+01  7.56326569002E+01  4.42922639237E+01  0.00000000000E+00  1.
       12    1    4    4    0    0  3.32971781848E-01 -2.16885319068E+01 -5.28006831169E+00  2.23244800131E+01  2.09041570625E-06  0.00000000000E+00  1.
      -11    1    4    4    0    0  1.10602402968E+01  2.16272778797E+01  9.11211528066E+01  9.43034069001E+01  5.11002157370E-04  0.00000000000E+00  1.
        3    1    5    5  804    0 -4.58999166359E+00  1.37100918010E+01  5.84655410325E+01  6.02266896063E+01  0.00000000000E+00  0.00000000000E+00  1.
       -4    1    5    5    0  804 -6.80322041505E+00 -1.36488377739E+01  1.77302728363E+00  1.54059673939E+01  1.27500000000E+00  0.00000000000E+00  1.
</event>
<event>
 9   2   1.0000000E+00   6.2511443E+01   7.8125000E-03   1.3828511E-01
       -1   -1    0    0    0  502  0.00000000000E+00  0.00000000000E+00  3.19940349461E+01  3.19940349461E+01  0.00000000000E+00  0.00000000000E+00  1.
        1   -1    0    0  502    0  0.00000000000E+00  0.00000000000E+00 -1.22137784773E+02  1.22137784773E+02  0.00000000000E+00  0.00000000000E+00  1.
       39    2    1    2    0    0  1.77635683940E-15 -5.32907051820E-15 -9.01437498271E+01  1.54131819719E+02  1.25022886773E+02  0.00000000000E+00  1.
      -24    2    3    3    0    0  4.99077476272E+00 -8.22708721721E+00 -5.74916246593E+01  1.00719232629E+02  8.21369838664E+01  0.00000000000E+00  1.
       24    2    3    3    0    0 -4.99077476272E+00  8.22708721721E+00 -3.26521251678E+01  5.34125870898E+01  4.11600581249E+01  0.00000000000E+00  1.
        3    1    4    4  803    0  6.77007417990E+00 -3.75303507422E+01 -2.31562568730E+00  3.82063248848E+01  0.00000000000E+00  0.00000000000E+00  1.
       -4    1    4    4    0  803 -1.77929941718E+00  2.93032635250E+01 -5.51759989720E+01  6.25129078446E+01  1.27500000000E+00  0.00000000000E+00  1.
       12    1    5    5    0    0  1.45424208980E+01 -4.27372774760E+00 -2.45403168442E+01  2.88439578638E+01  0.00000000000E+00  0.00000000000E+00  1.
      -11    1    5    5    0    0 -1.95331956607E+01  1.25008149648E+01 -8.11180832359E+00  2.45686292260E+01  5.11000419256E-04  0.00000000000E+00  1.
</event>
<event>
 9   2   1.0000000E+00   6.2500159E+01   7.8125000E-03   1.3828933E-01
       -1   -1    0    0    0  502  0.00000000000E+00  0.00000000000E+00  4.66284403208E+00  4.66284403208E+00  0.00000000000E+00  0.00000000000E+00  1.
        1   -1    0    0  502    0  0.00000000000E+00  0.00000000000E+00 -8.37744050552E+02  8.37744050552E+02  0.00000000000E+00  0.00000000000E+00  1.
       39    2    1    2    0    0  3.55271367880E-15  0.00000000000E+00 -8.33081206520E+02  8.42406894584E+02  1.25000317544E+02  0.00000000000E+00  1.
      -24    2    3    3    0    0 -1.06784229547E+01 -1.78851325480E+01 -4.22617986389E+02  4.24205787423E+02  3.01774912914E+01  0.00000000000E+00  1.
       24    2    3    3    0    0  1.06784229547E+01  1.78851325480E+01 -4.10463220130E+02  4.18201107160E+02  7.73188480735E+01  0.00000000000E+00  1.
        1    1    4    4  803    0 -1.28575833376E+00 -2.47775349043E+01 -2.65687160925E+02  2.66843112978E+02  6.60724947956E-06  0.00000000000E+00  1.
       -2    1    4    4    0  803 -9.39266462090E+00  6.89240235627E+00 -1.56930825465E+02  1.57362674545E+02  1.90734863281E-06  0.00000000000E+00  1.
        4    1    5    5  804    0 -9.84234624170E+00  1.65404470560E+00 -3.89058807833E+00  1.07874901634E+01  1.27499999998E+00  0.00000000000E+00  1.
       -3    1    5    5    0  804  2.05207691964E+01  1.62310878424E+01 -4.06572632052E+02  4.07413617097E+02  9.34406182397E-06  0.00000000000E+00  1.
</event>
<event>
 9   2   1.0000000E+00   6.2501440E+01   7.8125000E-03   1.3828885E-01
        1   -1    0    0  501    0  0.00000000000E+00  0.00000000000E+00  2.82645836174E+02  2.82645836174E+02  0.00000000000E+00  0.00000000000E+00  1.
       -1   -1    0    0    0  501  0.00000000000E+00  0.00000000000E+00 -1.38209357978E+01  1.38209357978E+01  0.00000000000E+00  0.00000000000E+00  1.
       39    2    1    2    0    0 -3.55271367880E-15 -1.77635683940E-15  2.68824900377E+02  2.96466771972E+02  1.25002879252E+02  0.00000000000E+00  1.
       24    2    3    3    0    0  1.65390801512E+01 -8.59649258685E+00  9.68473396327E+01  1.08630667878E+02  4.55387082890E+01  0.00000000000E+00  1.
      -24    2    3    3    0    0 -1.65390801512E+01  8.59649258685E+00  1.71977560744E+02  1.87836104094E+02  7.32030036602E+01  0.00000000000E+00  1.
       14    1    4    4    0    0  2.69063002420E+01  8.21125323033E+00  4.41086319277E+01  5.23158205790E+01  0.00000000000E+00  0.00000000000E+00  1.
      -13    1    4    4    0    0 -1.03672200908E+01 -1.68077458172E+01  5.27387077050E+01  5.63148472989E+01  1.05659999997E-01  0.00000000000E+00  1.
       11    1    5    5    0    0  1.87759314532E+01  1.50445371927E+01  1.31711268889E+02  1.33890746707E+02  5.10998597706E-04  0.00000000000E+00  1.
      -12    1    5    5    0    0 -3.53150116044E+01 -6.44804460580E+00  4.02662918549E+01  5.39453573869E+01  0.00000000000E+00  0.00000000000E+00  1.
</event>
<event>
 9   2   1.0000000E+00   6.2500327E+01   7.8125000E-03   1.3828926E-01
       -1   -1    0    0    0  502  0.00000000000E+00  0.00000000000E+00  9.98534945319E+02  9.98534945319E+02  0.00000000000E+00  0.00000000000E+00  1.
        1   -1    0    0  502    0  0.00000000000E+00  0.00000000000E+00 -3.91202215177E+00  3.91202215177E+00  0.00000000000E+00  0.00000000000E+00  1.
       39    2    1    2    0    0 -1.77635683940E-15  8.88178419700E-16  9.94622923167E+02  1.00244696747E+03  1.25000653205E+02  0.00000000000E+00  1.
       24    2    3    3    0    0  1.51394869964E+00  4.42134404390E+00  6.66264857859E+02  6.71189123939E+02  8.10193739332E+01  0.00000000000E+00  1.
      -24    2    3    3    0    0 -1.51394869964E+00 -4.42134404390E+00  3.28358065308E+02  3.31257843531E+02  4.34844745216E+01  0.00000000000E+00  1.
       12    1    4    4    0    0 -1.76531058209E+01 -3.14884416823E+01  2.07017679102E+02  2.10141556117E+02  3.81469726562E-06  0.00000000000E+00  1.
      -11    1    4    4    0    0  1.91670545205E+01  3.59097857262E+01  4.59247178758E+02  4.61047567922E+02  5.11027074320E-04  0.00000000000E+00  1.
       13    1    5    5    0    0  1.14097530444E+01  1.51554030311E-01  2.94620505978E+02  2.94841413543E+02  1.05659999883E-01  0.00000000000E+00  1.
      -14    1    5    5    0    0 -1.29237017440E+01 -4.57289807421E+00  3.37375593299E+01  3.64164300885E+01  3.81469726562E-06  0.00000000000E+00  1.
</event>
<event>
 9   2   1.0000000E+00   6.2495479E+01   7.8125000E-03   1.3829107E-01
       -1   -1    0    0    0  502  0.00000000000E+00  0.00000000000E+00  1.52464120573E+03  1.52464120573E+03  0.00000000000E+00  0.00000000000E+00  1.
        1   -1    0    0  502    0  0.00000000000E+00  0.00000000000E+00 -2.56170758564E+00  2.56170758564E+00  0.00000000000E+00  0.00000000000E+00  1.
       39    2    1    2    0    0  3.55271367880E-15  1.77635683940E-15  1.52207949814E+03  1.52720291331E+03  1.24990958747E+02  0.00000000000E+00  1.
       24    2    3    3    0    0 -1.83268402408E+01 -2.93768789703E+00  4.72690302109E+02  4.74731600613E+02  3.98681305058E+01  0.00000000000E+00  1.
      -24    2    3    3    0    0  1.83268402408E+01  2.93768789703E+00  1.04938919603E+03  1.05247131270E+03  7.83177899411E+01  0.00000000000E+00  1.
       14    1    4    4    0    0 -1.45141854585E+01  1.08091817307E+01  9.13917802137E+01  9.31662894961E+01  5.87884331033E-06  0.00000000000E+00  1.
      -13    1    4    4    0    0 -3.81265478225E+00 -1.37468696278E+01  3.81298521895E+02  3.81565311217E+02  1.05660000090E-01  0.00000000000E+00  1.
       15    1    5    5    0    0 -9.88096320353E+00  1.21446160746E+01  4.56366720495E+01  4.82803064139E+01  1.77680000008E+00  0.00000000000E+00  1.
      -16    1    5    5    0    0  2.82078034443E+01 -9.20692817753E+00  1.00375252399E+03  1.00419100629E+03  2.41262638868E-05  0.00000000000E+00  1.
</event>
<event>
 9   2   1.0000000E+00   6.2499473E+01   7.8125000E-03   1.3828958E-01
       -3   -1    0    0    0  502  0.00000000000E+00  0.00000000000E+00  2.37454830585E+02  2.37454830585E+02  0.00000000000E+00  0.00000000000E+00  1.
        3   -1    0    0  502    0  0.00000000000E+00  0.00000000000E+00 -1.64502196474E+01  1.64502196474E+01  0.00000000000E+00  0.00000000000E+00  1.
       39    2    1    2    0    0 -3.55271367880E-15  3.55271367880E-15  2.21004610937E+02  2.53905050232E+02  1.24998945907E+02  0.00000000000E+00  1.
      -24    2    3    3    0    0  2.55981111068E+01 -1.08349207941E+01  6.22932640666E+01  7.38417020698E+01  2.82752084989E+01  0.00000000000E+00  1.
       24    2    3    3    0    0 -2.55981111068E+01  1.08349207941E+01  1.58711346871E+02  1.80063348162E+02  8.03794683050E+01  0.00000000000E+00  1.
        1    1    4    4  804    0 -2.93980599102E+00 -7.48929047046E-01  2.77434425356E+01  2.79088150539E+01  0.00000000000E+00  0.00000000000E+00  1.
       -2    1    4    4    0  804  2.85379170978E+01 -1.00859917471E+01  3.45498215309E+01  4.59328870160E+01  0.00000000000E+00  0.00000000000E+00  1.
       12    1    5    5    0    0 -5.53562751360E+00  2.13017337951E+01  2.41948427155E+00  2.21418369431E+01  2.04792053015E-06  0.00000000000E+00  1.
      -11    1    5    5    0    0 -2.00624835932E+01 -1.04668130009E+01  1.56291862599E+02  1.57921511319E+02  5.10995038018E-04  0.00000000000E+00  1.
</event>
<event>
 9   2   1.0000000E+00   6.2499986E+01   7.8125000E-03   1.3828939E-01
       -2   -1    0    0    0  502  0.00000000000E+00  0.00000000000E+00  4.11838567006E+01  4.11838567006E+01  0.00000000000E+00  0.00000000000E+00  1.
        2   -1    0    0  502    0  0.00000000000E+00  0.00000000000E+00 -9.48490147606E+01  9.48490147606E+01  0.00000000000E+00  0.00000000000E+00  1.
       39    2    1    2    0    0  7.10542735760E-15  1.77635683940E-15 -5.36651580600E+01  1.36032871461E+02  1.24999971713E+02  0.00000000000E+00  1.
       24    2    3    3    0    0  6.21142370952E+00 -6.24633387670E+00 -3.92070402939E+01  9.03929157331E+01  8.09696778722E+01  0.00000000000E+00  1.
      -24    2    3    3    0    0 -6.21142370952E+00  6.24633387670E+00 -1.44581177661E+01  4.56399557280E+01  4.23836043549E+01  0.00000000000E+00  1.
       12    1    4    4    0    0  2.92490113129E+01  1.15050083838E+01  1.02148601928E+01  3.30486497372E+01  1.21570098724E-06  0.00000000000E+00  1.
      -11    1    4    4    0    0 -2.30375876034E+01 -1.77513422605E+01 -4.94219004866E+01  5.73442659959E+01  5.10999932583E-04  0.00000000000E+00  1.
       13    1    5    5    0    0 -1.62778114201E+01  2.02693933218E+01 -7.84585559372E+00  2.71548165947E+01  1.05660000000E-01  0.00000000000E+00  1.
      -14    1    5    5    0    0  1.00663877106E+01 -1.40230594451E+01 -6.61226217241E+00  1.84851391333E+01  0.00000000000E+00  0.00000000000E+00  1.
</event>
<event>
 9   2   1.0000000E+00   6.2501806E+01   7.8125000E-03   1.3828871E-01
       -2   -1    0    0    0  502  0.00000000000E+00  0.00000000000E+00  1.39027066010E+01  1.39027066010E+01  0.00000000000E+00  0.00000000000E+00  1.
        2   -1    0    0  502    0  0.00000000000E+00  0.00000000000E+00 -2.80986703960E+02  2.80986703960E+02  0.00000000000E+00  0.00000000000E+00  1.
       39    2    1    2    0    0  3.55271367880E-15 -3.55271367880E-15 -2.67083997359E+02  2.94889410561E+02  1.25003611211E+02  0.00000000000E+00  1.
       24    2    3    3    0    0 -8.77444897601E+00  8.69814023055E+00 -1.52509438733E+02  1.54277192750E+02  1.97401798872E+01  0.00000000000E+00  1.
      -24    2    3    3    0    0  8.77444897601E+00 -8.69814023055E+00 -1.14574558626E+02  1.40612217811E+02  8.05718171262E+01  0.00000000000E+00  1.
       16    1    4    4    0    0 -1.39195445961E+01  7.24711882281E+00 -7.84752702486E+01  8.00290104249E+01  0.00000000000E+00  0.00000000000E+00  1.
      -15    1    4    4    0    0  5.14509562013E+00  1.45102140774E+00 -7.40341684843E+01  7.42481824253E+01  1.77680000000E+00  0.00000000000E+00  1.
       13    1    5    5    0    0 -1.81502424307E+01  1.72449261592E+01 -9.53256389763E+01  9.85586494875E+01  1.05660000012E-01  0.00000000000E+00  1.
      -14    1    5    5    0    0  2.69246914067E+01 -2.59430663898E+01 -1.92489196502E+01  4.20535683236E+01  1.28392334154E-06  0.00000000000E+00  1.
</event>
<event>
 9   2   1.0000000E+00   6.2500045E+01   7.8125000E-03   1.3828937E-01
        3   -1    0    0  501    0  0.00000000000E+00  0.00000000000E+00  1.20862685812E+03  1.20862685812E+03  0.00000000000E+00  0.00000000000E+00  1.
       -3   -1    0    0    0  501  0.00000000000E+00  0.00000000000E+00 -3.23197814088E+00  3.23197814088E+00  0.00000000000E+00  0.00000000000E+00  1.
       39    2    1    2    0    0 -5.32907051820E-15  0.00000000000E+00  1.20539487998E+03  1.21185883626E+03  1.25000089375E+02  0.00000000000E+00  1.
       24    2    3    3    0    0  1.38430649880E+01 -3.75958226720E+00  4.22407549805E+02  4.24424551418E+02  3.87594737713E+01  0.00000000000E+00  1.
      -24    2    3    3    0    0 -1.38430649880E+01  3.75958226720E+00  7.82987330173E+02  7.87434284842E+02  8.23275702648E+01  0.00000000000E+00  1.
       14    1    4    4    0    0 -1.23579747075E+00 -1.40276992830E+01  3.26125953706E+02  3.26429841296E+02  3.81469726562E-06  0.00000000000E+00  1.
      -13    1    4    4    0    0  1.50788624588E+01  1.02681170158E+01  9.62815960990E+01  9.79947102221E+01  1.05660000064E-01  0.00000000000E+00  1.
        1    1    5    5  803    0 -4.77665319249E+01 -5.31761304929E+00  4.14348886522E+02  4.17126981078E+02  5.39479660939E-06  0.00000000000E+00  1.
       -2    1    5    5    0  803  3.39234669369E+01  9.07719531648E+00  3.68638443651E+02  3.70307303864E+02  7.62939453125E-06  0.00000000000E+00  1.
</event>
<event>
 9   2   1.0000000E+00   6.2499964E+01   7.8125000E-03   1.3828940E-01
        1   -1    0    0  501    0  0.00000000000E+00  0.00000000000E+00  2.55723564116E+03  2.55723564116E+03  0.00000000000E+00  0.00000000000E+00  1.
       -1   -1    0    0    0  501  0.00000000000E+00  0.00000000000E+00 -1.52752663193E+00  1.52752663193E+00  0.00000000000E+00  0.00000000000E+00  1.
       39    2    1    2    0    0 -3.55271367880E-15  3.55271367880E-15  2.55570811452E+03  2.55876316779E+03  1.24999928736E+02  0.00000000000E+00  1.
       24    2    3    3    0    0  1.09755890840E+01  1.66125247916E+01  1.08048385664E+03  1.08121643326E+03  3.44553558629E+01  0.00000000000E+00  1.
      -24    2    3    3    0    0 -1.09755890840E+01 -1.66125247916E+01  1.47522425788E+03  1.47754673453E+03  8.03822252769E+01  0.00000000000E+00  1.
        4    1    4    4  803    0 -5.76971093203E+00  1.10473943486E+01  8.37095059261E+02  8.37188806872E+02  1.27499999995E+00  0.00000000000E+00  1.
       -3    1    4    4    0  803  1.67453000160E+01  5.56513044304E+00  2.43388797382E+02  2.44027626488E+02  8.52992239952E-06  0.00000000000E+00  1.
        3    1    5    5  804    0 -3.21840814147E+01 -3.96215105868E+01  8.37905982409E+02  8.39459418151E+02  1.07895932188E-05  0.00000000000E+00  1.
       -4    1    5    5    0  804  2.12084923307E+01  2.30089857952E+01  6.37318275472E+02  6.38087316478E+02  1.27500000004E+00  0.00000000000E+00  1.
</event>
<event>
 9   2   1.0000000E+00   6.2499886E+01   7.8125000E-03   1.3828943E-01
        2   -1    0    0  501    0  0.00000000000E+00  0.00000000000E+00  2.02423715461E+03  2.02423715461E+03  0.00000000000E+00  0.00000000000E+00  1.
       -2   -1    0    0    0  501  0.00000000000E+00  0.00000000000E+00 -1.92973226197E+00  1.92973226197E+00  0.00000000000E+00  0.00000000000E+00  1.
       39    2    1    2    0    0  0.00000000000E+00 -3.55271367880E-15  2.02230742235E+03  2.02616688687E+03  1.24999771890E+02  0.00000000000E+00  1.
      -24    2    3    3    0    0  3.07876645825E+01  1.00318424280E+01  1.34348229644E+03  1.34634747924E+03  8.15986265083E+01  0.00000000000E+00  1.
       24    2    3    3    0    0 -3.07876645825E+01 -1.00318424280E+01  6.78825125908E+02  6.79819407634E+02  1.73884237276E+01  0.00000000000E+00  1.
        3    1    4    4  804    0 -2.24408390912E+01  1.54817725450E+01  2.35427664515E+02  2.37000974274E+02  8.52992239952E-06  0.00000000000E+00  1.
       -4    1    4    4    0  804  5.32285036737E+01 -5.44993011702E+00  1.10805463192E+03  1.10934650506E+03  1.27500000004E+00  0.00000000000E+00  1.
        2    1    5    5  803    0 -2.81534144199E+01 -1.91355637696E+00  5.23196242049E+02  5.23956662459E+02  7.62939453125E-06  0.00000000000E+00  1.
       -1    1    5    5    0  803 -2.63425016263E+00 -8.11828605103E+00  1.55628883859E+02  1.55862745175E+02  3.30362473978E-06  0.00000000000E+00  1.
</event>
<event>
 9   2   1.0000000E+00   6.2501564E+01   7.8125000E-03   1.3828880E-01
        1   -1    0    0  501    0  0.00000000000E+00  0.00000000000E+00  6.47146930157E+01  6.47146930157E+01  0.00000000000E+00  0.00000000000E+00  1.
       -1   -1    0    0    0  501  0.00000000000E+00  0.00000000000E+00 -6.03641199991E+01  6.03641199991E+01  0.00000000000E+00  0.00000000000E+00  1.
       39    2    1    2    0    0 -1.77635683940E-15  0.00000000000E+00  4.35057301655E+00  1.25078813015E+02  1.25003127879E+02  0.00000000000E+00  1.
       24    2    3    3    0    0  1.55775282324E+01  2.31417797011E+00  1.62831369059E+01  4.32107422652E+01  3.67969141928E+01  0.00000000000E+00  1.
      -24    2    3    3    0    0 -1.55775282324E+01 -2.31417797011E+00 -1.19325638893E+01  8.18680707496E+01  7.94479711621E+01  0.00000000000E+00  1.
        2    1    4    4  804    0  2.26541129455E+01 -7.49481097366E+00  1.93629844009E+01  3.07295654019E+01  0.00000000000E+00  0.00000000000E+00  1.
       -1    1    4    4    0  804 -7.07658471314E+00  9.80898894377E+00 -3.07984749504E+00  1.24811768633E+01  0.00000000000E+00  0.00000000000E+00  1.
        1    1    5    5  803    0 -9.67557069134E+00 -5.86951948201E+00  3.37871970815E+01  3.56320448600E+01  1.84678237257E-06  0.00000000000E+00  1.
       -2    1    5    5    0  803 -5.90195754103E+00  3.55534151190E+00 -4.57197609708E+01  4.62360260896E+01  1.78416127528E-06  0.00000000000E+00  1.
</event>
<event>
 9   2   1.0000000E+00   6.2499829E+01   7.8125000E-03   1.3828945E-01
        2   -1    0    0  501    0  0.00000000000E+00  0.00000000000E+00  4.43835663144E+02  4.43835663144E+02  0.00000000000E+00  0.00000000000E+00  1.
       -2   -1    0    0    0  501  0.00000000000E+00  0.00000000000E+00 -8.80106969684E+00  8.80106969684E+00  0.00000000000E+00  0.00000000000E+00  1.
       39    2    1    2    0    0  0.00000000000E+00  3.55271367880E-15  4.35034593447E+02  4.52636732840E+02  1.24999657684E+02  0.00000000000E+00  1.
      -24    2    3    3    0    0  2.93846184729E+01 -1.86012405133E+01  2.80901526766E+02  2.94080162795E+02  7.97998274347E+01  0.00000000000E+00  1.
       24    2    3    3    0    0 -2.93846184729E+01  1.86012405133E+01  1.54133066681E+02  1.58556570045E+02  1.31803531344E+01  0.00000000000E+00  1.
       11    1    4    4    0    0 -1.47101430929E+01 -3.62026950240E+01  1.11410219917E+02  1.18064645593E+02  5.10996817865E-04  0.00000000000E+00  1.
      -12    1    4    4    0    0  4.40947615658E+01  1.76014545108E+01  1.69491306849E+02  1.76015517202E+02  1.90734863281E-06  0.00000000000E+00  1.
       16    1    5    5    0    0 -2.44749110872E+01  1.30303034525E+01  1.37314850020E+02  1.40086323903E+02  2.69739830470E-06  0.00000000000E+00  1.
      -15    1    5    5    0    0 -4.90970738573E+00  5.57093706079E+00  1.68182166608E+01  1.84702462420E+01  1.77680000000E+00  0.00000000000E+00  1.
</event>
<event>
 9   2   1.0000000E+00   6.2500706E+01   7.8125000E-03   1.3828912E-01
        2   -1    0    0  501    0  0.00000000000E+00  0.00000000000E+00  9.25479073635E+00  9.25479073635E+00  0.00000000000E+00  0.00000000000E+00  1.
       -2   -1    0    0    0  501  0.00000000000E+00  0.00000000000E+00 -4.22088237439E+02  4.22088237439E+02  0.00000000000E+00  0.00000000000E+00  1.
       39    2    1    2    0    0  3.55271367880E-15  2.66453525910E-15 -4.12833446703E+02  4.31343028175E+02  1.25001412948E+02  0.00000000000E+00  1.
       24    2    3    3    0    0 -2.49573002116E+01  4.93246738039E+00 -2.17238992251E+02  2.32662574989E+02  7.93214849691E+01  0.00000000000E+00  1.
      -24    2    3    3    0    0  2.49573002116E+01 -4.93246738039E+00 -1.95594454451E+02  1.98680453187E+02  2.38649491519E+01  0.00000000000E+00  1.
        2    1    4    4  803    0  2.61286822085E+01 -1.00840200456E+01 -5.20914333945E+01  5.91431563172E+01  2.02304872852E-06  0.00000000000E+00  1.
       -1    1    4    4    0  803 -5.10859824201E+01  1.50164874260E+01 -1.65147558857E+02  1.73519418871E+02  2.69739830470E-06  0.00000000000E+00  1.
        1    1    5    5  804    0  2.34837972927E+01  4.81318677984E+00 -1.14022414840E+02  1.16515091676E+02  1.34869915235E-06  0.00000000000E+00  1.
       -2    1    5    5    0  804  1.47350291890E+00 -9.74565416024E+00 -8.15720396116E+01  8.21653615112E+01  0.00000000000E+00  0.00000000000E+00  1.
</event>
<event>
 9   2   1.0000000E+00   6.2500292E+01   7.8125000E-03   1.3828928E-01
       -2   -1    0    0    0  502  0.00000000000E+00  0.00000000000E+00  8.09309431479E+00  8.09309431479E+00  0.00000000000E+00  0.00000000000E+00  1.
        2   -1    0    0  502    0  0.00000000000E+00  0.00000000000E+00 -4.82669100500E+02  4.82669100500E+02  0.00000000000E+00  0.00000000000E+00  1.
       39    2    1    2    0    0  3.55271367880E-15 -1.77635683940E-15 -4.74576006186E+02  4.90762194815E+02  1.25000584850E+02  0.00000000000E+00  1.
       24    2    3    3    0    0 -2.21310202561E+01 -1.07656379749E+00 -2.58436078044E+01  3.49426161866E+01  7.88373733886E+00  0.00000000000E+00  1.
      -24    2    3    3    0    0  2.21310202561E+01  1.07656379749E+00 -4.48732398381E+02  4.55819578629E+02  7.69401186445E+01  0.00000000000E+00  1.
       14    1    4    4    0    0 -2.06731811328E+01 -3.12478599079E+00 -2.20158970543E+01  3.03618911601E+01  0.00000000000E+00  0.00000000000E+00  1.
      -13    1    4    4    0    0 -1.45783912329E+00  2.04822219329E+00 -3.82771075005E+00  4.58072512646E+00  1.05659999999E-01  0.00000000000E+00  1.
        3    1    5    5  804    0  1.45242151416E+01  3.74212199316E+01 -2.91855088814E+02  2.94602602489E+02  0.00000000000E+00  0.00000000000E+00  1.
       -4    1    5    5    0  804  7.60680511453E+00 -3.63446561341E+01 -1.56877309567E+02  1.61216976139E+02  1.27500000000E+00  0.00000000000E+00  1.
</event>
<event>
 9   2   1.0000000E+00   6.2501426E+01   7.8125000E-03   1.3828885E-01
        2   -1    0    0  501    0  0.00000000000E+00  0.00000000000E+00  2.39228220667E+02  2.39228220667E+02  0.00000000000E+00  0.00000000000E+00  1.
       -2   -1    0    0    0  501  0.00000000000E+00  0.00000000000E+00 -1.63292950340E+01  1.63292950340E+01  0.00000000000E+00  0.00000000000E+00  1.
       39    2    1    2    0    0 -1.77635683940E-15  0.00000000000E+00  2.22898925633E+02  2.55557515701E+02  1.25002851099E+02  0.00000000000E+00  1.
       24    2    3    3    0    0 -1.29916889955E+01  1.93511872589E+01  1.40227133842E+02  1.63353988041E+02  8.04836872422E+01  0.00000000000E+00  1.
      -24    2    3    3    0    0  1.29916889955E+01 -1.93511872589E+01  8.26717917907E+01  9.22035276597E+01  3.35203359726E+01  0.00000000000E+00  1.
        2    1    4    4  803    0  3.20179658717E+01  1.27514145040E+01  8.55264934377E+01  9.22091632657E+01  1.34869915235E-06  0.00000000000E+00  1.
       -1    1    4    4    0  803 -4.50096548672E+01  6.59977275488E+00  5.47006404044E+01  7.11448248755E+01  1.16800772800E-06  0.00000000000E+00  1.
        1    1    5    5  804    0  2.09456524064E+01 -3.31755571543E+00  3.13387158569E+01  3.78396834317E+01  0.00000000000E+00  0.00000000000E+00  1.
       -2    1    5    5    0  804 -7.95396341085E+00 -1.60336315434E+01  5.13330759338E+01  5.43638442279E+01  0.00000000000E+00  0.00000000000E+00  1.
</event>
<event>
 9   2   1.0000000E+00   6.2500930E+01   7.8125000E-03   1.3828904E-01
        1   -1    0    0  501    0  0.00000000000E+00  0.00000000000E+00  6.30161777134E+01  6.30161777134E+01  0.00000000000E+00  0.00000000000E+00  1.
       -1   -1    0    0    0  501  0.00000000000E+00  0.00000000000E+00 -6.19898956949E+01  6.19898956949E+01  0.00000000000E+00  0.00000000000E+00  1.
       39    2    1    2    0    0  1.77635683940E-15  0.00000000000E+00  1.02628201849E+00  1.25006073408E+02  1.25001860523E+02  0.00000000000E+00  1.
       24    2    3    3    0    0 -6.81051831070E+00 -2.18240099846E+00  1.52119820328E+01  4.56541476229E+01  4.24470348084E+01  0.00000000000E+00  1.
      -24    2    3    3    0    0  6.81051831070E+00  2.18240099846E+00 -1.41857000143E+01  7.93519257854E+01  7.77454050550E+01  0.00000000000E+00  1.
        4    1    4    4  804    0  1.25555896070E+01  6.76368995441E+00 -6.04189515096E+00  1.55409283569E+01  1.27500000000E+00  0.00000000000E+00  1.
       -3    1    4    4    0  804 -1.93661079177E+01 -8.94609095287E+00  2.12538771838E+01  3.01132193660E+01  0.00000000000E+00  0.00000000000E+00  1.
       15    1    5    5    0    0  2.82425878636E+01 -2.64646799007E+01 -1.91723424628E+01  4.32291427770E+01  1.77680000000E+00  0.00000000000E+00  1.
      -16    1    5    5    0    0 -2.14320695529E+01  2.86470808991E+01  4.98664244846E+00  3.61227830084E+01  0.00000000000E+00  0.00000000000E+00  1.
</event>
<event>
 9   2   1.0000000E+00   6.2499400E+01   7.8125000E-03   1.3828961E-01
        1   -1    0    0  501    0  0.00000000000E+00  0.00000000000E+00  7.40955727957E+02  7.40955727957E+02  0.00000000000E+00  0.00000000000E+00  1.
       -1   -1    0    0    0  501  0.00000000000E+00  0.00000000000E+00 -5.27180614102E+00  5.27180614102E+00  0.00000000000E+00  0.00000000000E+00  1.
       39    2    1    2    0    0  1.42108547152E-14  2.66453525910E-15  7.35683921816E+02  7.46227534098E+02  1.24998799304E+02  0.00000000000E+00  1.
      -24    2    3    3    0    0 -1.85235040146E+01 -7.12959556567E+00  6.25763898428E+02  6.31464287263E+02  8.22966474334E+01  0.00000000000E+00  1.
       24    2    3    3    0    0  1.85235040146E+01  7.12959556567E+00  1.09920023388E+02  1.14763246835E+02  2.63484335133E+01  0.00000000000E+00  1.
        3    1    4    4  803    0  3.19163040233E+01  3.21892854353E+00  2.90733533519E+02  2.92497862444E+02  3.81469726562E-06  0.00000000000E+00  1.
       -4    1    4    4    0  803 -5.04398080379E+01 -1.03485241092E+01  3.35030364909E+02  3.38966424919E+02  1.27500000002E+00  0.00000000000E+00  1.
       14    1    5    5    0    0 -2.02849784008E+00 -4.64476723944E+00  5.11372498772E+01  5.13878097529E+01  1.50789149292E-06  0.00000000000E+00  1.
      -13    1    5    5    0    0  2.05520018547E+01  1.17743628051E+01  5.87827735104E+01  6.33754370818E+01  1.05660000000E-01  0.00000000000E+00  1.
</event>
<event>
 9   2   1.0000000E+00   6.2495197E+01   7.8125000E-03   1.3829118E-01
        1   -1    0    0  501    0  0.00000000000E+00  0.00000000000E+00  9.47890458853E+02  9.47890458853E+02  0.00000000000E+00  0.00000000000E+00  1.
       -1   -1    0    0    0  501  0.00000000000E+00  0.00000000000E+00 -4.12035965085E+00  4.12035965085E+00  0.00000000000E+00  0.00000000000E+00  1.
       39    2    1    2    0    0  3.55271367880E-15 -1.77635683940E-15  9.43770099202E+02  9.52010818504E+02  1.24990393232E+02  0.00000000000E+00  1.
       24    2    3    3    0    0 -1.53305839196E+01  5.50357757010E+00  2.70776056006E+02  2.74101143206E+02  3.93249034487E+01  0.00000000000E+00  1.
      -24    2    3    3    0    0  1.53305839196E+01 -5.50357757010E+00  6.72994043196E+02  6.77909675298E+02  7.98450343830E+01  0.00000000000E+00  1.
       12    1    4    4    0    0 -4.52379515750E+00  1.60757063535E+01  2.30120562986E+02  2.30725738846E+02  4.67203091199E-06  0.00000000000E+00  1.
      -11    1    4    4    0    0 -1.08067887621E+01 -1.05721287834E+01  4.06554930200E+01  4.33754043592E+01  5.10991033339E-04  0.00000000000E+00  1.
        1    1    5    5  803    0  2.79237478747E+01  2.12261174061E+01  1.48585479594E+02  1.52669343787E+02  6.32595975944E-06  0.00000000000E+00  1.
       -2    1    5    5    0  803 -1.25931639551E+01 -2.67296949762E+01  5.24408563602E+02  5.25240331711E+02  7.62939453125E-06  0.00000000000E+00  1.
</event>
<event>
 9   2   1.0000000E+00   6.2501548E+01   7.8125000E-03   1.3828881E-01
       -2   -1    0    0    0  502  0.00000000000E+00  0.00000000000E+00  1.44903494957E+02  1.44903494957E+02  0.00000000000E+00  0.00000000000E+00  1.
        2   -1    0    0  502    0  0.00000000000E+00  0.00000000000E+00 -2.69589323196E+01  2.69589323196E+01  0.00000000000E+00  0.00000000000E+00  1.
       39    2    1    2    0    0 -7.10542735760E-15  7.10542735760E-15  1.17944562637E+02  1.71862427277E+02  1.25003096176E+02  0.00000000000E+00  1.
       24    2    3    3    0    0 -1.01360989326E+01 -8.68525191913E-01  6.04551545611E+01  7.16960197913E+01  3.71752431509E+01  0.00000000000E+00  1.
      -24    2    3    3    0    0  1.01360989326E+01  8.68525191913E-01  5.74894080763E+01  1.00166407485E+02  8.13927657104E+01  0.00000000000E+00  1.
        4    1    4    4  804    0 -1.50863930451E+01 -1.60817187694E+01  4.03784406344E+01  4.60246132711E+01  1.27500000000E+00  0.00000000000E+00  1.
       -3    1    4    4    0  804  4.95029411259E+00  1.52131935775E+01  2.00767139268E+01  2.56714065202E+01  0.00000000000E+00  0.00000000000E+00  1.
       15    1    5    5    0    0 -2.78707004355E+01 -2.34418217240E+01  2.05313100640E+01  4.18447925038E+01  1.77680000000E+00  0.00000000000E+00  1.
      -16    1    5    5    0    0  3.80067993680E+01  2.43103469159E+01  3.69580980123E+01  5.83216149816E+01  0.00000000000E+00  0.00000000000E+00  1.
</event>
<event>
 9   2   1.0000000E+00   6.2495760E+01   7.8125000E-03   1.3829097E-01
        1   -1    0    0  501    0  0.00000000000E+00  0.00000000000E+00  5.04878153785E+01  5.04878153785E+01  0.00000000000E+00  0.00000000000E+00  1.
       -1   -1    0    0    0  501  0.00000000000E+00  0.00000000000E+00 -7.73596553853E+01  7.73596553853E+01  0.00000000000E+00  0.00000000000E+00  1.
       39    2    1    2    0    0 -1.77635683940E-15 -1.11022302463E-15 -2.68718400069E+01  1.27847470764E+02  1.24991519694E+02  0.00000000000E+00  1.
       24    2    3    3    0    0  5.72056911800E+00  1.73074216273E+00 -5.20280758892E+00  4.48846723610E+01  4.41796811518E+01  0.00000000000E+00  1.
      -24    2    3    3    0    0 -5.72056911800E+00 -1.73074216273E+00 -2.16690324179E+01  8.29627984028E+01  7.98596179144E+01  0.00000000000E+00  1.
        4    1    4    4  804    0 -4.21307638410E+00  1.75449405633E+01  1.01205716152E+01  2.07274346412E+01  1.27500000000E+00  0.00000000000E+00  1.
       -3    1    4    4    0  804  9.93364550210E+00 -1.58141984006E+01 -1.53233792041E+01  2.41572378197E+01  0.00000000000E+00  0.00000000000E+00  1.
        3    1    5    5  803    0 -4.02324058026E+01 -6.35453485238E-01 -2.63454381995E+01  4.80950351007E+01  0.00000000000E+00  0.00000000000E+00  1.
       -4    1    5    5    0  803  3.45118366846E+01 -1.09528867749E+00  4.67640578151E+00  3.48677634021E+01  1.27500000000E+00  0.00000000000E+00  1.
</event>
<event>
 9   2   1.0000000E+00   6.2499524E+01   7.8125000E-03   1.3828956E-01
       -2   -1    0    0    0  502  0.00000000000E+00  0.00000000000E+00  8.87236720435E+00  8.87236720435E+00  0.00000000000E+00  0.00000000000E+00  1.
        2   -1    0    0  502    0  0.00000000000E+00  0.00000000000E+00 -4.40264751643E+02  4.40264751643E+02  0.00000000000E+00  0.00000000000E+00  1.
       39    2    1    2    0    0  1.77635683940E-15  3.55271367880E-15 -4.31392384438E+02  4.49137118847E+02  1.24999048696E+02  0.00000000000E+00  1.
       24    2    3    3    0    0  6.94718667010E+00  2.42121289486E+01 -1.83026138492E+02  1.87168548490E+02  2.99834551321E+01  0.00000000000E+00  1.
      -24    2    3    3    0    0 -6.94718667010E+00 -2.42121289486E+01 -2.48366245946E+02  2.61968570357E+02  7.94181914844E+01  0.00000000000E+00  1.
       12    1    4    4    0    0  5.47715361338E+00  1.38726935899E+00 -4.60956909479E+00  7.29190350162E+00  3.14213165119E-06  0.00000000000E+00  1.
      -11    1    4    4    0    0  1.47003305672E+00  2.28248595896E+01 -1.78416569397E+02  1.79876645088E+02  5.10991478305E-04  0.00000000000E+00  1.
        3    1    5    5  803    0  1.54580846269E+01 -4.52344662641E+01 -1.05412537313E+02  1.15745031705E+02  1.34869915235E-06  0.00000000000E+00  1.
       -4    1    5    5    0  803 -2.24052712970E+01  2.10223373155E+01 -1.42953708634E+02  1.46223538752E+02  1.27500000000E+00  0.00000000000E+00  1.
</event>
<event>
 9   2   1.0000000E+00   6.2500876E+01   7.8125000E-03   1.3828906E-01
        2   -1    0    0  501    0  0.00000000000E+00  0.00000000000E+00  3.64755174606E+01  3.64755174606E+01  0.00000000000E+00  0.00000000000E+00  1.
       -2   -1    0    0    0  501  0.00000000000E+00  0.00000000000E+00 -1.07095381163E+02  1.07095381163E+02  0.00000000000E+00  0.00000000000E+00  1.
       39    2    1    2    0    0  5.32907051820E-15  0.00000000000E+00 -7.06198637024E+01  1.43570898624E+02  1.25001751117E+02  0.00000000000E+00  1.
      -24    2    3    3    0    0  5.71221659533E+00  8.55785129030E+00 -8.16838408022E+00  4.00800210300E+01  3.78658071371E+01  0.00000000000E+00  1.
       24    2    3    3    0    0 -5.71221659533E+00 -8.55785129030E+00 -6.24514796222E+01  1.03490877594E+02  8.18798400155E+01  0.00000000000E+00  1.
        3    1    4    4  804    0  1.44097264151E+01 -8.56133263796E+00 -1.17973128600E+01  2.04966636947E+01  0.00000000000E+00  0.00000000000E+00  1.
       -4    1    4    4    0  804 -8.69750981979E+00  1.71191839283E+01  3.62892877978E+00  1.95833573353E+01  1.27500000000E+00  0.00000000000E+00  1.
        2    1    5    5  803    0  3.48407703836E+01 -1.55151733710E+01 -4.44784297878E+01  5.85912160826E+01  0.00000000000E+00  0.00000000000E+00  1.
       -1    1    5    5    0  803 -4.05529869790E+01  6.95732208075E+00 -1.79730498345E+01  4.48996615110E+01  0.00000000000E+00  0.00000000000E+00  1.
</event>
<event>
 9   2   1.0000000E+00   6.2506298E+01   7.8125000E-03   1.3828703E-01
        2   -1    0    0  501    0  0.00000000000E+00  0.00000000000E+00  3.32005058798E+03  3.32005058798E+03  0.00000000000E+00  0.00000000000E+00  1.
       -2   -1    0    0    0  501  0.00000000000E+00  0.00000000000E+00 -1.17680052240E+00  1.17680052240E+00  0.00000000000E+00  0.00000000000E+00  1.
       39    2    1    2    0    0 -3.55271367880E-15  7.10542735760E-15  3.31887378746E+03  3.32122738851E+03  1.25012595627E+02  0.00000000000E+00  1.
       24    2    3    3    0    0  1.16268501058E+01  2.43410290320E+01  1.38158447488E+03  1.38208729649E+03  2.57286720729E+01  0.00000000000E+00  1.
      -24    2    3    3    0    0 -1.16268501058E+01 -2.43410290320E+01  1.93728931259E+03  1.93914009202E+03  8.02916338363E+01  0.00000000000E+00  1.
       14    1    4    4    0    0  1.07037012454E+01  1.80427522444E+01  4.57354749668E+02  4.57835644280E+02  1.07895932188E-05  0.00000000000E+00  1.
      -13    1    4    4    0    0  9.23148860386E-01  6.29827678757E+00  9.24229725208E+02  9.24251652212E+02  1.05660001880E-01  0.00000000000E+00  1.
       11    1    5    5    0    0  1.09297415860E+01  2.34560899592E+01  1.02091032192E+03  1.02123823509E+03  5.11112494642E-04  0.00000000000E+00  1.
      -12    1    5    5    0    0 -2.25565916918E+01 -4.77971189912E+01  9.16378990665E+02  9.17901856924E+02  2.15791864376E-05  0.00000000000E+00  1.
</event>
<event>
 9   2   1.0000000E+00   6.2499470E+01   7.8125000E-03   1.3828958E-01
        2   -1    0    0  501    0  0.00000000000E+00  0.00000000000E+00  8.18404578112E+02  8.18404578112E+02  0.00000000000E+00  0.00000000000E+00  1.
       -2   -1    0    0    0  501  0.00000000000E+00  0.00000000000E+00 -4.77292504547E+00  4.77292504547E+00  0.00000000000E+00  0.00000000000E+00  1.
       39    2    1    2    0    0  1.77635683940E-15  3.55271367880E-15  8.13631653066E+02  8.23177503157E+02  1.24998939327E+02  0.00000000000E+00  1.
      -24    2    3    3    0    0 -6.97505768253E+00  1.82401446783E+01  2.28553814487E+02  2.32286529540E+02  3.65900448432E+01  0.00000000000E+00  1.
       24    2    3    3    0    0  6.97505768253E+00 -1.82401446783E+01  5.85077838579E+02  5.90890973617E+02  8.03412173054E+01  0.00000000000E+00  1.
       13    1    4    4    0    0  2.90812290671E+00  1.37543133478E+01  2.12161107331E+02  2.12626397567E+02  1.05659999952E-01  0.00000000000E+00  1.
      -14    1    4    4    0    0 -9.88318058925E+00  4.48583133053E+00  1.63927071567E+01  1.96601320734E+01  3.67040737113E-06  0.00000000000E+00  1.
       16    1    5    5    0    0 -2.43147419766E+01  1.92382301278E+01  1.56835032345E+02  1.59870396192E+02  8.94625808682E-06  0.00000000000E+00  1.
      -15    1    5    5    0    0  3.12897996592E+01 -3.74783748061E+01  4.28242806234E+02  4.31020577525E+02  1.77679999996E+00  0.00000000000E+00  1.
</event>
<event>
 9   2   1.0000000E+00   6.2499548E+01   7.8125000E-03   1.3828955E-01
       -2   -1    0    0    0  502  0.00000000000E+00  0.00000000000E+00  8.86046301142E+02  8.86046301142E+02  0.00000000000E+00  0.00000000000E+00  1.
        2   -1    0    0  502    0  0.00000000000E+00  0.00000000000E+00 -4.40856583478E+00  4.40856583478E+00  0.00000000000E+00  0.00000000000E+00  1.
       39    2    1    2    0    0  3.55271367880E-15  3.55271367880E-15  8.81637735308E+02  8.90454866977E+02  1.24999095217E+02  0.00000000000E+00  1.
       24    2    3    3    0    0 -1.68201322859E+01  5.91857732176E+00  5.90694862297E+02  5.96370574254E+02  8.01217516264E+01  0.00000000000E+00  1.
      -24    2    3    3    0    0  1.68201322859E+01 -5.91857732176E+00  2.90942873011E+02  2.94084292724E+02  3.89855032481E+01  0.00000000000E+00  1.
        2    1    4    4  804    0 -2.03516054613E+00  4.24761969169E+01  3.22745765149E+02  3.25535248736E+02  6.60724947956E-06  0.00000000000E+00  1.
       -1    1    4    4    0  804 -1.47849717398E+01 -3.65576195952E+01  2.67949097148E+02  2.70835325717E+02  5.39479660939E-06  0.00000000000E+00  1.
       13    1    5    5    0    0  1.75405666685E+01 -1.20860303345E+00  4.84011710843E+01  5.14957932914E+01  1.05660000023E-01  0.00000000000E+00  1.
      -14    1    5    5    0    0 -7.20434382645E-01 -4.70997428830E+00  2.42541701926E+02  2.42588499432E+02  2.69739830470E-06  0.00000000000E+00  1.
</event>
<event>
 9   2   1.0000000E+00   6.2498958E+01   7.8125000E-03   1.3828978E-01
        2   -1    0    0  501    0  0.00000000000E+00  0.00000000000E+00  2.29363156357E+03  2.29363156357E+03  0.00000000000E+00  0.00000000000E+00  1.
       -2   -1    0    0    0  501  0.00000000000E+00  0.00000000000E+00 -1.70302842547E+00  1.70302842547E+00  0.00000000000E+00  0.00000000000E+00  1.
       39    2    1    2    0    0  8.88178419700E-16  1.77635683940E-15  2.29192853514E+03  2.29533459199E+03  1.24997915987E+02  0.00000000000E+00  1.
      -24    2    3    3    0    0  7.35024159535E+00 -1.18792499549E+01  8.97968496297E+02  8.98945202307E+02  3.94957437940E+01  0.00000000000E+00  1.
       24    2    3    3    0    0 -7.35024159535E+00  1.18792499549E+01  1.39396003884E+03  1.39638938968E+03  8.11393560471E+01  0.00000000000E+00  1.
        1    1    4    4  804    0 -5.82191027010E+00  1.25182057994E+01  2.45517480134E+02  2.45905333751E+02  5.39479660939E-06  0.00000000000E+00  1.
       -2    1    4    4    0  804  1.31721518655E+01 -2.43974557543E+01  6.52451016163E+02  6.53039868556E+02  7.62939453125E-06  0.00000000000E+00  1.
       12    1    5    5    0    0 -9.07734724106E+00  8.38401626549E-02  1.61393064591E+01  1.85170861313E+01  1.20537039373E-05  0.00000000000E+00  1.
      -11    1    5    5    0    0  1.72710564571E+00  1.17954097923E+01  1.37782073238E+03  1.37787230365E+03  5.10884675378E-04  0.00000000000E+00  1.
</event>
<event>
 9   2   1.0000000E+00   6.2500072E+01   7.8125000E-03   1.3828936E-01
       -3   -1    0    0    0  502  0.00000000000E+00  0.00000000000E+00  1.74346037871E+01  1.74346037871E+01  0.00000000000E+00  0.00000000000E+00  1.
        3   -1    0    0  502    0  0.00000000000E+00  0.00000000000E+00 -2.24052063015E+02  2.24052063015E+02  0.00000000000E+00  0.00000000000E+00  1.
       39    2    1    2    0    0  0.00000000000E+00  0.00000000000E+00 -2.06617459228E+02  2.41486666802E+02  1.25000143142E+02  0.00000000000E+00  1.
       24    2    3    3    0    0  1.10023412169E+01 -1.13843410512E+01 -1.04412274746E+02  1.32349959056E+02  7.97742678513E+01  0.00000000000E+00  1.
      -24    2    3    3    0    0 -1.10023412169E+01  1.13843410512E+01 -1.02205184482E+02  1.09136707746E+02  3.48463270539E+01  0.00000000000E+00  1.
        4    1    4    4  803    0 -7.54633244140E+00 -2.03124782901E+01  3.93862183175E+00  2.20608765586E+01  1.27500000000E+00  0.00000000000E+00  1.
       -3    1    4    4    0  803  1.85486736583E+01  8.92813723891E+00 -1.08350896577E+02  1.10289082498E+02  0.00000000000E+00  0.00000000000E+00  1.
       11    1    5    5    0    0  4.95309614949E+00 -7.18747894056E+00 -8.13359010786E+00  1.19309808185E+01  5.11001768033E-04  0.00000000000E+00  1.
      -12    1    5    5    0    0 -1.59554373664E+01  1.85718199917E+01 -9.40715943740E+01  9.72057269271E+01  1.90734863281E-06  0.00000000000E+00  1.
</event>
<event>
 9   2   1.0000000E+00   6.2500569E+01   7.8125000E-03   1.3828917E-01
       -2   -1    0    0    0  502  0.00000000000E+00  0.00000000000E+00  2.27979622639E+02  2.27979622639E+02  0.00000000000E+00  0.00000000000E+00  1.
        2   -1    0    0  502    0  0.00000000000E+00  0.00000000000E+00 -1.71345189492E+01  1.71345189492E+01  0.00000000000E+00  0.00000000000E+00  1.
       39    2    1    2    0    0 -1.77635683940E-15  0.00000000000E+00  2.10845103689E+02  2.45114141588E+02  1.25001138621E+02  0.00000000000E+00  1.
      -24    2    3    3    0    0  1.35030941514E+01 -8.32549701379E+00  9.31040340654E+01  1.24171314295E+02  8.06133157876E+01  0.00000000000E+00  1.
       24    2    3    3    0    0 -1.35030941514E+01  8.32549701379E+00  1.17741069624E+02  1.20942827293E+02  2.26398000262E+01  0.00000000000E+00  1.
        1    1    4    4  804    0 -1.53327088669E+01 -3.59526477050E+01  2.90922110782E+01  4.87241376872E+01  0.00000000000E+00  0.00000000000E+00  1.
       -2    1    4    4    0  804  2.88358030182E+01  2.76271506912E+01  6.40118229871E+01  7.54471768076E+01  0.00000000000E+00  0.00000000000E+00  1.
        2    1    5    5  803    0 -5.72607057522E+00 -4.91674651329E+00  7.75713799225E+01  7.79376756080E+01  2.13248059988E-06  0.00000000000E+00  1.
       -1    1    5    5    0  803 -7.77702357617E+00  1.32422435271E+01  4.01696897015E+01  4.30051518850E+01  1.26159253648E-06  0.00000000000E+00  1.
</event>
<event>
 9   2   1.0000000E+00   6.2505302E+01   7.8125000E-03   1.3828741E-01
       -2   -1    0    0    0  502  0.00000000000E+00  0.00000000000E+00  5.54933379091E+00  5.54933379091E+00  0.00000000000E+00  0.00000000000E+00  1.
        2   -1    0    0  502    0  0.00000000000E+00  0.00000000000E+00 -7.04032751395E+02  7.04032751395E+02  0.00000000000E+00  0.00000000000E+00  1.
       39    2    1    2    0    0 -5.32907051820E-15  3.55271367880E-15 -6.98483417604E+02  7.09582085186E+02  1.25010603346E+02  0.00000000000E+00  1.
      -24    2    3    3    0    0 -1.16050867304E+01 -8.66525570756E+00 -2.54480546205E+02  2.58233145283E+02  4.14034326075E+01  0.00000000000E+00  1.
       24    2    3    3    0    0  1.16050867304E+01  8.66525570756E+00 -4.44002871399E+02  4.51348939903E+02  7.97969363193E+01  0.00000000000E+00  1.
        1    1    4    4  804    0 -1.69035053331E+01  5.73620172329E+00 -2.17000033087E+02  2.17732971464E+02  2.69739830470E-06  0.00000000000E+00  1.
       -2    1    4    4    0  804  5.29841860279E+00 -1.44014574308E+01 -3.74805131183E+01  4.05001738198E+01  1.65181236989E-06  0.00000000000E+00  1.
        4    1    5    5  803    0 -2.69910842959E+01  2.71509992934E+01 -2.10342540311E+02  2.13802023572E+02  1.27500000000E+00  0.00000000000E+00  1.
       -3    1    5    5    0  803  3.85961710262E+01 -1.84857435858E+01 -2.33660331089E+02  2.37546916331E+02  4.67203091199E-06  0.00000000000E+00  1.
</event>
<event>
 9   2   1.0000000E+00   6.2500236E+01   7.8125000E-03   1.3828930E-01
       -2   -1    0    0    0  502  0.00000000000E+00  0.00000000000E+00  6.46909076356E+01  6.46909076356E+01  0.00000000000E+00  0.00000000000E+00  1.
        2   -1    0    0  502    0  0.00000000000E+00  0.00000000000E+00 -6.03837489948E+01  6.03837489948E+01  0.00000000000E+00  0.00000000000E+00  1.
       39    2    1    2    0    0  0.00000000000E+00  0.00000000000E+00  4.30715864085E+00  1.25074656630E+02  1.25000472462E+02  0.00000000000E+00  1.
       24    2    3    3    0    0  2.18073809478E+01  1.86550399206E+01 -8.72948690768E+00  8.84389213546E+01  8.31965533568E+01  0.00000000000E+00  1.
      -24    2    3    3    0    0 -2.18073809478E+01 -1.86550399206E+01  1.30366455485E+01  3.66357352759E+01  1.86721877080E+01  0.00000000000E+00  1.
        4    1    4    4  804    0  2.71375833151E+01 -9.86957632208E+00  2.89306448536E+01  4.08957797530E+01  1.27500000000E+00  0.00000000000E+00  1.
       -3    1    4    4    0  804 -5.33020236732E+00  2.85246162427E+01 -3.76601317612E+01  4.75431417016E+01  1.50789149292E-06  0.00000000000E+00  1.
       15    1    5    5    0    0 -1.16959387867E+01 -2.07591194008E+01  9.61916616428E+00  2.57569679570E+01  1.77680000000E+00  0.00000000000E+00  1.
      -16    1    5    5    0    0 -1.01114421611E+01  2.10407948021E+00  3.41747938425E+00  1.08787673189E+01  0.00000000000E+00  0.00000000000E+00  1.
</event>
</LesHouchesEvents>
