<LesHouchesEvents version="1.0">
<!--
Output from the JHUGenerator v7.4.1 described in arXiv:1001.3396 [hep-ph], arXiv:1208.4018 [hep-ph], arXiv:1309.4819 [hep-ph], arXiv:1606.03107 [hep-ph]
   
   Command line: ./JHUGen Seed=765543533 PDFSet=3 Process=1 VegasNc0=100000 VegasNc2=100 DataFile=compare_to_reference/spin1_WW DecayMode1=11 DecayMode2=11 zprime_qq_left=0.159847991225521,0.324512374690709 zprime_qq_right=0.514696145793129,0.150317974674483 zprime_zz_1=0.4084476008646,0.289302928999951 zprime_zz_2=0.328820833481286,0.910335641048151
   
   Input Parameter:
    Collider: P-P, sqrt(s)=13000.00
    Resonance: spin=1, mass= 125.00 width=   0.00407
    DecayMode1:11  DecayMode2:11
    W boson: mass=80.399, width=2.0850
    Random seed:   765543533
    To reproduce results using this seed, JHUGen should be compiled with the same compiler:
      GNU Fortran (GCC) 6.3.0
    
    OffXVV: TTT
    WidthScheme:   2
    PChannel: 1
    PDFSet:   3
    Unweighted: T
    Interference: F
    
    Spin-1-VV couplings: 
      zprime_qq_left =  0.15984799E+00  0.32451237E+00i
      zprime_qq_right=  0.51469615E+00  0.15031797E+00i
      zprime_zz_1=  0.40844760E+00  0.28930293E+00i
      zprime_zz_2=  0.32882083E+00  0.91033564E+00i
    
    LHE output: compare_to_reference/spin1_WW.lhe
    Histogram output: compare_to_reference/spin1_WW.dat
    Log file: compare_to_reference/spin1_WW.log
    
-->
<init>
2212 2212   6500.0000000000000000    6500.0000000000000000 0 0  263000  263000  3  1
 2.1045147E+08  7.8960760E+05  1.0000000E+00   1
</init>
<event>
 9   1   1.0000000E+00   6.2500138E+01   7.8125000E-03   1.3828933E-01
       -2   -1    0    0    0  502  0.00000000000E+00  0.00000000000E+00  2.27191516416E+01  2.27191516416E+01  0.00000000000E+00  0.00000000000E+00  1.
        2   -1    0    0  502    0  0.00000000000E+00  0.00000000000E+00 -1.71937197023E+02  1.71937197023E+02  0.00000000000E+00  0.00000000000E+00  1.
       32    2    1    2    0    0 -3.55271367880E-15  0.00000000000E+00 -1.49218045382E+02  1.94656348665E+02  1.25000276032E+02  0.00000000000E+00  1.
      -24    2    3    3    0    0 -2.53007330977E+01 -2.21703680837E+01 -1.06410028176E+02  1.38903619671E+02  8.27010830942E+01  0.00000000000E+00  1.
       24    2    3    3    0    0  2.53007330977E+01  2.21703680837E+01 -4.28080172059E+01  5.57527289944E+01  1.20078364817E+01  0.00000000000E+00  1.
        3    1    4    4  804    0 -3.48164381612E-01  1.08871051660E+01  1.03435626745E+01  1.50213037428E+01  1.62579795086E-06  0.00000000000E+00  1.
       -2    1    4    4    0  804 -2.49525687161E+01 -3.30574732497E+01 -1.16753590850E+02  1.23882315928E+02  0.00000000000E+00  0.00000000000E+00  1.
        2    1    5    5  803    0  1.32483471415E+01  1.90660438227E+01 -2.63597086173E+01  3.51264426671E+01  0.00000000000E+00  0.00000000000E+00  1.
       -1    1    5    5    0  803  1.20523859561E+01  3.10432426101E+00 -1.64483085887E+01  2.06262865273E+01  0.00000000000E+00  0.00000000000E+00  1.
</event>
<event>
 9   1   1.0000000E+00   6.2499040E+01   7.8125000E-03   1.3828974E-01
       -2   -1    0    0    0  502  0.00000000000E+00  0.00000000000E+00  8.72604506394E+01  8.72604506394E+01  0.00000000000E+00  0.00000000000E+00  1.
        2   -1    0    0  502    0  0.00000000000E+00  0.00000000000E+00 -4.47640371201E+01  4.47640371201E+01  0.00000000000E+00  0.00000000000E+00  1.
       32    2    1    2    0    0 -3.55271367880E-15  7.10542735760E-15  4.24964135193E+01  1.32024487760E+02  1.24998080810E+02  0.00000000000E+00  1.
       24    2    3    3    0    0 -7.04747317489E+00 -2.47503335494E+01  2.43702106017E-01  4.13614738643E+01  3.23800284212E+01  0.00000000000E+00  1.
      -24    2    3    3    0    0  7.04747317489E+00  2.47503335494E+01  4.22527114133E+01  9.06630138952E+01  7.59752892579E+01  0.00000000000E+00  1.
        4    1    4    4  804    0  1.00692932213E+01  1.24633492628E+00  4.34749494662E-01  1.02351672604E+01  1.27500000000E+00  0.00000000000E+00  1.
       -3    1    4    4    0  804 -1.71167663962E+01 -2.59966684756E+01 -1.91047388646E-01  3.11263067039E+01  0.00000000000E+00  0.00000000000E+00  1.
        3    1    5    5  803    0 -1.54039810551E+01  3.49004023700E+01 -3.88175925398E+00  3.83456486819E+01  0.00000000000E+00  0.00000000000E+00  1.
       -4    1    5    5    0  803  2.24514542300E+01 -1.01500688206E+01  4.61344706673E+01  5.23173652133E+01  1.27500000000E+00  0.00000000000E+00  1.
</event>
<event>
 9   1   1.0000000E+00   6.2499524E+01   7.8125000E-03   1.3828956E-01
       -2   -1    0    0    0  502  0.00000000000E+00  0.00000000000E+00  3.76128685062E+02  3.76128685062E+02  0.00000000000E+00  0.00000000000E+00  1.
        2   -1    0    0  502    0  0.00000000000E+00  0.00000000000E+00 -1.03852501671E+01  1.03852501671E+01  0.00000000000E+00  0.00000000000E+00  1.
       32    2    1    2    0    0  0.00000000000E+00 -3.55271367880E-15  3.65743434895E+02  3.86513935229E+02  1.24999047827E+02  0.00000000000E+00  1.
       24    2    3    3    0    0  1.53207692497E+01  8.31107352617E+00  1.64167067938E+02  1.83016923320E+02  7.89972664873E+01  0.00000000000E+00  1.
      -24    2    3    3    0    0 -1.53207692497E+01 -8.31107352617E+00  2.01576366956E+02  2.03497011909E+02  2.17761848593E+01  0.00000000000E+00  1.
        4    1    4    4  803    0  4.49329156789E+01  1.57873503504E+01  1.21823018396E+02  1.30807800909E+02  1.27500000000E+00  0.00000000000E+00  1.
       -3    1    4    4    0  803 -2.96121464292E+01 -7.47627682426E+00  4.23440495425E+01  5.22091225112E+01  1.65181236989E-06  0.00000000000E+00  1.
        1    1    5    5  804    0 -1.73862239173E+01  4.02133036230E-01  9.77298465138E+01  9.92651267701E+01  0.00000000000E+00  0.00000000000E+00  1.
       -2    1    5    5    0  804  2.06545466760E+00 -8.71320656240E+00  1.03846520443E+02  1.04231885139E+02  0.00000000000E+00  0.00000000000E+00  1.
</event>
<event>
 9   1   1.0000000E+00   6.2499669E+01   7.8125000E-03   1.3828951E-01
       -1   -1    0    0    0  502  0.00000000000E+00  0.00000000000E+00  1.04382403056E+01  1.04382403056E+01  0.00000000000E+00  0.00000000000E+00  1.
        1   -1    0    0  502    0  0.00000000000E+00  0.00000000000E+00 -3.74220991319E+02  3.74220991319E+02  0.00000000000E+00  0.00000000000E+00  1.
       32    2    1    2    0    0  3.55271367880E-15  1.77635683940E-15 -3.63782751014E+02  3.84659231625E+02  1.24999338155E+02  0.00000000000E+00  1.
       24    2    3    3    0    0  1.66140617572E+01  2.02283935067E+00 -2.04645029112E+02  2.20375454014E+02  8.00352039076E+01  0.00000000000E+00  1.
      -24    2    3    3    0    0 -1.66140617572E+01 -2.02283935067E+00 -1.59137721901E+02  1.64283777611E+02  3.72051895161E+01  0.00000000000E+00  1.
        2    1    4    4  804    0  4.20647110817E+01 -7.62109290011E+00 -6.29711687056E+01  7.61110311554E+01  2.69739830470E-06  0.00000000000E+00  1.
       -1    1    4    4    0  804 -2.54506493245E+01  9.64393225078E+00 -1.41673860407E+02  1.44264422859E+02  3.30362473978E-06  0.00000000000E+00  1.
        3    1    5    5  803    0 -7.38138898769E+00  1.75622389126E+01 -7.01233985619E+01  7.26650408717E+01  1.34869915235E-06  0.00000000000E+00  1.
       -4    1    5    5    0  803 -9.23267276950E+00 -1.95850782633E+01 -8.90143233395E+01  9.16187367389E+01  1.27500000000E+00  0.00000000000E+00  1.
</event>
<event>
 9   1   1.0000000E+00   6.2505713E+01   7.8125000E-03   1.3828725E-01
        3   -1    0    0  501    0  0.00000000000E+00  0.00000000000E+00  8.64639148191E+01  8.64639148191E+01  0.00000000000E+00  0.00000000000E+00  1.
       -3   -1    0    0    0  501  0.00000000000E+00  0.00000000000E+00 -4.51860663150E+01  4.51860663150E+01  0.00000000000E+00  0.00000000000E+00  1.
       32    2    1    2    0    0  0.00000000000E+00 -3.55271367880E-15  4.12778485041E+01  1.31649981134E+02  1.25011426500E+02  0.00000000000E+00  1.
      -24    2    3    3    0    0 -1.07935671770E+01 -2.69366128741E+01 -1.23644942882E+01  3.21168414201E+01  6.04388767821E+00  0.00000000000E+00  1.
       24    2    3    3    0    0  1.07935671770E+01  2.69366128741E+01  5.36423427923E+01  9.95331397140E+01  7.86591555735E+01  0.00000000000E+00  1.
       15    1    4    4    0    0 -1.33600364413E+00 -7.30160910124E+00 -4.94541075890E+00  9.09464166522E+00  1.77680000000E+00  0.00000000000E+00  1.
      -16    1    4    4    0    0 -9.45756353291E+00 -1.96350037728E+01 -7.41908352929E+00  2.30221998549E+01  0.00000000000E+00  0.00000000000E+00  1.
       14    1    5    5    0    0  2.80392713718E+01  4.85836701316E+01  3.78143105883E+01  6.76498029659E+01  1.50789149292E-06  0.00000000000E+00  1.
      -13    1    5    5    0    0 -1.72457041948E+01 -2.16470572575E+01  1.58280322039E+01  3.18833368481E+01  1.05659999996E-01  0.00000000000E+00  1.
</event>
<event>
 9   1   1.0000000E+00   6.2501579E+01   7.8125000E-03   1.3828880E-01
        1   -1    0    0  501    0  0.00000000000E+00  0.00000000000E+00  4.59700415569E+01  4.59700415569E+01  0.00000000000E+00  0.00000000000E+00  1.
       -1   -1    0    0    0  501  0.00000000000E+00  0.00000000000E+00 -8.49781139183E+01  8.49781139183E+01  0.00000000000E+00  0.00000000000E+00  1.
       32    2    1    2    0    0 -3.55271367880E-15 -7.10542735760E-15 -3.90080723614E+01  1.30948155475E+02  1.25003158812E+02  0.00000000000E+00  1.
       24    2    3    3    0    0 -7.54833112304E+00 -2.52338815776E+01 -4.99904148872E+01  9.81455635434E+01  8.02482646569E+01  0.00000000000E+00  1.
      -24    2    3    3    0    0  7.54833112304E+00  2.52338815776E+01  1.09823425258E+01  3.28025919318E+01  1.61762822636E+01  0.00000000000E+00  1.
        4    1    4    4  803    0  7.96143822806E+00 -4.39214240536E+01 -2.40350950101E+00  4.47200008103E+01  1.27500000000E+00  0.00000000000E+00  1.
       -3    1    4    4    0  803 -1.55097693511E+01  1.86875424759E+01 -4.75869053862E+01  5.34255628331E+01  1.34869915235E-06  0.00000000000E+00  1.
        3    1    5    5  804    0  1.15417389770E+01  1.67713344700E+01  3.29178148465E+00  2.06234144569E+01  0.00000000000E+00  0.00000000000E+00  1.
       -4    1    5    5    0  804 -3.99340785397E+00  8.46254710767E+00  7.69056104119E+00  1.21791774749E+01  1.27500000000E+00  0.00000000000E+00  1.
</event>
<event>
 9   1   1.0000000E+00   6.2500572E+01   7.8125000E-03   1.3828917E-01
       -2   -1    0    0    0  502  0.00000000000E+00  0.00000000000E+00  5.97608161451E+02  5.97608161451E+02  0.00000000000E+00  0.00000000000E+00  1.
        2   -1    0    0  502    0  0.00000000000E+00  0.00000000000E+00 -6.53659318929E+00  6.53659318929E+00  0.00000000000E+00  0.00000000000E+00  1.
       32    2    1    2    0    0  0.00000000000E+00  5.32907051820E-15  5.91071568261E+02  6.04144754640E+02  1.25001143003E+02  0.00000000000E+00  1.
      -24    2    3    3    0    0 -1.09460341114E+01  5.43722770968E+00  5.63573367943E+02  5.69275267823E+02  7.94355738481E+01  0.00000000000E+00  1.
       24    2    3    3    0    0  1.09460341114E+01 -5.43722770968E+00  2.74982003181E+01  3.48694868165E+01  1.76167812661E+01  0.00000000000E+00  1.
        1    1    4    4  803    0  5.04649938634E+00 -2.55656328950E+01  4.42762199133E+02  4.43528391112E+02  9.34406182397E-06  0.00000000000E+00  1.
       -2    1    4    4    0  803 -1.59925334978E+01  3.10028606047E+01  1.20811168810E+02  1.25746876711E+02  8.42262350686E-06  0.00000000000E+00  1.
        2    1    5    5  804    0  1.83194188426E-01  4.99307542743E+00  2.18783241159E+00  5.45444525097E+00  0.00000000000E+00  0.00000000000E+00  1.
       -1    1    5    5    0  804  1.07628399230E+01 -1.04303031371E+01  2.53103679065E+01  2.94150416655E+01  0.00000000000E+00  0.00000000000E+00  1.
</event>
<event>
 9   1   1.0000000E+00   6.2495977E+01   7.8125000E-03   1.3829089E-01
       -2   -1    0    0    0  502  0.00000000000E+00  0.00000000000E+00  1.79136420405E+01  1.79136420405E+01  0.00000000000E+00  0.00000000000E+00  1.
        2   -1    0    0  502    0  0.00000000000E+00  0.00000000000E+00 -2.18031994524E+02  2.18031994524E+02  0.00000000000E+00  0.00000000000E+00  1.
       32    2    1    2    0    0  0.00000000000E+00  0.00000000000E+00 -2.00118352483E+02  2.35945636564E+02  1.24991953393E+02  0.00000000000E+00  1.
      -24    2    3    3    0    0 -2.01192220266E+01 -9.90016458107E+00 -1.09497149801E+02  1.38746130159E+02  8.22074599172E+01  0.00000000000E+00  1.
       24    2    3    3    0    0  2.01192220266E+01  9.90016458107E+00 -9.06212026824E+01  9.71995064047E+01  2.70692688491E+01  0.00000000000E+00  1.
       11    1    4    4    0    0 -3.28529930915E+00  3.10009451552E+01 -7.92546590506E+01  8.51654435411E+01  5.10998597706E-04  0.00000000000E+00  1.
      -12    1    4    4    0    0 -1.68339227175E+01 -4.09011097363E+01 -3.02424907500E+01  5.35806867182E+01  0.00000000000E+00  0.00000000000E+00  1.
        2    1    5    5  804    0  1.75710373415E+00 -8.76350821359E+00 -2.13433328779E+01  2.31392383778E+01  1.19209289551E-06  0.00000000000E+00  1.
       -1    1    5    5    0  804  1.83621182925E+01  1.86636727947E+01 -6.92778698046E+01  7.40602682269E+01  1.34869915235E-06  0.00000000000E+00  1.
</event>
<event>
 9   1   1.0000000E+00   6.2495852E+01   7.8125000E-03   1.3829093E-01
        2   -1    0    0  501    0  0.00000000000E+00  0.00000000000E+00  9.04801912407E+02  9.04801912407E+02  0.00000000000E+00  0.00000000000E+00  1.
       -2   -1    0    0    0  501  0.00000000000E+00  0.00000000000E+00 -4.31667027154E+00  4.31667027154E+00  0.00000000000E+00  0.00000000000E+00  1.
       32    2    1    2    0    0 -1.42108547152E-14 -1.77635683940E-15  9.00485242136E+02  9.09118582679E+02  1.24991703995E+02  0.00000000000E+00  1.
      -24    2    3    3    0    0 -2.97002684182E+01 -1.55648876939E+01  2.23493767255E+02  2.26717524327E+02  1.80831458054E+01  0.00000000000E+00  1.
       24    2    3    3    0    0  2.97002684182E+01  1.55648876939E+01  6.76991474881E+02  6.82401058352E+02  7.89263942233E+01  0.00000000000E+00  1.
        3    1    4    4  804    0 -1.86512795371E+01  3.80048761594E-01  1.08676435843E+02  1.10265962087E+02  3.30362473978E-06  0.00000000000E+00  1.
       -4    1    4    4    0  804 -1.10489888812E+01 -1.59449364555E+01  1.14817331412E+02  1.16451562340E+02  1.27500000000E+00  0.00000000000E+00  1.
        4    1    5    5  803    0 -1.18804967360E+01  1.32344270212E+01  3.71671006968E+01  4.12227517334E+01  1.27500000003E+00  0.00000000000E+00  1.
       -3    1    5    5    0  803  4.15807651542E+01  2.33046067266E+00  6.39824374184E+02  6.41178306718E+02  7.62939453125E-06  0.00000000000E+00  1.
</event>
<event>
 9   1   1.0000000E+00   6.2499985E+01   7.8125000E-03   1.3828939E-01
        2   -1    0    0  501    0  0.00000000000E+00  0.00000000000E+00  8.10376376834E+02  8.10376376834E+02  0.00000000000E+00  0.00000000000E+00  1.
       -2   -1    0    0    0  501  0.00000000000E+00  0.00000000000E+00 -4.82028879593E+00  4.82028879593E+00  0.00000000000E+00  0.00000000000E+00  1.
       32    2    1    2    0    0 -1.06581410364E-14  0.00000000000E+00  8.05556088038E+02  8.15196665630E+02  1.24999970716E+02  0.00000000000E+00  1.
      -24    2    3    3    0    0  1.96533721375E+00  1.04751110536E+01  4.21762886610E+02  4.23224145834E+02  3.34836466476E+01  0.00000000000E+00  1.
       24    2    3    3    0    0 -1.96533721375E+00 -1.04751110536E+01  3.83793201428E+02  3.91972519796E+02  7.89407645727E+01  0.00000000000E+00  1.
       15    1    4    4    0    0 -8.94120778132E+00  1.68579719932E+01  1.57896685797E+02  1.59055514900E+02  1.77680000000E+00  0.00000000000E+00  1.
      -16    1    4    4    0    0  1.09065449951E+01 -6.38286093964E+00  2.63866200814E+02  2.64168630934E+02  3.81469726562E-06  0.00000000000E+00  1.
       14    1    5    5    0    0  3.05828112727E+01 -5.89190113071E+00  3.05168790686E+02  3.06753995334E+02  3.81469726562E-06  0.00000000000E+00  1.
      -13    1    5    5    0    0 -3.25481484864E+01 -4.58320992285E+00  7.86244107412E+01  8.52185244623E+01  1.05660000060E-01  0.00000000000E+00  1.
</event>
<event>
 9   1   1.0000000E+00   6.2497575E+01   7.8125000E-03   1.3829029E-01
       -1   -1    0    0    0  502  0.00000000000E+00  0.00000000000E+00  2.73835396910E+00  2.73835396910E+00  0.00000000000E+00  0.00000000000E+00  1.
        1   -1    0    0  502    0  0.00000000000E+00  0.00000000000E+00 -1.42638495358E+03  1.42638495358E+03  0.00000000000E+00  0.00000000000E+00  1.
       32    2    1    2    0    0  3.55271367880E-15  1.77635683940E-15 -1.42364659961E+03  1.42912330755E+03  1.24995150292E+02  0.00000000000E+00  1.
       24    2    3    3    0    0 -2.00926696259E+01  1.50059786992E-02 -1.13722189767E+03  1.14014871120E+03  7.91310527507E+01  0.00000000000E+00  1.
      -24    2    3    3    0    0  2.00926696259E+01 -1.50059786991E-02 -2.86424701947E+02  2.88974596356E+02  3.26112228572E+01  0.00000000000E+00  1.
        4    1    4    4  803    0 -1.33914480704E+01  2.66332354561E+01 -9.86286225699E+02  9.86737454818E+02  1.27499999977E+00  0.00000000000E+00  1.
       -3    1    4    4    0  803 -6.70122155549E+00 -2.66182294774E+01 -1.50935671968E+02  1.53411256477E+02  1.68452470137E-05  0.00000000000E+00  1.
        3    1    5    5  804    0  1.12923386776E+01 -1.35079826462E+01 -7.98102657047E+01  8.17291931921E+01  3.01578298585E-06  0.00000000000E+00  1.
       -4    1    5    5    0  804  8.80033094836E+00  1.34929766675E+01 -2.06614436242E+02  2.07245403164E+02  1.27500000000E+00  0.00000000000E+00  1.
</event>
<event>
 9   1   1.0000000E+00   6.2496966E+01   7.8125000E-03   1.3829052E-01
       -4   -1    0    0    0  502  0.00000000000E+00  0.00000000000E+00  4.69462166488E+01  4.69462166488E+01  0.00000000000E+00  0.00000000000E+00  1.
        4   -1    0    0  502    0  0.00000000000E+00  0.00000000000E+00 -8.31988391022E+01  8.31988391022E+01  0.00000000000E+00  0.00000000000E+00  1.
       32    2    1    2    0    0  8.88178419700E-16 -1.06581410364E-14 -3.62526224533E+01  1.30145055751E+02  1.24993931459E+02  0.00000000000E+00  1.
       24    2    3    3    0    0 -6.20468173127E+00 -2.56157706721E+01 -1.34385347086E+01  4.27606277843E+01  3.08741200827E+01  0.00000000000E+00  1.
      -24    2    3    3    0    0  6.20468173127E+00  2.56157706721E+01 -2.28140877447E+01  8.73844279667E+01  8.01304553147E+01  0.00000000000E+00  1.
       12    1    4    4    0    0 -1.28037052529E+01 -1.48034357146E+01  5.17580551992E+00  2.02451363045E+01  0.00000000000E+00  0.00000000000E+00  1.
      -11    1    4    4    0    0  6.59902352166E+00 -1.08123349575E+01 -1.86143402286E+01  2.25154915798E+01  5.11000043823E-04  0.00000000000E+00  1.
        3    1    5    5  804    0  3.47507560070E+01  3.65149057828E+01 -2.58534713177E+01  5.66511727848E+01  0.00000000000E+00  0.00000000000E+00  1.
       -4    1    5    5    0  804 -2.85460742758E+01 -1.08991351108E+01  3.03938357305E+00  3.07332552819E+01  1.27500000000E+00  0.00000000000E+00  1.
</event>
<event>
 9   1   1.0000000E+00   6.2499733E+01   7.8125000E-03   1.3828949E-01
       -4   -1    0    0    0  502  0.00000000000E+00  0.00000000000E+00  7.49121883504E+00  7.49121883504E+00  0.00000000000E+00  0.00000000000E+00  1.
        4   -1    0    0  502    0  0.00000000000E+00  0.00000000000E+00 -5.21439403568E+02  5.21439403568E+02  0.00000000000E+00  0.00000000000E+00  1.
       32    2    1    2    0    0  4.44089209850E-16  3.55271367880E-15 -5.13948184733E+02  5.28930622403E+02  1.24999466900E+02  0.00000000000E+00  1.
      -24    2    3    3    0    0  2.04869179779E+00  2.69753498328E+01 -3.01405368307E+02  3.12699355995E+02  7.87643609681E+01  0.00000000000E+00  1.
       24    2    3    3    0    0 -2.04869179779E+00 -2.69753498328E+01 -2.12542816427E+02  2.16231266409E+02  2.91486727225E+01  0.00000000000E+00  1.
       11    1    4    4    0    0  1.66392201033E+01  4.32301715878E+01 -2.72817261008E+02  2.76721826543E+02  5.11012836212E-04  0.00000000000E+00  1.
      -12    1    4    4    0    0 -1.45905283055E+01 -1.62548217551E+01 -2.85881072989E+01  3.59775295518E+01  3.91761701707E-06  0.00000000000E+00  1.
        2    1    5    5  803    0 -5.06689700327E+00 -3.59814095587E+00 -7.07893496415E+00  9.41973374394E+00  1.70889749370E-06  0.00000000000E+00  1.
       -1    1    5    5    0  803  3.01820520548E+00 -2.33772088769E+01 -2.05463881462E+02  2.06811532665E+02  3.81469726562E-06  0.00000000000E+00  1.
</event>
<event>
 9   1   1.0000000E+00   6.2500416E+01   7.8125000E-03   1.3828923E-01
        2   -1    0    0  501    0  0.00000000000E+00  0.00000000000E+00  1.69372351844E+02  1.69372351844E+02  0.00000000000E+00  0.00000000000E+00  1.
       -2   -1    0    0    0  501  0.00000000000E+00  0.00000000000E+00 -2.30633979868E+01  2.30633979868E+01  0.00000000000E+00  0.00000000000E+00  1.
       32    2    1    2    0    0 -1.06581410364E-14  0.00000000000E+00  1.46308953857E+02  1.92435749831E+02  1.25000831334E+02  0.00000000000E+00  1.
       24    2    3    3    0    0 -9.40805148313E+00 -3.31302235881E+01  9.82543656785E+01  1.31105475298E+02  7.96781157564E+01  0.00000000000E+00  1.
      -24    2    3    3    0    0  9.40805148313E+00  3.31302235881E+01  4.80545881790E+01  6.13302745332E+01  1.63106094785E+01  0.00000000000E+00  1.
       14    1    4    4    0    0 -3.50866778278E+01 -4.46426007792E+01  7.77967811915E+01  9.63139446242E+01  1.34869915235E-06  0.00000000000E+00  1.
      -13    1    4    4    0    0  2.56786263447E+01  1.15123771911E+01  2.04575844870E+01  3.47915306736E+01  1.05660000010E-01  0.00000000000E+00  1.
        1    1    5    5  803    0  4.48559161367E+00  3.87166325133E+00  1.86070716073E+01  1.95277603979E+01  0.00000000000E+00  0.00000000000E+00  1.
       -2    1    5    5    0  803  4.92245986946E+00  2.92585603368E+01  2.94475165717E+01  4.18025143353E+01  0.00000000000E+00  0.00000000000E+00  1.
</event>
<event>
 9   1   1.0000000E+00   6.2504612E+01   7.8125000E-03   1.3828766E-01
        1   -1    0    0  501    0  0.00000000000E+00  0.00000000000E+00  3.38047514955E+02  3.38047514955E+02  0.00000000000E+00  0.00000000000E+00  1.
       -1   -1    0    0    0  501  0.00000000000E+00  0.00000000000E+00 -1.15570336533E+01  1.15570336533E+01  0.00000000000E+00  0.00000000000E+00  1.
       32    2    1    2    0    0  3.55271367880E-15  5.10702591328E-15  3.26490481301E+02  3.49604548608E+02  1.25009223768E+02  0.00000000000E+00  1.
      -24    2    3    3    0    0 -1.42892675922E+00 -1.31118932984E+00  1.91011869991E+02  1.91793734528E+02  1.71913082035E+01  0.00000000000E+00  1.
       24    2    3    3    0    0  1.42892675922E+00  1.31118932984E+00  1.35478611311E+02  1.57810814080E+02  8.09075884497E+01  0.00000000000E+00  1.
        1    1    4    4  804    0  7.32987571342E+00 -1.51480817778E+00  5.60120410706E+01  5.65099147644E+01  1.65181236989E-06  0.00000000000E+00  1.
       -2    1    4    4    0  804 -8.75880247264E+00  2.03618847947E-01  1.34999828920E+02  1.35283819764E+02  2.69739830470E-06  0.00000000000E+00  1.
        4    1    5    5  803    0  2.00516208217E+01 -3.48192386257E+01  7.09382816696E+01  8.15371835869E+01  1.27500000000E+00  0.00000000000E+00  1.
       -3    1    5    5    0  803 -1.86226940625E+01  3.61304279555E+01  6.45403296410E+01  7.62736304929E+01  0.00000000000E+00  0.00000000000E+00  1.
</event>
<event>
 9   1   1.0000000E+00   6.2500301E+01   7.8125000E-03   1.3828927E-01
       -1   -1    0    0    0  502  0.00000000000E+00  0.00000000000E+00  1.10026964206E+02  1.10026964206E+02  0.00000000000E+00  0.00000000000E+00  1.
        1   -1    0    0  502    0  0.00000000000E+00  0.00000000000E+00 -3.55030028661E+01  3.55030028661E+01  0.00000000000E+00  0.00000000000E+00  1.
       32    2    1    2    0    0 -4.44089209850E-16 -3.55271367880E-15  7.45239613398E+01  1.45529967072E+02  1.25000602007E+02  0.00000000000E+00  1.
      -24    2    3    3    0    0  9.15092388919E-01 -1.52005408617E+01  1.13802835194E+01  4.26027595842E+01  3.81259810974E+01  0.00000000000E+00  1.
       24    2    3    3    0    0 -9.15092388919E-01  1.52005408617E+01  6.31436778203E+01  1.02927207488E+02  7.98435479920E+01  0.00000000000E+00  1.
        1    1    4    4  803    0  1.17171334333E+01 -1.81055672428E+01  1.92645375151E+01  2.89175585506E+01  0.00000000000E+00  0.00000000000E+00  1.
       -2    1    4    4    0  803 -1.08020410444E+01  2.90502638105E+00 -7.88425399567E+00  1.36852012336E+01  0.00000000000E+00  0.00000000000E+00  1.
        4    1    5    5  804    0 -4.77460176421E+00  4.78216420535E+01  3.27223800513E+01  5.81557052397E+01  1.27500000000E+00  0.00000000000E+00  1.
       -3    1    5    5    0  804  3.85950937529E+00 -3.26211011918E+01  3.04212977690E+01  4.47715022479E+01  0.00000000000E+00  0.00000000000E+00  1.
</event>
<event>
 9   1   1.0000000E+00   6.2500187E+01   7.8125000E-03   1.3828932E-01
       -1   -1    0    0    0  502  0.00000000000E+00  0.00000000000E+00  5.13339070997E+00  5.13339070997E+00  0.00000000000E+00  0.00000000000E+00  1.
        1   -1    0    0  502    0  0.00000000000E+00  0.00000000000E+00 -7.60953846024E+02  7.60953846024E+02  0.00000000000E+00  0.00000000000E+00  1.
       32    2    1    2    0    0 -1.77635683940E-15 -1.77635683940E-15 -7.55820455314E+02  7.66087236734E+02  1.25000374462E+02  0.00000000000E+00  1.
       24    2    3    3    0    0  1.48686446027E+01  9.74127237184E+00 -3.37793275588E+02  3.40542216476E+02  3.93539729852E+01  0.00000000000E+00  1.
      -24    2    3    3    0    0 -1.48686446027E+01 -9.74127237184E+00 -4.18027179726E+02  4.25545020258E+02  7.76264922399E+01  0.00000000000E+00  1.
        4    1    4    4  804    0  1.06829663238E+01  1.26365315508E+01 -4.95785558312E+01  5.22825642296E+01  1.27500000000E+00  0.00000000000E+00  1.
       -3    1    4    4    0  804  4.18567827888E+00 -2.89525917896E+00 -2.88214719757E+02  2.88259652346E+02  3.81469726562E-06  0.00000000000E+00  1.
        3    1    5    5  803    0  2.79756952535E+01  2.45489703976E+00 -8.42811904646E+01  8.88368454557E+01  4.76837158203E-06  0.00000000000E+00  1.
       -4    1    5    5    0  803 -4.28443398562E+01 -1.21961694116E+01 -3.33745989261E+02  3.36708174803E+02  1.27500000000E+00  0.00000000000E+00  1.
</event>
<event>
 9   1   1.0000000E+00   6.2497932E+01   7.8125000E-03   1.3829016E-01
        2   -1    0    0  501    0  0.00000000000E+00  0.00000000000E+00  4.73050538374E+03  4.73050538374E+03  0.00000000000E+00  0.00000000000E+00  1.
       -2   -1    0    0    0  501  0.00000000000E+00  0.00000000000E+00 -8.25702792446E-01  8.25702792446E-01  0.00000000000E+00  0.00000000000E+00  1.
       32    2    1    2    0    0 -1.42108547152E-14 -1.77635683940E-15  4.72967968094E+03  4.73133108653E+03  1.24995864012E+02  0.00000000000E+00  1.
       24    2    3    3    0    0 -4.29240244281E+01 -1.27410294460E+01  2.98685077762E+03  2.98788215383E+03  6.44778388581E+01  0.00000000000E+00  1.
      -24    2    3    3    0    0  4.29240244281E+01  1.27410294460E+01  1.74282890333E+03  1.74344893270E+03  1.25215399195E+01  0.00000000000E+00  1.
       16    1    4    4    0    0 -4.68797866959E+01 -1.02033355669E+01  1.12276097694E+03  1.12378558177E+03  3.05175781250E-05  0.00000000000E+00  1.
      -15    1    4    4    0    0  3.95576226786E+00 -2.53769387910E+00  1.86408980068E+03  1.86409657205E+03  1.77680000015E+00  0.00000000000E+00  1.
        1    1    5    5  803    0  2.03871720237E+01  7.15733632256E+00  1.07353896143E+03  1.07375638121E+03  1.52587890625E-05  0.00000000000E+00  1.
       -2    1    5    5    0  803  2.25368524044E+01  5.58369312342E+00  6.69289941891E+02  6.69692551695E+02  7.62939453125E-06  0.00000000000E+00  1.
</event>
<event>
 9   1   1.0000000E+00   6.2501143E+01   7.8125000E-03   1.3828896E-01
        2   -1    0    0  501    0  0.00000000000E+00  0.00000000000E+00  3.07261616986E+03  3.07261616986E+03  0.00000000000E+00  0.00000000000E+00  1.
       -2   -1    0    0    0  501  0.00000000000E+00  0.00000000000E+00 -1.27135724545E+00  1.27135724545E+00  0.00000000000E+00  0.00000000000E+00  1.
       32    2    1    2    0    0 -1.06581410364E-14 -3.55271367880E-15  3.07134481261E+03  3.07388752710E+03  1.25002285259E+02  0.00000000000E+00  1.
       24    2    3    3    0    0 -2.90255173887E+01  1.48269842282E+01  2.16043912129E+03  2.16220503097E+03  8.10621921803E+01  0.00000000000E+00  1.
      -24    2    3    3    0    0  2.90255173887E+01 -1.48269842282E+01  9.10905691317E+02  9.11682496134E+02  1.88009351839E+01  0.00000000000E+00  1.
       14    1    4    4    0    0 -2.58105354502E+01  4.76029173932E+01  1.42645669065E+03  1.42748411963E+03  3.41196895981E-05  0.00000000000E+00  1.
      -13    1    4    4    0    0 -3.21498193852E+00 -3.27759331650E+01  7.33982430642E+02  7.34720911340E+02  1.05660002982E-01  0.00000000000E+00  1.
        1    1    5    5  803    0  1.34758942322E+01 -1.63450920631E+01  6.14872473411E+02  6.15237287915E+02  1.52587890625E-05  0.00000000000E+00  1.
       -2    1    5    5    0  803  1.55496231565E+01  1.51810783491E+00  2.96033217906E+02  2.96445208419E+02  3.81469726562E-06  0.00000000000E+00  1.
</event>
<event>
 9   1   1.0000000E+00   6.2508005E+01   7.8125000E-03   1.3828640E-01
        3   -1    0    0  501    0  0.00000000000E+00  0.00000000000E+00  3.07184463191E+01  3.07184463191E+01  0.00000000000E+00  0.00000000000E+00  1.
       -3   -1    0    0    0  501  0.00000000000E+00  0.00000000000E+00 -1.27195581475E+02  1.27195581475E+02  0.00000000000E+00  0.00000000000E+00  1.
       32    2    1    2    0    0 -8.88178419700E-16  3.55271367880E-15 -9.64771351557E+01  1.57914027794E+02  1.25016009240E+02  0.00000000000E+00  1.
       24    2    3    3    0    0  4.52111510093E+00 -1.96526346208E+01 -7.77339405579E+01  1.16023017108E+02  8.37383332464E+01  0.00000000000E+00  1.
      -24    2    3    3    0    0 -4.52111510093E+00  1.96526346208E+01 -1.87431945978E+01  4.18910106859E+01  3.15734525078E+01  0.00000000000E+00  1.
       16    1    4    4    0    0 -2.76010426591E+00 -3.60748811320E+01 -8.80767198878E+01  9.52182955657E+01  1.90734863281E-06  0.00000000000E+00  1.
      -15    1    4    4    0    0  7.28121936684E+00  1.64222465112E+01  1.03427793299E+01  2.08047215423E+01  1.77680000000E+00  0.00000000000E+00  1.
       11    1    5    5    0    0  9.92252769094E+00  9.00819439892E+00  2.96706955897E+00  1.37261656749E+01  5.11000127252E-04  0.00000000000E+00  1.
      -12    1    5    5    0    0 -1.44436427919E+01  1.06444402218E+01 -2.17102641568E+01  2.81648450110E+01  0.00000000000E+00  0.00000000000E+00  1.
</event>
<event>
 9   1   1.0000000E+00   6.2501929E+01   7.8125000E-03   1.3828867E-01
       -1   -1    0    0    0  502  0.00000000000E+00  0.00000000000E+00  6.99417869065E+00  6.99417869065E+00  0.00000000000E+00  0.00000000000E+00  1.
        1   -1    0    0  502    0  0.00000000000E+00  0.00000000000E+00 -5.58534649388E+02  5.58534649388E+02  0.00000000000E+00  0.00000000000E+00  1.
       32    2    1    2    0    0  0.00000000000E+00 -1.77635683940E-15 -5.51540470697E+02  5.65528828078E+02  1.25003858224E+02  0.00000000000E+00  1.
       24    2    3    3    0    0  1.25033028127E+01 -6.07318281780E+00 -2.81254888127E+02  2.92879511469E+02  8.05039130233E+01  0.00000000000E+00  1.
      -24    2    3    3    0    0 -1.25033028127E+01  6.07318281780E+00 -2.70285582570E+02  2.72649316610E+02  3.30172314362E+01  0.00000000000E+00  1.
        4    1    4    4  804    0  4.14833163738E+01  4.22830857612E+00 -9.03924790930E+01  9.95548594111E+01  1.27500000001E+00  0.00000000000E+00  1.
       -3    1    4    4    0  804 -2.89800135611E+01 -1.03014913939E+01 -1.90862409034E+02  1.93324652058E+02  0.00000000000E+00  0.00000000000E+00  1.
       13    1    5    5    0    0 -7.21832288340E+00  1.93985973707E+01 -1.30591836046E+02  1.32221967052E+02  1.05659999969E-01  0.00000000000E+00  1.
      -14    1    5    5    0    0 -5.28497992933E+00 -1.33254145529E+01 -1.39693746524E+02  1.40427349558E+02  2.69739830470E-06  0.00000000000E+00  1.
</event>
<event>
 9   1   1.0000000E+00   6.2500782E+01   7.8125000E-03   1.3828909E-01
        1   -1    0    0  501    0  0.00000000000E+00  0.00000000000E+00  1.39685999124E+03  1.39685999124E+03  0.00000000000E+00  0.00000000000E+00  1.
       -1   -1    0    0    0  501  0.00000000000E+00  0.00000000000E+00 -2.79652063441E+00  2.79652063441E+00  0.00000000000E+00  0.00000000000E+00  1.
       32    2    1    2    0    0  0.00000000000E+00  1.15463194561E-14  1.39406347061E+03  1.39965651188E+03  1.25001564612E+02  0.00000000000E+00  1.
      -24    2    3    3    0    0  1.81062002686E+01 -8.11213914559E-01  7.48843519817E+02  7.49164050127E+02  1.23152050654E+01  0.00000000000E+00  1.
       24    2    3    3    0    0 -1.81062002686E+01  8.11213914559E-01  6.45219950790E+02  6.50492461748E+02  8.06422056825E+01  0.00000000000E+00  1.
        1    1    4    4  804    0  1.79533735383E+01  2.32586472408E+00  5.55223818475E+02  5.55518876250E+02  7.62939453125E-06  0.00000000000E+00  1.
       -2    1    4    4    0  804  1.52826730312E-01 -3.13707863864E+00  1.93619701342E+02  1.93645173978E+02  6.03156597170E-06  0.00000000000E+00  1.
       16    1    5    5    0    0  6.78208499181E+00 -3.44797589555E+01  1.89751605792E+02  1.92978036039E+02  2.69739830470E-06  0.00000000000E+00  1.
      -15    1    5    5    0    0 -2.48882852605E+01  3.52909728701E+01  4.55468344998E+02  4.57514425809E+02  1.77680000000E+00  0.00000000000E+00  1.
</event>
<event>
 9   1   1.0000000E+00   6.2499331E+01   7.8125000E-03   1.3828964E-01
       -3   -1    0    0    0  502  0.00000000000E+00  0.00000000000E+00  9.55517063513E+01  9.55517063513E+01  0.00000000000E+00  0.00000000000E+00  1.
        3   -1    0    0  502    0  0.00000000000E+00  0.00000000000E+00 -4.08801320066E+01  4.08801320066E+01  0.00000000000E+00  0.00000000000E+00  1.
       32    2    1    2    0    0 -5.32907051820E-15  0.00000000000E+00  5.46715743447E+01  1.36431838358E+02  1.24998661898E+02  0.00000000000E+00  1.
      -24    2    3    3    0    0  1.14417939449E+01 -8.31053096884E-01  1.72031546481E+01  8.25675269864E+01  7.99364915722E+01  0.00000000000E+00  1.
       24    2    3    3    0    0 -1.14417939449E+01  8.31053096884E-01  3.74684196966E+01  5.38643113716E+01  3.69577632852E+01  0.00000000000E+00  1.
       11    1    4    4    0    0  3.99008012405E+01 -1.46739315315E+01 -6.52714657878E+00  4.30116478288E+01  5.11000287159E-04  0.00000000000E+00  1.
      -12    1    4    4    0    0 -2.84590072956E+01  1.38428784346E+01  2.37303012269E+01  3.95558792576E+01  0.00000000000E+00  0.00000000000E+00  1.
        4    1    5    5  803    0  1.12469883348E+01  9.01531599470E+00  1.60140236280E+01  2.15834484466E+01  1.27500000000E+00  0.00000000000E+00  1.
       -3    1    5    5    0  803 -2.26887822797E+01 -8.18426289781E+00  2.14543960686E+01  3.22808630250E+01  0.00000000000E+00  0.00000000000E+00  1.
</event>
<event>
 9   1   1.0000000E+00   6.2500002E+01   7.8125000E-03   1.3828939E-01
       -1   -1    0    0    0  502  0.00000000000E+00  0.00000000000E+00  2.07584620179E+00  2.07584620179E+00  0.00000000000E+00  0.00000000000E+00  1.
        1   -1    0    0  502    0  0.00000000000E+00  0.00000000000E+00 -1.88176282003E+03  1.88176282003E+03  0.00000000000E+00  0.00000000000E+00  1.
       32    2    1    2    0    0 -8.88178419700E-16  0.00000000000E+00 -1.87968697383E+03  1.88383866623E+03  1.25000003242E+02  0.00000000000E+00  1.
       24    2    3    3    0    0  7.74696407343E+00  2.81335033886E+01 -1.01219563154E+03  1.01579486458E+03  8.02975774109E+01  0.00000000000E+00  1.
      -24    2    3    3    0    0 -7.74696407343E+00 -2.81335033886E+01 -8.67491342288E+02  8.68043801649E+02  1.03587244218E+01  0.00000000000E+00  1.
        2    1    4    4  803    0 -3.03744684572E+01  2.28197555102E+01 -2.77101775828E+02  2.79694018067E+02  3.81469726562E-06  0.00000000000E+00  1.
       -1    1    4    4    0  803  3.81214325306E+01  5.31374787835E+00 -7.35093855712E+02  7.36100846515E+02  0.00000000000E+00  0.00000000000E+00  1.
        3    1    5    5  804    0 -1.90752700362E+00 -2.25955176644E+01 -5.99842248814E+02  6.00270705216E+02  1.52587890625E-05  0.00000000000E+00  1.
       -4    1    5    5    0  804 -5.83943706981E+00 -5.53798572421E+00 -2.67649093474E+02  2.67773096433E+02  1.27500000001E+00  0.00000000000E+00  1.
</event>
<event>
 9   1   1.0000000E+00   6.2495408E+01   7.8125000E-03   1.3829110E-01
       -2   -1    0    0    0  502  0.00000000000E+00  0.00000000000E+00  4.09964437818E+00  4.09964437818E+00  0.00000000000E+00  0.00000000000E+00  1.
        2   -1    0    0  502    0  0.00000000000E+00  0.00000000000E+00 -9.52686528107E+02  9.52686528107E+02  0.00000000000E+00  0.00000000000E+00  1.
       32    2    1    2    0    0 -3.55271367880E-15 -3.55271367880E-15 -9.48586883729E+02  9.56786172485E+02  1.24990815169E+02  0.00000000000E+00  1.
       24    2    3    3    0    0  2.86019270040E+01  1.99431928415E+01 -3.82322580232E+02  3.84013087775E+02  8.92720886688E+00  0.00000000000E+00  1.
      -24    2    3    3    0    0 -2.86019270040E+01 -1.99431928415E+01 -5.66264303497E+02  5.72773084711E+02  7.87270219472E+01  0.00000000000E+00  1.
        4    1    4    4  804    0  1.22486768115E+01  1.02404515883E+01 -1.31727032875E+02  1.32697150487E+02  1.27500000001E+00  0.00000000000E+00  1.
       -3    1    4    4    0  804  1.63532501925E+01  9.70274125319E+00 -2.50595547357E+02  2.51315937287E+02  0.00000000000E+00  0.00000000000E+00  1.
        1    1    5    5  803    0  5.87578043574E+00  2.30445250733E+01 -8.18637059657E+01  8.52481161263E+01  1.90734863281E-06  0.00000000000E+00  1.
       -2    1    5    5    0  803 -3.44777074397E+01 -4.29877179148E+01 -4.84400597531E+02  4.87524968784E+02  5.39479660939E-06  0.00000000000E+00  1.
</event>
<event>
 9   1   1.0000000E+00   6.2492609E+01   7.8125000E-03   1.3829215E-01
        2   -1    0    0  501    0  0.00000000000E+00  0.00000000000E+00  4.19483070509E+01  4.19483070509E+01  0.00000000000E+00  0.00000000000E+00  1.
       -2   -1    0    0    0  501  0.00000000000E+00  0.00000000000E+00 -9.30985409209E+01  9.30985409209E+01  0.00000000000E+00  0.00000000000E+00  1.
       32    2    1    2    0    0 -1.06581410364E-14 -4.44089209850E-15 -5.11502338700E+01  1.35046847972E+02  1.24985218015E+02  0.00000000000E+00  1.
      -24    2    3    3    0    0 -2.57263942820E+01  2.42305898924E+00 -4.90168522179E+01  9.36772456490E+01  7.55318209328E+01  0.00000000000E+00  1.
       24    2    3    3    0    0  2.57263942820E+01 -2.42305898924E+00 -2.13338165209E+00  4.13696023228E+01  3.22362234366E+01  0.00000000000E+00  1.
        3    1    4    4  803    0  1.52329055363E+01 -2.27211899972E+01 -3.33003274055E+01  4.30953093884E+01  1.50789149292E-06  0.00000000000E+00  1.
       -4    1    4    4    0  803 -4.09592998183E+01  2.51442489865E+01 -1.57165248124E+01  5.05819362606E+01  1.27500000000E+00  0.00000000000E+00  1.
       12    1    5    5    0    0  2.62909792521E+01  6.72997586989E+00  7.41222378385E+00  2.81327075180E+01  0.00000000000E+00  0.00000000000E+00  1.
      -11    1    5    5    0    0 -5.64584970103E-01 -9.15303485913E+00 -9.54560543595E+00  1.32368949048E+01  5.10999904773E-04  0.00000000000E+00  1.
</event>
<event>
 9   1   1.0000000E+00   6.2499853E+01   7.8125000E-03   1.3828944E-01
        2   -1    0    0  501    0  0.00000000000E+00  0.00000000000E+00  1.56748166929E+02  1.56748166929E+02  0.00000000000E+00  0.00000000000E+00  1.
       -2   -1    0    0    0  501  0.00000000000E+00  0.00000000000E+00 -2.49204297513E+01  2.49204297513E+01  0.00000000000E+00  0.00000000000E+00  1.
       32    2    1    2    0    0 -8.88178419700E-16  0.00000000000E+00  1.31827737178E+02  1.81668596680E+02  1.24999706921E+02  0.00000000000E+00  1.
      -24    2    3    3    0    0  2.41843766355E+00 -2.15222271807E+01  7.82034052704E+01  8.27636524175E+01  1.62786504982E+01  0.00000000000E+00  1.
       24    2    3    3    0    0 -2.41843766355E+00  2.15222271807E+01  5.36243319072E+01  9.89049442627E+01  8.02344310353E+01  0.00000000000E+00  1.
       11    1    4    4    0    0 -4.49935462789E+00 -4.16671155212E+00  3.72285747834E+01  3.77302591813E+01  5.11000600020E-04  0.00000000000E+00  1.
      -12    1    4    4    0    0  6.91779229144E+00 -1.73555156286E+01  4.09748304871E+01  4.50333932362E+01  0.00000000000E+00  0.00000000000E+00  1.
       16    1    5    5    0    0  1.61221580219E+01 -2.39062763101E+01  4.02500758189E+00  2.91141669665E+01  0.00000000000E+00  0.00000000000E+00  1.
      -15    1    5    5    0    0 -1.85405956855E+01  4.54285034908E+01  4.95993243253E+01  6.97907773961E+01  1.77680000000E+00  0.00000000000E+00  1.
</event>
<event>
 9   1   1.0000000E+00   6.2498300E+01   7.8125000E-03   1.3829002E-01
        1   -1    0    0  501    0  0.00000000000E+00  0.00000000000E+00  3.34851434771E+02  3.34851434771E+02  0.00000000000E+00  0.00000000000E+00  1.
       -1   -1    0    0    0  501  0.00000000000E+00  0.00000000000E+00 -1.16649866579E+01  1.16649866579E+01  0.00000000000E+00  0.00000000000E+00  1.
       32    2    1    2    0    0  0.00000000000E+00  3.55271367880E-15  3.23186448113E+02  3.46516421429E+02  1.24996600257E+02  0.00000000000E+00  1.
      -24    2    3    3    0    0 -2.89357036106E+01 -7.54593191670E+00  2.84576671429E+02  2.97139188269E+02  8.00849502195E+01  0.00000000000E+00  1.
       24    2    3    3    0    0  2.89357036106E+01  7.54593191670E+00  3.86097766847E+01  4.93772331604E+01  7.29248016793E+00  0.00000000000E+00  1.
        1    1    4    4  804    0  8.88214089035E+00 -3.66751482990E+01  1.22915020486E+02  1.28577063337E+02  1.34869915235E-06  0.00000000000E+00  1.
       -2    1    4    4    0  804 -3.78178445009E+01  2.91292163823E+01  1.61661650943E+02  1.68562125132E+02  2.69739830470E-06  0.00000000000E+00  1.
        4    1    5    5  803    0  1.77312052395E+01  7.55546780843E+00  2.12643941613E+01  2.87277012150E+01  1.27500000000E+00  0.00000000000E+00  1.
       -3    1    5    5    0  803  1.12044983711E+01 -9.53589173067E-03  1.73453825234E+01  2.06495320454E+01  0.00000000000E+00  0.00000000000E+00  1.
</event>
<event>
 9   1   1.0000000E+00   6.2499152E+01   7.8125000E-03   1.3828970E-01
       -2   -1    0    0    0  502  0.00000000000E+00  0.00000000000E+00  1.56259794548E+01  1.56259794548E+01  0.00000000000E+00  0.00000000000E+00  1.
        2   -1    0    0  502    0  0.00000000000E+00  0.00000000000E+00 -2.49977545739E+02  2.49977545739E+02  0.00000000000E+00  0.00000000000E+00  1.
       32    2    1    2    0    0  0.00000000000E+00  8.88178419700E-16 -2.34351566284E+02  2.65603525194E+02  1.24998303891E+02  0.00000000000E+00  1.
      -24    2    3    3    0    0 -2.25506766331E+01  7.67087817420E+00 -8.15207638406E+01  9.13719766569E+01  3.37020443364E+01  0.00000000000E+00  1.
       24    2    3    3    0    0  2.25506766331E+01 -7.67087817420E+00 -1.52830802443E+02  1.74231548537E+02  8.01997689613E+01  0.00000000000E+00  1.
        3    1    4    4  804    0  5.70149333147E+00  8.23384147641E+00 -8.71994127906E+00  1.32793279285E+01  1.13091861969E-06  0.00000000000E+00  1.
       -2    1    4    4    0  804 -2.82521699646E+01 -5.62963302215E-01 -7.28008225616E+01  7.80926489284E+01  0.00000000000E+00  0.00000000000E+00  1.
        2    1    5    5  803    0 -2.79055576016E+01 -8.19102162733E+00 -3.17460988463E+01  4.30537777777E+01  1.81574180266E-06  0.00000000000E+00  1.
       -1    1    5    5    0  803  5.04562342348E+01  5.20143453135E-01 -1.21084703597E+02  1.31177770959E+02  2.33601545599E-06  0.00000000000E+00  1.
</event>
<event>
 9   1   1.0000000E+00   6.2503842E+01   7.8125000E-03   1.3828795E-01
        1   -1    0    0  501    0  0.00000000000E+00  0.00000000000E+00  5.26348912257E+01  5.26348912257E+01  0.00000000000E+00  0.00000000000E+00  1.
       -1   -1    0    0    0  501  0.00000000000E+00  0.00000000000E+00 -7.42232047294E+01  7.42232047294E+01  0.00000000000E+00  0.00000000000E+00  1.
       32    2    1    2    0    0  0.00000000000E+00  5.32907051820E-15 -2.15883135037E+01  1.26858095955E+02  1.25007684681E+02  0.00000000000E+00  1.
      -24    2    3    3    0    0  2.35033870584E+01  1.26369381067E+01 -2.69349350498E+01  4.26255670652E+01  1.94768281186E+01  0.00000000000E+00  1.
       24    2    3    3    0    0 -2.35033870584E+01 -1.26369381067E+01  5.34662154603E+00  8.42325288899E+01  7.97146859324E+01  0.00000000000E+00  1.
       15    1    4    4    0    0  1.01577596752E+01  1.22375294833E+01 -2.41748190264E+01  2.89916557422E+01  1.77680000000E+00  0.00000000000E+00  1.
      -16    1    4    4    0    0  1.33456273833E+01  3.99408623423E-01 -2.76011602337E+00  1.36339113230E+01  0.00000000000E+00  0.00000000000E+00  1.
       16    1    5    5    0    0 -3.84127395021E+00 -4.18215739887E+01  1.94462457813E+01  4.62812696530E+01  1.45024359949E-06  0.00000000000E+00  1.
      -15    1    5    5    0    0 -1.96621131082E+01  2.91846358819E+01 -1.40996242353E+01  3.79512593369E+01  1.77680000000E+00  0.00000000000E+00  1.
</event>
<event>
 9   1   1.0000000E+00   6.2500346E+01   7.8125000E-03   1.3828926E-01
       -5   -1    0    0    0  502  0.00000000000E+00  0.00000000000E+00  1.64244937193E+02  1.64244937193E+02  0.00000000000E+00  0.00000000000E+00  1.
        5   -1    0    0  502    0  0.00000000000E+00  0.00000000000E+00 -2.37833400785E+01  2.37833400785E+01  0.00000000000E+00  0.00000000000E+00  1.
       32    2    1    2    0    0  3.55271367880E-15  0.00000000000E+00  1.40461597114E+02  1.88028277271E+02  1.25000691157E+02  0.00000000000E+00  1.
      -24    2    3    3    0    0 -2.67938337619E+01 -1.08093800197E+01  1.04771952189E+02  1.32908715395E+02  7.65036759787E+01  0.00000000000E+00  1.
       24    2    3    3    0    0  2.67938337619E+01  1.08093800197E+01  3.56896449252E+01  5.51195618767E+01  3.04903775399E+01  0.00000000000E+00  1.
       13    1    4    4    0    0 -5.22125114827E+01 -1.49502215657E+01  5.76177026596E+01  7.91799615054E+01  1.05660000023E-01  0.00000000000E+00  1.
      -14    1    4    4    0    0  2.54186777208E+01  4.14084154595E+00  4.71542495298E+01  5.37287538893E+01  1.16800772800E-06  0.00000000000E+00  1.
        4    1    5    5  804    0  1.92457051333E+01 -8.56443413894E+00  1.99592678959E+01  2.90472838341E+01  1.27500000000E+00  0.00000000000E+00  1.
       -3    1    5    5    0  804  7.54812862861E+00  1.93738141587E+01  1.57303770293E+01  2.60722781426E+01  0.00000000000E+00  0.00000000000E+00  1.
</event>
<event>
 9   1   1.0000000E+00   6.2500300E+01   7.8125000E-03   1.3828927E-01
        1   -1    0    0  501    0  0.00000000000E+00  0.00000000000E+00  1.71977640133E+02  1.71977640133E+02  0.00000000000E+00  0.00000000000E+00  1.
       -1   -1    0    0    0  501  0.00000000000E+00  0.00000000000E+00 -2.27139265106E+01  2.27139265106E+01  0.00000000000E+00  0.00000000000E+00  1.
       32    2    1    2    0    0  3.55271367880E-15  3.55271367880E-15  1.49263713622E+02  1.94691566643E+02  1.25000599670E+02  0.00000000000E+00  1.
      -24    2    3    3    0    0 -1.84609706791E+01  1.80764609033E+01  4.86394155373E+01  6.33272845062E+01  3.12567807351E+01  0.00000000000E+00  1.
       24    2    3    3    0    0  1.84609706791E+01 -1.80764609033E+01  1.00624298085E+02  1.31364282137E+02  8.03975085380E+01  0.00000000000E+00  1.
        1    1    4    4  803    0 -7.34238872338E+00  1.04585190111E+01  4.81753657128E+01  4.98413198421E+01  0.00000000000E+00  0.00000000000E+00  1.
       -2    1    4    4    0  803 -1.11185819557E+01  7.61794189222E+00  4.64049824439E-01  1.34859648641E+01  0.00000000000E+00  0.00000000000E+00  1.
       16    1    5    5    0    0  4.17913791795E+01 -1.85277866302E+01  9.75895186318E+01  1.07766007718E+02  2.33601545599E-06  0.00000000000E+00  1.
      -15    1    5    5    0    0 -2.33304085004E+01  4.51325726875E-01  3.03477945295E+00  2.35982745190E+01  1.77680000000E+00  0.00000000000E+00  1.
</event>
<event>
 9   1   1.0000000E+00   6.2498333E+01   7.8125000E-03   1.3829001E-01
       -1   -1    0    0    0  502  0.00000000000E+00  0.00000000000E+00  5.50489344937E+01  5.50489344937E+01  0.00000000000E+00  0.00000000000E+00  1.
        1   -1    0    0  502    0  0.00000000000E+00  0.00000000000E+00 -7.09558075047E+01  7.09558075047E+01  0.00000000000E+00  0.00000000000E+00  1.
       32    2    1    2    0    0  3.55271367880E-15  0.00000000000E+00 -1.59068730110E+01  1.26004741998E+02  1.24996665544E+02  0.00000000000E+00  1.
       24    2    3    3    0    0 -9.97672414979E+00  8.81754051395E+00 -9.68118712429E+00  4.48980789829E+01  4.17711391602E+01  0.00000000000E+00  1.
      -24    2    3    3    0    0  9.97672414979E+00 -8.81754051395E+00 -6.22568588669E+00  8.11066630155E+01  7.97636983551E+01  0.00000000000E+00  1.
        2    1    4    4  803    0  8.85427855849E+00  2.83778819338E+00  1.22503814245E+01  1.53793086863E+01  0.00000000000E+00  0.00000000000E+00  1.
       -1    1    4    4    0  803 -1.88310027083E+01  5.97975232057E+00 -2.19315685488E+01  2.95187702966E+01  0.00000000000E+00  0.00000000000E+00  1.
        1    1    5    5  804    0 -3.31883871254E+01 -4.16012823531E+00  9.75771655941E+00  3.48423411867E+01  0.00000000000E+00  0.00000000000E+00  1.
       -2    1    5    5    0  804  4.31651112751E+01 -4.65741227864E+00 -1.59834024461E+01  4.62643218288E+01  0.00000000000E+00  0.00000000000E+00  1.
</event>
<event>
 9   1   1.0000000E+00   6.2499214E+01   7.8125000E-03   1.3828968E-01
       -2   -1    0    0    0  502  0.00000000000E+00  0.00000000000E+00  9.37099385152E+02  9.37099385152E+02  0.00000000000E+00  0.00000000000E+00  1.
        2   -1    0    0  502    0  0.00000000000E+00  0.00000000000E+00 -4.16834305827E+00  4.16834305827E+00  0.00000000000E+00  0.00000000000E+00  1.
       32    2    1    2    0    0 -3.55271367880E-15 -8.88178419700E-16  9.32931042094E+02  9.41267728210E+02  1.24998427462E+02  0.00000000000E+00  1.
      -24    2    3    3    0    0 -1.37551711070E+01 -7.34148911398E+00  5.03436005592E+02  5.10014269787E+02  8.01476229597E+01  0.00000000000E+00  1.
       24    2    3    3    0    0  1.37551711070E+01  7.34148911398E+00  4.29495036502E+02  4.31253458423E+02  3.56434682260E+01  0.00000000000E+00  1.
        1    1    4    4  804    0  2.96157106527E+01 -8.34172510286E+00  1.10925208859E+02  1.15113321030E+02  5.39479660939E-06  0.00000000000E+00  1.
       -2    1    4    4    0  804 -4.33708817596E+01  1.00023598888E+00  3.92510796733E+02  3.94900948857E+02  0.00000000000E+00  0.00000000000E+00  1.
       12    1    5    5    0    0  1.47372060693E+01 -1.22068125719E+01  1.90765596009E+02  1.91722988123E+02  2.69739830470E-06  0.00000000000E+00  1.
      -11    1    5    5    0    0 -9.82034962318E-01  1.95483016859E+01  2.38729440493E+02  2.39530470399E+02  5.11005717009E-04  0.00000000000E+00  1.
</event>
<event>
 9   1   1.0000000E+00   6.2494146E+01   7.8125000E-03   1.3829157E-01
        1   -1    0    0  501    0  0.00000000000E+00  0.00000000000E+00  5.56711148763E+02  5.56711148763E+02  0.00000000000E+00  0.00000000000E+00  1.
       -1   -1    0    0    0  501  0.00000000000E+00  0.00000000000E+00 -7.01534053997E+00  7.01534053997E+00  0.00000000000E+00  0.00000000000E+00  1.
       32    2    1    2    0    0 -3.55271367880E-15  6.66133814775E-16  5.49695808223E+02  5.63726489303E+02  1.24988292107E+02  0.00000000000E+00  1.
       24    2    3    3    0    0  2.75330338027E+01 -1.62133522759E+00  2.76937580662E+02  2.89493421515E+02  7.96951745042E+01  0.00000000000E+00  1.
      -24    2    3    3    0    0 -2.75330338027E+01  1.62133522759E+00  2.72758227561E+02  2.74233067788E+02  6.78440033198E+00  0.00000000000E+00  1.
       14    1    4    4    0    0 -4.80062172732E-01 -1.14504022091E+01  5.05347699853E-01  1.14715974926E+01  1.75852643221E-06  0.00000000000E+00  1.
      -13    1    4    4    0    0  2.80130959754E+01  9.82906698156E+00  2.76432232962E+02  2.78021824123E+02  1.05660000021E-01  0.00000000000E+00  1.
       13    1    5    5    0    0 -6.71825432747E+00  1.47166573889E+00  9.76625839637E+01  9.79045055744E+01  1.05660000038E-01  0.00000000000E+00  1.
      -14    1    5    5    0    0 -2.08147794752E+01  1.49669488698E-01  1.75095643598E+02  1.76328562214E+02  1.90734863281E-06  0.00000000000E+00  1.
</event>
<event>
 9   1   1.0000000E+00   6.2499104E+01   7.8125000E-03   1.3828972E-01
       -1   -1    0    0    0  502  0.00000000000E+00  0.00000000000E+00  3.99346239542E+02  3.99346239542E+02  0.00000000000E+00  0.00000000000E+00  1.
        1   -1    0    0  502    0  0.00000000000E+00  0.00000000000E+00 -9.78133153388E+00  9.78133153388E+00  0.00000000000E+00  0.00000000000E+00  1.
       32    2    1    2    0    0  3.55271367880E-15  4.44089209850E-15  3.89564908008E+02  4.09127571076E+02  1.24998207439E+02  0.00000000000E+00  1.
       24    2    3    3    0    0  9.56340347912E+00  5.75632952454E+00  1.92935904055E+02  1.95944673949E+02  3.23335454228E+01  0.00000000000E+00  1.
      -24    2    3    3    0    0 -9.56340347912E+00 -5.75632952454E+00  1.96629003953E+02  2.13182897127E+02  8.16050759222E+01  0.00000000000E+00  1.
        2    1    4    4  804    0 -8.67255729725E+00 -1.97837868986E+00  1.21144421836E+02  1.21470565053E+02  1.34869915235E-06  0.00000000000E+00  1.
       -1    1    4    4    0  804  1.82359607764E+01  7.73470821439E+00  7.17914822198E+01  7.44741088964E+01  0.00000000000E+00  0.00000000000E+00  1.
       15    1    5    5    0    0 -5.27559022200E+00 -4.36930843443E+01  9.91025573831E+01  1.08449948685E+02  1.77680000000E+00  0.00000000000E+00  1.
      -16    1    5    5    0    0 -4.28781325712E+00  3.79367548198E+01  9.75264465695E+01  1.04732948442E+02  1.90734863281E-06  0.00000000000E+00  1.
</event>
<event>
 9   1   1.0000000E+00   6.2500836E+01   7.8125000E-03   1.3828907E-01
        4   -1    0    0  501    0  0.00000000000E+00  0.00000000000E+00  9.46887415460E+01  9.46887415460E+01  0.00000000000E+00  0.00000000000E+00  1.
       -4   -1    0    0    0  501  0.00000000000E+00  0.00000000000E+00 -4.12546882165E+01  4.12546882165E+01  0.00000000000E+00  0.00000000000E+00  1.
       32    2    1    2    0    0  5.32907051820E-15  3.55271367880E-15  5.34340533295E+01  1.35943429763E+02  1.25001672150E+02  0.00000000000E+00  1.
      -24    2    3    3    0    0 -1.53977835053E+01 -2.92790351928E+01  3.34766333805E+01  4.76069131381E+01  7.16795349750E+00  0.00000000000E+00  1.
       24    2    3    3    0    0  1.53977835053E+01  2.92790351928E+01  1.99574199490E+01  8.83365166245E+01  7.94398383661E+01  0.00000000000E+00  1.
        1    1    4    4  804    0 -6.79485075670E+00 -7.86023749652E+00  1.38149468092E+01  1.72860084781E+01  0.00000000000E+00  0.00000000000E+00  1.
       -2    1    4    4    0  804 -8.60293274860E+00 -2.14187976963E+01  1.96616865713E+01  3.03209047599E+01  0.00000000000E+00  0.00000000000E+00  1.
       14    1    5    5    0    0  5.68383582120E+00  5.44707866029E+01  2.60675487873E+01  6.06538514415E+01  2.10565587671E-06  0.00000000000E+00  1.
      -13    1    5    5    0    0  9.71394768410E+00 -2.51917514100E+01 -6.11012883833E+00  2.76826652830E+01  1.05659999981E-01  0.00000000000E+00  1.
</event>
<event>
 9   1   1.0000000E+00   6.2508990E+01   7.8125000E-03   1.3828603E-01
       -2   -1    0    0    0  502  0.00000000000E+00  0.00000000000E+00  8.96489042829E+00  8.96489042829E+00  0.00000000000E+00  0.00000000000E+00  1.
        2   -1    0    0  502    0  0.00000000000E+00  0.00000000000E+00 -4.35852939917E+02  4.35852939917E+02  0.00000000000E+00  0.00000000000E+00  1.
       32    2    1    2    0    0 -3.55271367880E-15  2.22044604925E-16 -4.26888049489E+02  4.44817830345E+02  1.25017980294E+02  0.00000000000E+00  1.
      -24    2    3    3    0    0 -3.04495175092E+01 -2.83426153520E-01 -2.90642549731E+02  3.03326793136E+02  8.12822137576E+01  0.00000000000E+00  1.
       24    2    3    3    0    0  3.04495175092E+01  2.83426153520E-01 -1.36245499758E+02  1.41491037209E+02  2.30135603349E+01  0.00000000000E+00  1.
        1    1    4    4  803    0 -5.63313521173E+01 -4.92658858100E+00 -1.51225025523E+02  1.61451233761E+02  2.69739830470E-06  0.00000000000E+00  1.
       -2    1    4    4    0  803  2.58818346081E+01  4.64316242748E+00 -1.39417524208E+02  1.41875559575E+02  2.69739830470E-06  0.00000000000E+00  1.
        2    1    5    5  804    0  2.35199025287E+01 -1.15231399767E+00 -5.36188771368E+01  5.85619128755E+01  1.16800772800E-06  0.00000000000E+00  1.
       -1    1    5    5    0  804  6.92961498058E+00  1.43574015119E+00 -8.26266226209E+01  8.29291245335E+01  0.00000000000E+00  0.00000000000E+00  1.
</event>
<event>
 9   1   1.0000000E+00   6.2500207E+01   7.8125000E-03   1.3828931E-01
       -1   -1    0    0    0  502  0.00000000000E+00  0.00000000000E+00  8.09084694287E+00  8.09084694287E+00  0.00000000000E+00  0.00000000000E+00  1.
        1   -1    0    0  502    0  0.00000000000E+00  0.00000000000E+00 -4.82801848370E+02  4.82801848370E+02  0.00000000000E+00  0.00000000000E+00  1.
       32    2    1    2    0    0  0.00000000000E+00 -3.55271367880E-15 -4.74711001427E+02  4.90892695313E+02  1.25000413742E+02  0.00000000000E+00  1.
      -24    2    3    3    0    0 -1.66593063609E+01  8.13517964254E+00 -2.36232632838E+02  2.38479772342E+02  2.68892425111E+01  0.00000000000E+00  1.
       24    2    3    3    0    0  1.66593063609E+01 -8.13517964254E+00 -2.38478368589E+02  2.52412922970E+02  8.06017230657E+01  0.00000000000E+00  1.
        3    1    4    4  804    0 -2.78550069216E+00  1.48592111100E+01 -7.51224210864E+01  7.66285412501E+01  1.90734863281E-06  0.00000000000E+00  1.
       -4    1    4    4    0  804 -1.38738056687E+01 -6.72403146742E+00 -1.61110211751E+02  1.61851231192E+02  1.27500000000E+00  0.00000000000E+00  1.
       14    1    5    5    0    0  1.18208361384E+01 -3.99627253001E+01 -1.87840050181E+02  1.92407474052E+02  2.69739830470E-06  0.00000000000E+00  1.
      -13    1    5    5    0    0  4.83847022250E+00  3.18275456576E+01 -5.06383184078E+01  6.00054490183E+01  1.05660000021E-01  0.00000000000E+00  1.
</event>
<event>
 9   1   1.0000000E+00   6.2497827E+01   7.8125000E-03   1.3829020E-01
       -2   -1    0    0    0  502  0.00000000000E+00  0.00000000000E+00  1.83797165157E+01  1.83797165157E+01  0.00000000000E+00  0.00000000000E+00  1.
        2   -1    0    0  502    0  0.00000000000E+00  0.00000000000E+00 -2.12515701773E+02  2.12515701773E+02  0.00000000000E+00  0.00000000000E+00  1.
       32    2    1    2    0    0  0.00000000000E+00  1.77635683940E-15 -1.94135985258E+02  2.30895418289E+02  1.24995653584E+02  0.00000000000E+00  1.
      -24    2    3    3    0    0  2.87922660995E+01 -2.12198159815E-01 -7.90485926804E+01  1.09207931463E+02  6.96322674810E+01  0.00000000000E+00  1.
       24    2    3    3    0    0 -2.87922660995E+01  2.12198159815E-01 -1.15087392577E+02  1.21687486826E+02  2.70868400618E+01  0.00000000000E+00  1.
        3    1    4    4  803    0  4.24173173648E+01 -2.12352901236E+01 -3.66512479331E+01  5.99456449302E+01  1.16800772800E-06  0.00000000000E+00  1.
       -4    1    4    4    0  803 -1.36250512653E+01  2.10230919638E+01 -4.23973447473E+01  4.92622866331E+01  1.27500000000E+00  0.00000000000E+00  1.
        4    1    5    5  804    0 -1.06424020354E+01  7.61122738037E+00 -8.33889907582E+01  8.44188421384E+01  1.27500000000E+00  0.00000000000E+00  1.
       -3    1    5    5    0  804 -1.81498640640E+01 -7.39902922056E+00 -3.16984018192E+01  3.72686447875E+01  1.58148993986E-06  0.00000000000E+00  1.
</event>
<event>
 9   1   1.0000000E+00   6.2510751E+01   7.8125000E-03   1.3828537E-01
       -1   -1    0    0    0  502  0.00000000000E+00  0.00000000000E+00  5.73183934924E+01  5.73183934924E+01  0.00000000000E+00  0.00000000000E+00  1.
        1   -1    0    0  502    0  0.00000000000E+00  0.00000000000E+00 -6.81734745899E+01  6.81734745899E+01  0.00000000000E+00  0.00000000000E+00  1.
       32    2    1    2    0    0  0.00000000000E+00 -7.10542735760E-15 -1.08550810975E+01  1.25491868082E+02  1.25021502827E+02  0.00000000000E+00  1.
      -24    2    3    3    0    0  4.06198607228E+00 -1.46773980300E+01  2.48074457820E+01  8.62980933534E+01  8.12405428737E+01  0.00000000000E+00  1.
       24    2    3    3    0    0 -4.06198607228E+00  1.46773980300E+01 -3.56625268795E+01  3.91937747289E+01  5.69301416528E+00  0.00000000000E+00  1.
       13    1    4    4    0    0  4.64563308440E+00 -4.60207817748E+01  2.91143059404E+01  5.46548098190E+01  1.05659999994E-01  0.00000000000E+00  1.
      -14    1    4    4    0    0 -5.83647012119E-01  3.13433837448E+01 -4.30686015848E+00  3.16432836344E+01  1.55429897432E-06  0.00000000000E+00  1.
       14    1    5    5    0    0 -3.29905255184E+00  6.17172057350E+00 -2.19550581507E+01  2.30434038497E+01  0.00000000000E+00  0.00000000000E+00  1.
      -13    1    5    5    0    0 -7.62933520435E-01  8.50567745649E+00 -1.37074687287E+01  1.61503708792E+01  1.05660000000E-01  0.00000000000E+00  1.
</event>
<event>
 9   1   1.0000000E+00   6.2498585E+01   7.8125000E-03   1.3828991E-01
       -2   -1    0    0    0  502  0.00000000000E+00  0.00000000000E+00  3.54955056112E+00  3.54955056112E+00  0.00000000000E+00  0.00000000000E+00  1.
        2   -1    0    0  502    0  0.00000000000E+00  0.00000000000E+00 -1.10044159439E+03  1.10044159439E+03  0.00000000000E+00  0.00000000000E+00  1.
       32    2    1    2    0    0  1.33226762955E-15 -1.77635683940E-15 -1.09689204383E+03  1.10399114495E+03  1.24997169230E+02  0.00000000000E+00  1.
      -24    2    3    3    0    0 -2.90098841775E+00 -1.10639682031E+01 -1.06889373288E+03  1.07205871527E+03  8.15184008720E+01  0.00000000000E+00  1.
       24    2    3    3    0    0  2.90098841775E+00  1.10639682031E+01 -2.79983109554E+01  3.19324296827E+01  1.02443898248E+01  0.00000000000E+00  1.
        1    1    4    4  803    0  2.70032598216E+01 -1.13526586260E+01 -1.59132855368E+02  1.61806441641E+02  6.03156597170E-06  0.00000000000E+00  1.
       -2    1    4    4    0  803 -2.99042482393E+01  2.88690422847E-01 -9.09760877508E+02  9.10252273630E+02  1.52587890625E-05  0.00000000000E+00  1.
        4    1    5    5  804    0  9.04908413945E-01 -1.58446287272E+00 -6.92251866801E+00  7.27160721860E+00  1.27500000000E+00  0.00000000000E+00  1.
       -3    1    5    5    0  804  1.99608000381E+00  1.26484310758E+01 -2.10757922874E+01  2.46608224641E+01  0.00000000000E+00  0.00000000000E+00  1.
</event>
<event>
 9   1   1.0000000E+00   6.2501462E+01   7.8125000E-03   1.3828884E-01
        2   -1    0    0  501    0  0.00000000000E+00  0.00000000000E+00  6.49206462052E+02  6.49206462052E+02  0.00000000000E+00  0.00000000000E+00  1.
       -2   -1    0    0    0  501  0.00000000000E+00  0.00000000000E+00 -6.01724252353E+00  6.01724252353E+00  0.00000000000E+00  0.00000000000E+00  1.
       32    2    1    2    0    0  0.00000000000E+00  3.55271367880E-15  6.43189219528E+02  6.55223704575E+02  1.25002923646E+02  0.00000000000E+00  1.
       24    2    3    3    0    0  1.15346688230E+01 -2.97605492705E+01  3.76746898286E+02  3.86837071492E+02  8.17676930997E+01  0.00000000000E+00  1.
      -24    2    3    3    0    0 -1.15346688230E+01  2.97605492705E+01  2.66442321242E+02  2.68386633083E+02  4.59732432678E+00  0.00000000000E+00  1.
        2    1    4    4  803    0  3.58560426958E+01 -4.59089971376E+01  2.34682098773E+02  2.41803596542E+02  2.69739830470E-06  0.00000000000E+00  1.
       -1    1    4    4    0  803 -2.43213738728E+01  1.61484478671E+01  1.42064799513E+02  1.45033474951E+02  1.90734863281E-06  0.00000000000E+00  1.
        3    1    5    5  804    0 -6.85968383466E+00  1.61134757197E+01  1.27416387083E+02  1.28614287928E+02  1.90734863281E-06  0.00000000000E+00  1.
       -2    1    5    5    0  804 -4.67498498830E+00  1.36470735508E+01  1.39025934159E+02  1.39772345154E+02  0.00000000000E+00  0.00000000000E+00  1.
</event>
<event>
 9   1   1.0000000E+00   6.2500651E+01   7.8125000E-03   1.3828914E-01
       -3   -1    0    0    0  502  0.00000000000E+00  0.00000000000E+00  5.73173940048E+01  5.73173940048E+01  0.00000000000E+00  0.00000000000E+00  1.
        3   -1    0    0  502    0  0.00000000000E+00  0.00000000000E+00 -6.81526345104E+01  6.81526345104E+01  0.00000000000E+00  0.00000000000E+00  1.
       32    2    1    2    0    0  0.00000000000E+00  0.00000000000E+00 -1.08352405057E+01  1.25470028515E+02  1.25001302468E+02  0.00000000000E+00  1.
       24    2    3    3    0    0  1.76270406518E+01  1.42401781823E+01  2.26668375740E+01  3.60809611273E+01  1.65697010673E+01  0.00000000000E+00  1.
      -24    2    3    3    0    0 -1.76270406518E+01 -1.42401781823E+01 -3.35020780797E+01  8.93890673879E+01  7.97152488300E+01  0.00000000000E+00  1.
       16    1    4    4    0    0  1.67820297082E+00  1.13832803314E+01  1.18581316481E+01  1.65230361163E+01  0.00000000000E+00  0.00000000000E+00  1.
      -15    1    4    4    0    0  1.59488376810E+01  2.85689785084E+00  1.08087059259E+01  1.95579250110E+01  1.77680000000E+00  0.00000000000E+00  1.
       11    1    5    5    0    0  2.16523741514E+01 -9.79061478534E-01  1.44123399248E+01  2.60288188387E+01  5.11002212989E-04  0.00000000000E+00  1.
      -12    1    5    5    0    0 -3.92794148032E+01 -1.32611167037E+01 -4.79144180044E+01  6.33602485492E+01  1.65181236989E-06  0.00000000000E+00  1.
</event>
<event>
 9   1   1.0000000E+00   6.2496163E+01   7.8125000E-03   1.3829082E-01
       -1   -1    0    0    0  502  0.00000000000E+00  0.00000000000E+00  2.40574671868E+02  2.40574671868E+02  0.00000000000E+00  0.00000000000E+00  1.
        1   -1    0    0  502    0  0.00000000000E+00  0.00000000000E+00 -1.62351685033E+01  1.62351685033E+01  0.00000000000E+00  0.00000000000E+00  1.
       32    2    1    2    0    0  0.00000000000E+00 -7.10542735760E-15  2.24339503365E+02  2.56809840371E+02  1.24992325131E+02  0.00000000000E+00  1.
      -24    2    3    3    0    0 -2.17854483365E+01  1.37885197834E+01  1.18628512597E+02  1.41085843827E+02  7.18871496874E+01  0.00000000000E+00  1.
       24    2    3    3    0    0  2.17854483365E+01 -1.37885197834E+01  1.05710990768E+02  1.15723996545E+02  3.94017863834E+01  0.00000000000E+00  1.
        1    1    4    4  803    0 -3.42494279617E+01  2.79022943748E+01  3.79490205886E+01  5.82382135918E+01  1.90734863281E-06  0.00000000000E+00  1.
       -2    1    4    4    0  803  1.24639796252E+01 -1.41137745914E+01  8.06794920087E+01  8.28476304348E+01  1.90734863281E-06  0.00000000000E+00  1.
       14    1    5    5    0    0 -5.44464019957E+00 -1.26127962495E+01  6.69166978921E+01  6.83123063065E+01  0.00000000000E+00  0.00000000000E+00  1.
      -13    1    5    5    0    0  2.72300885360E+01 -1.17572353383E+00  3.87942928755E+01  4.74116902383E+01  1.05660000007E-01  0.00000000000E+00  1.
</event>
<event>
 9   1   1.0000000E+00   6.2490182E+01   7.8125000E-03   1.3829305E-01
       -2   -1    0    0    0  502  0.00000000000E+00  0.00000000000E+00  2.13521151955E+00  2.13521151955E+00  0.00000000000E+00  0.00000000000E+00  1.
        2   -1    0    0  502    0  0.00000000000E+00  0.00000000000E+00 -1.82886931950E+03  1.82886931950E+03  0.00000000000E+00  0.00000000000E+00  1.
       32    2    1    2    0    0 -1.06581410364E-14  1.44328993201E-15 -1.82673410799E+03  1.83100453102E+03  1.24980363878E+02  0.00000000000E+00  1.
       24    2    3    3    0    0  2.19725383823E+01 -7.40107179630E-01 -8.78128784150E+02  8.78829441562E+02  2.73438402804E+01  0.00000000000E+00  1.
      -24    2    3    3    0    0 -2.19725383823E+01  7.40107179630E-01 -9.48605323835E+02  9.52175089463E+02  7.93851395606E+01  0.00000000000E+00  1.
       14    1    4    4    0    0 -6.06289002618E+00 -8.32825692022E-01 -2.50579287346E+02  2.50654007510E+02  5.39479660939E-06  0.00000000000E+00  1.
      -13    1    4    4    0    0  2.80354284084E+01  9.27185123916E-02 -6.27549496804E+02  6.28175434051E+02  1.05659999401E-01  0.00000000000E+00  1.
        1    1    5    5  804    0  2.86960433628E+01 -9.45583542467E+00 -3.02805055345E+02  3.04308687472E+02  6.60724947956E-06  0.00000000000E+00  1.
       -4    1    5    5    0  804 -5.06685817451E+01  1.01959426043E+01 -6.45800268490E+02  6.47866401991E+02  1.27499999995E+00  0.00000000000E+00  1.
</event>
<event>
 9   1   1.0000000E+00   6.2501431E+01   7.8125000E-03   1.3828885E-01
       -1   -1    0    0    0  502  0.00000000000E+00  0.00000000000E+00  6.74846490436E+00  6.74846490436E+00  0.00000000000E+00  0.00000000000E+00  1.
        1   -1    0    0  502    0  0.00000000000E+00  0.00000000000E+00 -5.78861849475E+02  5.78861849475E+02  0.00000000000E+00  0.00000000000E+00  1.
       32    2    1    2    0    0  0.00000000000E+00  3.55271367880E-15 -5.72113384571E+02  5.85610314380E+02  1.25002861978E+02  0.00000000000E+00  1.
       24    2    3    3    0    0 -1.06025618818E+01 -2.13867936148E+01 -2.81970075871E+02  2.94298932298E+02  8.08389052707E+01  0.00000000000E+00  1.
      -24    2    3    3    0    0  1.06025618818E+01  2.13867936148E+01 -2.90143308700E+02  2.91311382081E+02  1.04581302107E+01  0.00000000000E+00  1.
       16    1    4    4    0    0  1.45628036626E+01 -2.34452170096E+01 -2.88847513736E+01  3.99509989993E+01  1.58148993986E-06  0.00000000000E+00  1.
      -15    1    4    4    0    0 -2.51653655444E+01  2.05842339482E+00 -2.53085324498E+02  2.54347933399E+02  1.77680000000E+00  0.00000000000E+00  1.
       11    1    5    5    0    0  1.53533757510E+00  8.50018276967E+00 -1.57277003370E+02  1.57514018925E+02  5.10998597706E-04  0.00000000000E+00  1.
      -12    1    5    5    0    0  9.06722430669E+00  1.28866108451E+01 -1.32866305329E+02  1.33797363256E+02  3.30362473978E-06  0.00000000000E+00  1.
</event>
<event>
 9   1   1.0000000E+00   6.2500889E+01   7.8125000E-03   1.3828905E-01
        3   -1    0    0  501    0  0.00000000000E+00  0.00000000000E+00  9.77691220950E+02  9.77691220950E+02  0.00000000000E+00  0.00000000000E+00  1.
       -3   -1    0    0    0  501  0.00000000000E+00  0.00000000000E+00 -3.99549572111E+00  3.99549572111E+00  0.00000000000E+00  0.00000000000E+00  1.
       32    2    1    2    0    0  1.77635683940E-15  3.55271367880E-15  9.73695725229E+02  9.81686716671E+02  1.25001777425E+02  0.00000000000E+00  1.
       24    2    3    3    0    0 -5.86340676361E+00  8.55348434193E+00  5.98999914975E+02  6.04604135158E+02  8.14722067798E+01  0.00000000000E+00  1.
      -24    2    3    3    0    0  5.86340676361E+00 -8.55348434193E+00  3.74695810255E+02  3.77082581513E+02  4.10704446659E+01  0.00000000000E+00  1.
       12    1    4    4    0    0  6.70837196214E+00  3.83158152850E+01  1.70187786355E+02  1.74576592402E+02  4.26496119976E-06  0.00000000000E+00  1.
      -11    1    4    4    0    0 -1.25717787257E+01 -2.97623309431E+01  4.28812128619E+02  4.30027542856E+02  5.10941639717E-04  0.00000000000E+00  1.
        1    1    5    5  803    0  1.41362073725E+01 -1.42944150571E+01  9.03974660549E+01  9.26059637920E+01  2.69739830470E-06  0.00000000000E+00  1.
       -2    1    5    5    0  803 -8.27280060890E+00  5.74093071519E+00  2.84298344200E+02  2.84476617721E+02  3.81469726562E-06  0.00000000000E+00  1.
</event>
<event>
 9   1   1.0000000E+00   6.2499705E+01   7.8125000E-03   1.3828950E-01
        2   -1    0    0  501    0  0.00000000000E+00  0.00000000000E+00  1.67419264963E+02  1.67419264963E+02  0.00000000000E+00  0.00000000000E+00  1.
       -2   -1    0    0    0  501  0.00000000000E+00  0.00000000000E+00 -2.33319217045E+01  2.33319217045E+01  0.00000000000E+00  0.00000000000E+00  1.
       32    2    1    2    0    0 -1.77635683940E-15  0.00000000000E+00  1.44087343259E+02  1.90751186668E+02  1.24999410910E+02  0.00000000000E+00  1.
       24    2    3    3    0    0  1.24393170476E+01 -7.20062239582E-02  8.35972766728E+01  1.15595906747E+02  7.88616966347E+01  0.00000000000E+00  1.
      -24    2    3    3    0    0 -1.24393170476E+01  7.20062239582E-02  6.04900665860E+01  7.51552799206E+01  4.28313687717E+01  0.00000000000E+00  1.
       12    1    4    4    0    0  1.41539046161E+00 -1.99712674571E+01 -7.74219808939E+00  2.14661707172E+01  0.00000000000E+00  0.00000000000E+00  1.
      -11    1    4    4    0    0  1.10239265860E+01  1.98992612332E+01  9.13394747622E+01  9.41297360301E+01  5.11002157370E-04  0.00000000000E+00  1.
        3    1    5    5  804    0 -5.29073910690E+00  1.22159317413E+01  5.95003489605E+01  6.09714067004E+01  1.50789149292E-06  0.00000000000E+00  1.
       -4    1    5    5    0  804 -7.14857794075E+00 -1.21439255174E+01  9.89717625435E-01  1.41838732201E+01  1.27500000000E+00  0.00000000000E+00  1.
</event>
<event>
 9   1   1.0000000E+00   6.2511509E+01   7.8125000E-03   1.3828509E-01
       -1   -1    0    0    0  502  0.00000000000E+00  0.00000000000E+00  3.16948646880E+01  3.16948646880E+01  0.00000000000E+00  0.00000000000E+00  1.
        1   -1    0    0  502    0  0.00000000000E+00  0.00000000000E+00 -1.23290910950E+02  1.23290910950E+02  0.00000000000E+00  0.00000000000E+00  1.
       32    2    1    2    0    0  3.55271367880E-15 -7.10542735760E-15 -9.15960462623E+01  1.54985775638E+02  1.25023017718E+02  0.00000000000E+00  1.
      -24    2    3    3    0    0  5.42660890003E+00 -9.07243171202E+00 -5.80077511910E+01  1.01432489989E+02  8.25341973107E+01  0.00000000000E+00  1.
       24    2    3    3    0    0 -5.42660890003E+00  9.07243171202E+00 -3.35882950712E+01  5.35532856497E+01  4.03487761496E+01  0.00000000000E+00  1.
        3    1    4    4  803    0  6.89503179626E+00 -3.68839604754E+01 -5.03481955027E-01  3.75262775320E+01  0.00000000000E+00  0.00000000000E+00  1.
       -4    1    4    4    0  803 -1.46842289623E+00  2.78115287634E+01 -5.75042692360E+01  6.39062125566E+01  1.27500000000E+00  0.00000000000E+00  1.
       12    1    5    5    0    0  1.36770463574E+01 -3.48770968167E+00 -2.57851216312E+01  2.93955475102E+01  0.00000000000E+00  0.00000000000E+00  1.
      -11    1    5    5    0    0 -1.91036552574E+01  1.25601413937E+01 -7.80317343999E+00  2.41577381396E+01  5.11000593068E-04  0.00000000000E+00  1.
</event>
<event>
 9   1   1.0000000E+00   6.2499647E+01   7.8125000E-03   1.3828952E-01
        1   -1    0    0  501    0  0.00000000000E+00  0.00000000000E+00  7.51173654007E+00  7.51173654007E+00  0.00000000000E+00  0.00000000000E+00  1.
       -1   -1    0    0    0  501  0.00000000000E+00  0.00000000000E+00 -5.20013699726E+02  5.20013699726E+02  0.00000000000E+00  0.00000000000E+00  1.
       32    2    1    2    0    0  3.55271367880E-15  1.06581410364E-14 -5.12501963186E+02  5.27525436266E+02  1.24999294551E+02  0.00000000000E+00  1.
      -24    2    3    3    0    0  1.80879778781E+01 -2.66651849693E+01 -9.98146778450E+01  1.05869683713E+02  1.43948943359E+01  0.00000000000E+00  1.
       24    2    3    3    0    0 -1.80879778781E+01  2.66651849693E+01 -4.12687285341E+02  4.21655752554E+02  8.02780863386E+01  0.00000000000E+00  1.
        1    1    4    4  803    0  6.48616535944E+00 -8.68399634616E+00 -5.68132785328E+01  5.78379698058E+01  0.00000000000E+00  0.00000000000E+00  1.
       -2    1    4    4    0  803  1.16018125186E+01 -1.79811886232E+01 -4.30013993122E+01  4.80317140068E+01  0.00000000000E+00  0.00000000000E+00  1.
       14    1    5    5    0    0 -3.39987292074E+00  5.23420026187E+01 -3.22592606724E+02  3.26829059735E+02  3.81469726562E-06  0.00000000000E+00  1.
      -13    1    5    5    0    0 -1.46881049573E+01 -2.56768176494E+01 -9.00946786167E+01  9.48266928186E+01  1.05659999987E-01  0.00000000000E+00  1.
</event>
<event>
 9   1   1.0000000E+00   6.2504267E+01   7.8125000E-03   1.3828779E-01
        2   -1    0    0  501    0  0.00000000000E+00  0.00000000000E+00  4.06859999613E+02  4.06859999613E+02  0.00000000000E+00  0.00000000000E+00  1.
       -2   -1    0    0    0  501  0.00000000000E+00  0.00000000000E+00 -9.60227930122E+00  9.60227930122E+00  0.00000000000E+00  0.00000000000E+00  1.
       32    2    1    2    0    0 -1.77635683940E-15  3.55271367880E-15  3.97257720312E+02  4.16462278914E+02  1.25008533353E+02  0.00000000000E+00  1.
       24    2    3    3    0    0  7.88971855233E+00 -1.95409150514E+01  2.04793006538E+02  2.20053071227E+02  7.77115410317E+01  0.00000000000E+00  1.
      -24    2    3    3    0    0 -7.88971855233E+00  1.95409150514E+01  1.92464713773E+02  1.96409207687E+02  3.30123582398E+01  0.00000000000E+00  1.
        2    1    4    4  803    0  4.05701350814E+01 -1.88160487790E+00  7.81311761396E+01  8.80565556901E+01  2.33601545599E-06  0.00000000000E+00  1.
       -1    1    4    4    0  803 -3.26804165290E+01 -1.76593101735E+01  1.26661830399E+02  1.31996515737E+02  2.33601545599E-06  0.00000000000E+00  1.
        1    1    5    5  804    0 -1.43946328460E+01  3.02472123009E-02  1.26406416359E+02  1.27223380188E+02  2.69739830470E-06  0.00000000000E+00  1.
       -2    1    5    5    0  804  6.50491429372E+00  1.95106678391E+01  6.60582974145E+01  6.91858274996E+01  0.00000000000E+00  0.00000000000E+00  1.
</event>
<event>
 9   1   1.0000000E+00   6.2500160E+01   7.8125000E-03   1.3828933E-01
       -1   -1    0    0    0  502  0.00000000000E+00  0.00000000000E+00  4.59324352141E+00  4.59324352141E+00  0.00000000000E+00  0.00000000000E+00  1.
        1   -1    0    0  502    0  0.00000000000E+00  0.00000000000E+00 -8.50438255767E+02  8.50438255767E+02  0.00000000000E+00  0.00000000000E+00  1.
       32    2    1    2    0    0  1.77635683940E-15  7.10542735760E-15 -8.45845012246E+02  8.55031499289E+02  1.25000320138E+02  0.00000000000E+00  1.
      -24    2    3    3    0    0 -1.25869734474E+01 -2.06101304043E+01 -4.83585305725E+02  4.84519317424E+02  1.79167984909E+01  0.00000000000E+00  1.
       24    2    3    3    0    0  1.25869734474E+01  2.06101304043E+01 -3.62259706521E+02  3.70512181864E+02  7.39186888790E+01  0.00000000000E+00  1.
        1    1    4    4  803    0 -4.88295180044E+00 -2.13230776347E+01 -3.16556031527E+02  3.17310948369E+02  5.39479660939E-06  0.00000000000E+00  1.
       -2    1    4    4    0  803 -7.70402164694E+00  7.12947230412E-01 -1.67029274198E+02  1.67208369056E+02  3.81469726562E-06  0.00000000000E+00  1.
        4    1    5    5  804    0 -6.40187258648E+00  4.83387084836E+00 -7.46245145006E-01  8.15676325564E+00  1.27500000001E+00  0.00000000000E+00  1.
       -3    1    5    5    0  804  1.89888460339E+01  1.57762595560E+01 -3.61513461376E+02  3.62355418609E+02  6.60724947956E-06  0.00000000000E+00  1.
</event>
<event>
 9   1   1.0000000E+00   6.2500329E+01   7.8125000E-03   1.3828926E-01
       -1   -1    0    0    0  502  0.00000000000E+00  0.00000000000E+00  9.78690416771E+02  9.78690416771E+02  0.00000000000E+00  0.00000000000E+00  1.
        1   -1    0    0  502    0  0.00000000000E+00  0.00000000000E+00 -3.99134503972E+00  3.99134503972E+00  0.00000000000E+00  0.00000000000E+00  1.
       32    2    1    2    0    0  1.77635683940E-15  4.44089209850E-15  9.74699071731E+02  9.82681761811E+02  1.25000658245E+02  0.00000000000E+00  1.
       24    2    3    3    0    0  1.56244069889E+00  4.45410994209E+00  6.59693853142E+02  6.64693945640E+02  8.12390372936E+01  0.00000000000E+00  1.
      -24    2    3    3    0    0 -1.56244069889E+00 -4.45410994209E+00  3.15005218589E+02  3.17987816171E+02  4.31935548252E+01  0.00000000000E+00  1.
       12    1    4    4    0    0 -1.72082972959E+01 -3.11895488666E+01  1.92622623583E+02  1.95888714860E+02  2.69739830470E-06  0.00000000000E+00  1.
      -11    1    4    4    0    0  1.87707379947E+01  3.56436588087E+01  4.67071229559E+02  4.68805230879E+02  5.11027074320E-04  0.00000000000E+00  1.
       13    1    5    5    0    0  1.02576313133E+01 -3.52715838503E-02  2.87968847841E+02  2.88151503094E+02  1.05659999952E-01  0.00000000000E+00  1.
      -14    1    5    5    0    0 -1.18200720122E+01 -4.41883835824E+00  2.70363707478E+01  2.98363131769E+01  4.34419325788E-06  0.00000000000E+00  1.
</event>
<event>
 9   1   1.0000000E+00   6.2501012E+01   7.8125000E-03   1.3828901E-01
       -1   -1    0    0    0  502  0.00000000000E+00  0.00000000000E+00  6.52414214504E+00  6.52414214504E+00  0.00000000000E+00  0.00000000000E+00  1.
        1   -1    0    0  502    0  0.00000000000E+00  0.00000000000E+00 -5.98757113480E+02  5.98757113480E+02  0.00000000000E+00  0.00000000000E+00  1.
       32    2    1    2    0    0 -1.77635683940E-15  0.00000000000E+00 -5.92232971335E+02  6.05281255625E+02  1.25002024283E+02  0.00000000000E+00  1.
       24    2    3    3    0    0  1.25112817420E+01 -4.47620385636E-01 -2.63055998953E+02  2.66205902797E+02  3.88637564313E+01  0.00000000000E+00  1.
      -24    2    3    3    0    0 -1.25112817420E+01  4.47620385636E-01 -3.29176972382E+02  3.39075352828E+02  8.03609557813E+01  0.00000000000E+00  1.
        4    1    4    4  804    0  1.23364489421E+01  1.25189163928E+01 -5.51740301194E+01  5.79198624374E+01  1.27500000000E+00  0.00000000000E+00  1.
       -3    1    4    4    0  804  1.74832799844E-01 -1.29665367784E+01 -2.07881968834E+02  2.08286040360E+02  2.69739830470E-06  0.00000000000E+00  1.
        1    1    5    5  803    0 -3.96370006811E+01  1.67951310904E+01 -1.19445978466E+02  1.26966570494E+02  3.01578298585E-06  0.00000000000E+00  1.
       -2    1    5    5    0  803  2.71257189392E+01 -1.63475107047E+01 -2.09730993916E+02  2.12108782434E+02  2.69739830470E-06  0.00000000000E+00  1.
</event>
<event>
 9   1   1.0000000E+00   6.2501725E+01   7.8125000E-03   1.3828874E-01
        1   -1    0    0  501    0  0.00000000000E+00  0.00000000000E+00  1.23867732510E+03  1.23867732510E+03  0.00000000000E+00  0.00000000000E+00  1.
       -1   -1    0    0    0  501  0.00000000000E+00  0.00000000000E+00 -3.15373949940E+00  3.15373949940E+00  0.00000000000E+00  0.00000000000E+00  1.
       32    2    1    2    0    0 -3.55271367880E-15 -3.77475828373E-15  1.23552358560E+03  1.24183106460E+03  1.25003449667E+02  0.00000000000E+00  1.
      -24    2    3    3    0    0 -3.10842992609E+01 -1.50791250391E+00  3.28467560636E+02  3.30598196518E+02  2.08739476372E+01  0.00000000000E+00  1.
       24    2    3    3    0    0  3.10842992609E+01  1.50791250391E+00  9.07056024968E+02  9.11232868085E+02  8.14014741089E+01  0.00000000000E+00  1.
        3    1    4    4  804    0 -1.40812188674E+01 -9.86538943608E+00  1.13670681599E+02  1.14963605062E+02  0.00000000000E+00  0.00000000000E+00  1.
       -4    1    4    4    0  804 -1.70030803935E+01  8.35747693217E+00  2.14796879037E+02  2.15634591456E+02  1.27499999999E+00  0.00000000000E+00  1.
       14    1    5    5    0    0  5.89800914157E+01  2.15609852325E+00  6.45577997202E+02  6.48270198617E+02  0.00000000000E+00  0.00000000000E+00  1.
      -13    1    5    5    0    0 -2.78957921548E+01 -6.48186019334E-01  2.61478027766E+02  2.62962669467E+02  1.05659999814E-01  0.00000000000E+00  1.
</event>
<event>
 9   1   1.0000000E+00   6.2499698E+01   7.8125000E-03   1.3828950E-01
        2   -1    0    0  501    0  0.00000000000E+00  0.00000000000E+00  4.54404869368E+01  4.54404869368E+01  0.00000000000E+00  0.00000000000E+00  1.
       -2   -1    0    0    0  501  0.00000000000E+00  0.00000000000E+00 -8.59632563424E+01  8.59632563424E+01  0.00000000000E+00  0.00000000000E+00  1.
       32    2    1    2    0    0  8.88178419700E-16  0.00000000000E+00 -4.05227694056E+01  1.31403743279E+02  1.24999395628E+02  0.00000000000E+00  1.
       24    2    3    3    0    0  1.15030665040E+00 -3.72059055373E+00 -7.15942175451E+00  4.22618117082E+01  4.14685110601E+01  0.00000000000E+00  1.
      -24    2    3    3    0    0 -1.15030665040E+00  3.72059055373E+00 -3.33633476511E+01  8.91419315710E+01  8.25712116797E+01  0.00000000000E+00  1.
        4    1    4    4  804    0 -1.23898646288E+01  1.18200087538E+01 -1.21739457200E+01  2.10487988221E+01  1.27500000000E+00  0.00000000000E+00  1.
       -3    1    4    4    0  804  1.35401712792E+01 -1.55405993075E+01  5.01452396550E+00  2.12130129861E+01  0.00000000000E+00  0.00000000000E+00  1.
        1    1    5    5  803    0 -4.37422723647E+00 -5.49555054452E+00  2.70487897186E+01  2.79458756339E+01  1.43051147461E-06  0.00000000000E+00  1.
       -2    1    5    5    0  803  3.22392058606E+00  9.21614109825E+00 -6.04121373696E+01  6.11960559371E+01  1.90734863281E-06  0.00000000000E+00  1.
</event>
<event>
 9   1   1.0000000E+00   6.2500276E+01   7.8125000E-03   1.3828928E-01
       -1   -1    0    0    0  502  0.00000000000E+00  0.00000000000E+00  2.68756392599E+01  2.68756392599E+01  0.00000000000E+00  0.00000000000E+00  1.
        1   -1    0    0  502    0  0.00000000000E+00  0.00000000000E+00 -1.45346665586E+02  1.45346665586E+02  0.00000000000E+00  0.00000000000E+00  1.
       32    2    1    2    0    0  3.55271367880E-15  0.00000000000E+00 -1.18471026326E+02  1.72222304846E+02  1.25000552830E+02  0.00000000000E+00  1.
      -24    2    3    3    0    0  1.77248734420E+01  2.34796540159E+01 -8.17522837632E+01  1.17639729864E+02  7.93108116896E+01  0.00000000000E+00  1.
       24    2    3    3    0    0 -1.77248734420E+01 -2.34796540159E+01 -3.67187425632E+01  5.45825749817E+01  2.76681431428E+01  0.00000000000E+00  1.
        3    1    4    4  804    0  4.59937621382E+01  1.61412802199E+01 -7.17521936213E+01  8.67429788066E+01  0.00000000000E+00  0.00000000000E+00  1.
       -4    1    4    4    0  804 -2.82688886962E+01  7.33837379600E+00 -1.00000901418E+01  3.08967510579E+01  1.27500000000E+00  0.00000000000E+00  1.
        4    1    5    5  803    0 -1.43230131153E+01 -2.28598015255E+01 -4.09901014533E+01  4.90869969812E+01  1.27500000000E+00  0.00000000000E+00  1.
       -3    1    5    5    0  803 -3.40186032663E+00 -6.19852490374E-01  4.27135889003E+00  5.49557810046E+00  0.00000000000E+00  0.00000000000E+00  1.
</event>
<event>
 9   1   1.0000000E+00   6.2502675E+01   7.8125000E-03   1.3828839E-01
       -1   -1    0    0    0  502  0.00000000000E+00  0.00000000000E+00  1.17026635187E+02  1.17026635187E+02  0.00000000000E+00  0.00000000000E+00  1.
        1   -1    0    0  502    0  0.00000000000E+00  0.00000000000E+00 -3.33820101761E+01  3.33820101761E+01  0.00000000000E+00  0.00000000000E+00  1.
       32    2    1    2    0    0  5.32907051820E-15 -1.77635683940E-15  8.36446250113E+01  1.50408645363E+02  1.25005349113E+02  0.00000000000E+00  1.
       24    2    3    3    0    0 -1.10933076031E+01 -1.50398333091E+01  3.48943109141E+01  9.20797224753E+01  8.31372617868E+01  0.00000000000E+00  1.
      -24    2    3    3    0    0  1.10933076031E+01  1.50398333091E+01  4.87503140972E+01  5.83289228882E+01  2.60079230462E+01  0.00000000000E+00  1.
        4    1    4    4  804    0 -2.67345263689E+01  3.72958635782E+00 -1.89135093065E+01  3.29847112138E+01  1.27500000000E+00  0.00000000000E+00  1.
       -3    1    4    4    0  804  1.56412187658E+01 -1.87694196670E+01  5.38078202205E+01  5.90950113615E+01  0.00000000000E+00  0.00000000000E+00  1.
       11    1    5    5    0    0 -8.03853365332E-02  1.89309930233E+01  2.16573886787E+01  2.87651080876E+01  5.10999876963E-04  0.00000000000E+00  1.
      -12    1    5    5    0    0  1.11736929396E+01 -3.89115971416E+00  2.70929254186E+01  2.95638149006E+01  0.00000000000E+00  0.00000000000E+00  1.
</event>
<event>
 9   1   1.0000000E+00   6.2500248E+01   7.8125000E-03   1.3828929E-01
        1   -1    0    0  501    0  0.00000000000E+00  0.00000000000E+00  8.06820365525E+02  8.06820365525E+02  0.00000000000E+00  0.00000000000E+00  1.
       -1   -1    0    0    0  501  0.00000000000E+00  0.00000000000E+00 -4.84157468319E+00  4.84157468319E+00  0.00000000000E+00  0.00000000000E+00  1.
       32    2    1    2    0    0 -1.77635683940E-15  3.55271367880E-15  8.01978790842E+02  8.11661940209E+02  1.25000496889E+02  0.00000000000E+00  1.
       24    2    3    3    0    0  1.32180154077E+01 -1.64127364276E+01  6.57255794787E+02  6.62483579861E+02  8.03443834778E+01  0.00000000000E+00  1.
      -24    2    3    3    0    0 -1.32180154077E+01  1.64127364276E+01  1.44722996055E+02  1.49178360347E+02  2.94167258604E+01  0.00000000000E+00  1.
        2    1    4    4  803    0 -6.77503703667E+00 -5.32440252236E+00  6.09259760888E+02  6.09320692761E+02  1.32144989591E-05  0.00000000000E+00  1.
       -1    1    4    4    0  803  1.99930524443E+01 -1.10883339052E+01  4.79960338986E+01  5.31628871002E+01  1.45572066521E-05  0.00000000000E+00  1.
        1    1    5    5  804    0  3.62949978939E+00 -5.15733017715E+00  1.09682309358E+01  1.26520122170E+01  1.07948602893E-06  0.00000000000E+00  1.
       -2    1    5    5    0  804 -1.68475151971E+01  2.15700666047E+01  1.33754765119E+02  1.36526348230E+02  3.30362473978E-06  0.00000000000E+00  1.
</event>
<event>
 9   1   1.0000000E+00   6.2499400E+01   7.8125000E-03   1.3828961E-01
        1   -1    0    0  501    0  0.00000000000E+00  0.00000000000E+00  7.26436412937E+02  7.26436412937E+02  0.00000000000E+00  0.00000000000E+00  1.
       -1   -1    0    0    0  501  0.00000000000E+00  0.00000000000E+00 -5.37717401139E+00  5.37717401139E+00  0.00000000000E+00  0.00000000000E+00  1.
       32    2    1    2    0    0  3.55271367880E-15  1.77635683940E-15  7.21059238926E+02  7.31813586949E+02  1.24998800003E+02  0.00000000000E+00  1.
      -24    2    3    3    0    0 -1.86796382827E+01 -6.99115284530E+00  6.46759185930E+02  6.52334108130E+02  8.27317287427E+01  0.00000000000E+00  1.
       24    2    3    3    0    0  1.86796382827E+01  6.99115284530E+00  7.43000529963E+01  7.94794788188E+01  1.99670872584E+01  0.00000000000E+00  1.
        3    1    4    4  803    0  3.20239521989E+01  2.81477669892E+00  3.05555901367E+02  3.07242356036E+02  6.60724947956E-06  0.00000000000E+00  1.
       -4    1    4    4    0  803 -5.07035904815E+01 -9.80592954422E+00  3.41203284562E+02  3.45091752094E+02  1.27500000005E+00  0.00000000000E+00  1.
       14    1    5    5    0    0 -9.51464286960E-01 -3.16083914570E+00  2.77905522426E+01  2.79859069522E+01  0.00000000000E+00  0.00000000000E+00  1.
      -13    1    5    5    0    0  1.96311025696E+01  1.01519919910E+01  4.65095007537E+01  5.14935719666E+01  1.05659999995E-01  0.00000000000E+00  1.
</event>
<event>
 9   1   1.0000000E+00   6.2500689E+01   7.8125000E-03   1.3828913E-01
        1   -1    0    0  501    0  0.00000000000E+00  0.00000000000E+00  2.75118295617E+00  2.75118295617E+00  0.00000000000E+00  0.00000000000E+00  1.
       -1   -1    0    0    0  501  0.00000000000E+00  0.00000000000E+00 -1.41987506786E+03  1.41987506786E+03  0.00000000000E+00  0.00000000000E+00  1.
       32    2    1    2    0    0 -7.10542735760E-15 -4.44089209850E-16 -1.41712388491E+03  1.42262625082E+03  1.25001377378E+02  0.00000000000E+00  1.
       24    2    3    3    0    0  3.29502301613E+01  4.86090743828E-01 -8.24767207311E+02  8.28673730891E+02  7.33024696798E+01  0.00000000000E+00  1.
      -24    2    3    3    0    0 -3.29502301613E+01 -4.86090743828E-01 -5.92356677595E+02  5.93952519928E+02  2.84114146933E+01  0.00000000000E+00  1.
        2    1    4    4  804    0 -1.41200226928E+01  2.18345871939E+01 -1.84428073644E+02  1.86252083443E+02  2.69739830470E-06  0.00000000000E+00  1.
       -1    1    4    4    0  804  4.70702528541E+01 -2.13484964501E+01 -6.40339133667E+02  6.42421647448E+02  7.62939453125E-06  0.00000000000E+00  1.
       11    1    5    5    0    0  6.01729225651E-01 -4.08752808525E+00 -2.27786226118E+02  2.27823692300E+02  5.11005717009E-04  0.00000000000E+00  1.
      -12    1    5    5    0    0 -3.35519593869E+01  3.60143734142E+00 -3.64570451477E+02  3.66128827627E+02  7.62939453125E-06  0.00000000000E+00  1.
</event>
<event>
 9   1   1.0000000E+00   6.2501005E+01   7.8125000E-03   1.3828901E-01
       -3   -1    0    0    0  502  0.00000000000E+00  0.00000000000E+00  2.25966588426E+02  2.25966588426E+02  0.00000000000E+00  0.00000000000E+00  1.
        3   -1    0    0  502    0  0.00000000000E+00  0.00000000000E+00 -1.72874035563E+01  1.72874035563E+01  0.00000000000E+00  0.00000000000E+00  1.
       32    2    1    2    0    0  0.00000000000E+00 -4.44089209850E-16  2.08679184870E+02  2.43253991982E+02  1.25002009653E+02  0.00000000000E+00  1.
      -24    2    3    3    0    0  3.39542694420E+01  3.01286548551E+00  1.45672670788E+02  1.69847778215E+02  8.04100178970E+01  0.00000000000E+00  1.
       24    2    3    3    0    0 -3.39542694420E+01 -3.01286548551E+00  6.30065140817E+01  7.34062137675E+01  1.60212868139E+01  0.00000000000E+00  1.
        3    1    4    4  803    0 -6.00734997583E+00  1.27511549444E+01  1.21102153549E+02  1.21919694163E+02  3.01578298585E-06  0.00000000000E+00  1.
       -4    1    4    4    0  803  3.99616194178E+01 -9.73828945892E+00  2.45705172388E+01  4.79280841518E+01  1.27500000000E+00  0.00000000000E+00  1.
        2    1    5    5  804    0 -2.40391519548E+01 -8.13252942980E-01  5.63344630358E+01  6.12545013251E+01  0.00000000000E+00  0.00000000000E+00  1.
       -1    1    5    5    0  804 -9.91511748723E+00 -2.19961254253E+00  6.67205104590E+00  1.21517124424E+01  0.00000000000E+00  0.00000000000E+00  1.
</event>
<event>
 9   1   1.0000000E+00   6.2501538E+01   7.8125000E-03   1.3828881E-01
       -1   -1    0    0    0  502  0.00000000000E+00  0.00000000000E+00  3.50491542018E+01  3.50491542018E+01  0.00000000000E+00  0.00000000000E+00  1.
        1   -1    0    0  502    0  0.00000000000E+00  0.00000000000E+00 -1.11456107948E+02  1.11456107948E+02  0.00000000000E+00  0.00000000000E+00  1.
       32    2    1    2    0    0  0.00000000000E+00  3.55271367880E-15 -7.64069537466E+01  1.46505262150E+02  1.25003076990E+02  0.00000000000E+00  1.
       24    2    3    3    0    0  2.43619482387E+01  9.40121649176E+00 -3.40429780856E+01  9.54823475554E+01  8.52998648547E+01  0.00000000000E+00  1.
      -24    2    3    3    0    0 -2.43619482387E+01 -9.40121649176E+00 -4.23639756609E+01  5.10229145949E+01  1.12580631747E+01  0.00000000000E+00  1.
        2    1    4    4  804    0  2.34874732166E+01  2.50364699609E+01  1.96481056693E+01  3.95541942478E+01  1.39020726558E-06  0.00000000000E+00  1.
       -1    1    4    4    0  804  8.74475022140E-01 -1.56352534691E+01 -5.36910837549E+01  5.59281533075E+01  0.00000000000E+00  0.00000000000E+00  1.
       15    1    5    5    0    0 -1.21964363331E+01 -6.59448242535E+00 -1.28932796421E+01  1.90166752051E+01  1.77680000000E+00  0.00000000000E+00  1.
      -16    1    5    5    0    0 -1.21655119056E+01 -2.80673406641E+00 -2.94706960188E+01  3.20062393898E+01  0.00000000000E+00  0.00000000000E+00  1.
</event>
<event>
 9   1   1.0000000E+00   6.2500167E+01   7.8125000E-03   1.3828932E-01
       -1   -1    0    0    0  502  0.00000000000E+00  0.00000000000E+00  4.03620231850E+00  4.03620231850E+00  0.00000000000E+00  0.00000000000E+00  1.
        1   -1    0    0  502    0  0.00000000000E+00  0.00000000000E+00 -9.67808499014E+02  9.67808499014E+02  0.00000000000E+00  0.00000000000E+00  1.
       32    2    1    2    0    0 -3.55271367880E-15  3.66373598126E-15 -9.63772296696E+02  9.71844701333E+02  1.25000334521E+02  0.00000000000E+00  1.
       24    2    3    3    0    0 -1.34731180491E+01 -6.47943024476E-01 -1.47394108883E+02  1.51297724663E+02  3.13693068882E+01  0.00000000000E+00  1.
      -24    2    3    3    0    0  1.34731180491E+01  6.47943024476E-01 -8.16378187813E+02  8.20546976670E+02  8.14987769563E+01  0.00000000000E+00  1.
        4    1    4    4  804    0  3.86084137963E+00  9.22870192792E-03 -1.43539882602E+00  4.31186457549E+00  1.27500000000E+00  0.00000000000E+00  1.
       -3    1    4    4    0  804 -1.73339594288E+01 -6.57171726404E-01 -1.45958710057E+02  1.46985860188E+02  2.69739830470E-06  0.00000000000E+00  1.
        1    1    5    5  803    0  1.80386224107E+01  3.02613402436E+01 -6.80182692383E+02  6.81094439582E+02  7.62939453125E-06  0.00000000000E+00  1.
       -2    1    5    5    0  803 -4.56550436158E+00 -2.96133972191E+01 -1.36195495430E+02  1.39452537088E+02  1.16019487959E-05  0.00000000000E+00  1.
</event>
<event>
 9   1   1.0000000E+00   6.2499990E+01   7.8125000E-03   1.3828939E-01
        3   -1    0    0  501    0  0.00000000000E+00  0.00000000000E+00  5.93537413928E+02  5.93537413928E+02  0.00000000000E+00  0.00000000000E+00  1.
       -3   -1    0    0    0  501  0.00000000000E+00  0.00000000000E+00 -6.58130155301E+00  6.58130155301E+00  0.00000000000E+00  0.00000000000E+00  1.
       32    2    1    2    0    0  0.00000000000E+00 -1.77635683940E-15  5.86956112375E+02  6.00118715481E+02  1.24999979265E+02  0.00000000000E+00  1.
       24    2    3    3    0    0 -2.80486206452E+00 -8.36395835561E+00  1.44237168877E+02  1.50009649473E+02  4.02580550793E+01  0.00000000000E+00  1.
      -24    2    3    3    0    0  2.80486206452E+00  8.36395835561E+00  4.42718943498E+02  4.50109066008E+02  8.07482836975E+01  0.00000000000E+00  1.
        4    1    4    4  804    0  1.67319469287E+01  5.03157102800E+00  5.99990626974E+01  6.25043030887E+01  1.27500000000E+00  0.00000000000E+00  1.
       -3    1    4    4    0  804 -1.95368089933E+01 -1.33955293836E+01  8.42381061796E+01  8.75053464843E+01  1.34869915235E-06  0.00000000000E+00  1.
        1    1    5    5  803    0  2.55736883475E+01  2.31205430648E+01  3.82610387552E+02  3.84160489522E+02  0.00000000000E+00  0.00000000000E+00  1.
       -2    1    5    5    0  803 -2.27688262830E+01 -1.47565847092E+01  6.01085559460E+01  6.59485765858E+01  2.43140197448E-06  0.00000000000E+00  1.
</event>
<event>
 9   1   1.0000000E+00   6.2501494E+01   7.8125000E-03   1.3828883E-01
        2   -1    0    0  501    0  0.00000000000E+00  0.00000000000E+00  1.48767297748E+02  1.48767297748E+02  0.00000000000E+00  0.00000000000E+00  1.
       -2   -1    0    0    0  501  0.00000000000E+00  0.00000000000E+00 -2.62587061046E+01  2.62587061046E+01  0.00000000000E+00  0.00000000000E+00  1.
       32    2    1    2    0    0  7.10542735760E-15 -2.66453525910E-15  1.22508591643E+02  1.75026003852E+02  1.25002987957E+02  0.00000000000E+00  1.
       24    2    3    3    0    0  2.49862268497E+01  1.06495660183E+00  5.73249582523E+01  6.86567136523E+01  2.83222143583E+01  0.00000000000E+00  1.
      -24    2    3    3    0    0 -2.49862268497E+01 -1.06495660183E+00  6.51836333908E+01  1.06369290200E+02  8.02500727156E+01  0.00000000000E+00  1.
        4    1    4    4  803    0  2.01672781766E+01  8.29774628855E+00  1.77744408488E+01  2.81625296273E+01  1.27500000000E+00  0.00000000000E+00  1.
       -3    1    4    4    0  803  4.81894867315E+00 -7.23278968672E+00  3.95505174034E+01  4.04941840249E+01  0.00000000000E+00  0.00000000000E+00  1.
       11    1    5    5    0    0 -1.47752962472E+01  3.33597217039E+01  5.75667722300E+00  3.69366991523E+01  5.10998396084E-04  0.00000000000E+00  1.
      -12    1    5    5    0    0 -1.02109306026E+01 -3.44246783057E+01  5.94269561678E+01  6.94325911477E+01  0.00000000000E+00  0.00000000000E+00  1.
</event>
<event>
 9   1   1.0000000E+00   6.2500812E+01   7.8125000E-03   1.3828908E-01
       -1   -1    0    0    0  502  0.00000000000E+00  0.00000000000E+00  1.14570463207E+01  1.14570463207E+01  0.00000000000E+00  0.00000000000E+00  1.
        1   -1    0    0  502    0  0.00000000000E+00  0.00000000000E+00 -3.40956243536E+02  3.40956243536E+02  0.00000000000E+00  0.00000000000E+00  1.
       32    2    1    2    0    0 -3.55271367880E-15 -3.55271367880E-15 -3.29499197215E+02  3.52413289857E+02  1.25001623598E+02  0.00000000000E+00  1.
      -24    2    3    3    0    0  6.44094119247E+00  2.28072901566E+01 -7.74278159529E+01  8.73200616098E+01  3.26813137521E+01  0.00000000000E+00  1.
       24    2    3    3    0    0 -6.44094119247E+00 -2.28072901566E+01 -2.52071381262E+02  2.65093228247E+02  7.85670427283E+01  0.00000000000E+00  1.
       11    1    4    4    0    0  8.91893139906E-01  3.01185639164E+01 -6.67739060772E+01  7.32576132482E+01  5.10997707787E-04  0.00000000000E+00  1.
      -12    1    4    4    0    0  5.54904805256E+00 -7.31127375986E+00 -1.06539098757E+01  1.40624484616E+01  1.08604831447E-06  0.00000000000E+00  1.
        2    1    5    5  804    0  3.06631491662E+01 -2.83927531695E+01 -1.66360629426E+02  1.71529111734E+02  0.00000000000E+00  0.00000000000E+00  1.
       -1    1    5    5    0  804 -3.71040903587E+01  5.58546301294E+00 -8.57107518362E+01  9.35641165124E+01  1.65181236989E-06  0.00000000000E+00  1.
</event>
<event>
 9   1   1.0000000E+00   6.2499684E+01   7.8125000E-03   1.3828950E-01
        5   -1    0    0  501    0  0.00000000000E+00  0.00000000000E+00  1.54144330264E+01  1.54144330264E+01  0.00000000000E+00  0.00000000000E+00  1.
       -5   -1    0    0    0  501  0.00000000000E+00  0.00000000000E+00 -2.53412533006E+02  2.53412533006E+02  0.00000000000E+00  0.00000000000E+00  1.
       32    2    1    2    0    0 -1.77635683940E-15 -8.88178419700E-16 -2.37998099979E+02  2.68826966032E+02  1.24999368288E+02  0.00000000000E+00  1.
      -24    2    3    3    0    0  1.24401557950E+01  5.39642786347E+00  2.31451971308E+00  1.53731517141E+01  6.86278968306E+00  0.00000000000E+00  1.
       24    2    3    3    0    0 -1.24401557950E+01 -5.39642786347E+00 -2.40312619692E+02  2.53453814318E+02  7.94027826910E+01  0.00000000000E+00  1.
        3    1    4    4  804    0  6.55869301639E+00  5.63978201417E+00 -6.22074285804E-01  8.67240297739E+00  0.00000000000E+00  0.00000000000E+00  1.
       -4    1    4    4    0  804  5.88146277859E+00 -2.43354150702E-01  2.93659399888E+00  6.70074883673E+00  1.27500000000E+00  0.00000000000E+00  1.
        2    1    5    5  803    0 -4.17052709857E+00 -3.83216444969E+01 -1.81484931598E+02  1.85533614557E+02  2.69739830470E-06  0.00000000000E+00  1.
       -1    1    5    5    0  803 -8.26962869641E+00  3.29252166334E+01 -5.88276880941E+01  6.79201997614E+01  0.00000000000E+00  0.00000000000E+00  1.
</event>
<event>
 9   1   1.0000000E+00   6.2535082E+01   7.8125000E-03   1.3827629E-01
       -2   -1    0    0    0  502  0.00000000000E+00  0.00000000000E+00  5.68376533922E+02  5.68376533922E+02  0.00000000000E+00  0.00000000000E+00  1.
        2   -1    0    0  502    0  0.00000000000E+00  0.00000000000E+00 -6.88036221703E+00  6.88036221703E+00  0.00000000000E+00  0.00000000000E+00  1.
       32    2    1    2    0    0  2.66453525910E-15 -7.10542735760E-15  5.61496171705E+02  5.75256896140E+02  1.25070163173E+02  0.00000000000E+00  1.
       24    2    3    3    0    0  6.31183143197E+00 -1.84338340576E+01  1.81026265646E+02  1.86616785740E+02  4.09349534277E+01  0.00000000000E+00  1.
      -24    2    3    3    0    0 -6.31183143197E+00  1.84338340576E+01  3.80469906060E+02  3.88640110400E+02  7.68384053732E+01  0.00000000000E+00  1.
        2    1    4    4  804    0 -1.51243400818E+01 -1.21936826173E+01  1.21461285956E+02  1.23005185032E+02  1.90734863281E-06  0.00000000000E+00  1.
       -1    1    4    4    0  804  2.14361715138E+01 -6.24015144033E+00  5.95649796894E+01  6.36116007075E+01  0.00000000000E+00  0.00000000000E+00  1.
       13    1    5    5    0    0 -4.32264409864E+00  3.45606188254E+01  3.63428032824E+02  3.65093231699E+02  1.05660000090E-01  0.00000000000E+00  1.
      -14    1    5    5    0    0 -1.98918733333E+00 -1.61267847677E+01  1.70418732356E+01  2.35468788012E+01  3.22526675665E-06  0.00000000000E+00  1.
</event>
<event>
 9   1   1.0000000E+00   6.2501049E+01   7.8125000E-03   1.3828899E-01
        1   -1    0    0  501    0  0.00000000000E+00  0.00000000000E+00  1.56632529385E+02  1.56632529385E+02  0.00000000000E+00  0.00000000000E+00  1.
       -1   -1    0    0    0  501  0.00000000000E+00  0.00000000000E+00 -2.49397820307E+01  2.49397820307E+01  0.00000000000E+00  0.00000000000E+00  1.
       32    2    1    2    0    0 -8.88178419700E-16  0.00000000000E+00  1.31692747355E+02  1.81572311416E+02  1.25002098251E+02  0.00000000000E+00  1.
       24    2    3    3    0    0  3.30469647092E+00  5.93065388382E+00  4.86303752142E+01  9.10880472186E+01  7.67204358588E+01  0.00000000000E+00  1.
      -24    2    3    3    0    0 -3.30469647092E+00 -5.93065388382E+00  8.30623721405E+01  9.04842641975E+01  3.52413213077E+01  0.00000000000E+00  1.
        2    1    4    4  803    0 -1.07799447162E+01  1.64733577767E+01  6.44736719030E+01  6.74124105279E+01  1.65181236989E-06  0.00000000000E+00  1.
       -1    1    4    4    0  803  1.40846411871E+01 -1.05427038929E+01 -1.58432966888E+01  2.36756366907E+01  1.10550147241E-06  0.00000000000E+00  1.
        3    1    5    5  804    0 -4.19951974127E+00  1.30330838375E+01  5.42838057037E+01  5.59841834990E+01  0.00000000000E+00  0.00000000000E+00  1.
       -4    1    5    5    0  804  8.94823270349E-01 -1.89637377213E+01  2.87785664367E+01  3.45000806985E+01  1.27500000000E+00  0.00000000000E+00  1.
</event>
<event>
 9   1   1.0000000E+00   6.2499949E+01   7.8125000E-03   1.3828940E-01
        1   -1    0    0  501    0  0.00000000000E+00  0.00000000000E+00  6.59929965906E+01  6.59929965906E+01  0.00000000000E+00  0.00000000000E+00  1.
       -1   -1    0    0    0  501  0.00000000000E+00  0.00000000000E+00 -5.91917913203E+01  5.91917913203E+01  0.00000000000E+00  0.00000000000E+00  1.
       32    2    1    2    0    0  0.00000000000E+00  4.44089209850E-16  6.80120527030E+00  1.25184787911E+02  1.24999898925E+02  0.00000000000E+00  1.
      -24    2    3    3    0    0 -1.17170678146E+01 -1.85044613103E+00  1.30210970714E+01  8.25321939669E+01  8.06306408445E+01  0.00000000000E+00  1.
       24    2    3    3    0    0  1.17170678146E+01  1.85044613103E+00 -6.21989180113E+00  4.26525939440E+01  4.04949736026E+01  0.00000000000E+00  1.
       15    1    4    4    0    0 -1.63749125832E+01  3.75759538888E+01  9.55055705547E-01  4.10385090178E+01  1.77680000000E+00  0.00000000000E+00  1.
      -16    1    4    4    0    0  4.65784476858E+00 -3.94264000198E+01  1.20660413659E+01  4.14936850491E+01  1.32745846816E-06  0.00000000000E+00  1.
        4    1    5    5  803    0 -1.22020421573E+01 -3.63314208035E+00 -1.18896308651E+01  1.74664965374E+01  1.27500000000E+00  0.00000000000E+00  1.
       -3    1    5    5    0  803  2.39191099719E+01  5.48358821138E+00  5.66973906394E+00  2.51860975066E+01  0.00000000000E+00  0.00000000000E+00  1.
</event>
<event>
 9   1   1.0000000E+00   6.2500555E+01   7.8125000E-03   1.3828918E-01
       -3   -1    0    0    0  502  0.00000000000E+00  0.00000000000E+00  3.52564358958E+02  3.52564358958E+02  0.00000000000E+00  0.00000000000E+00  1.
        3   -1    0    0  502    0  0.00000000000E+00  0.00000000000E+00 -1.10797340263E+01  1.10797340263E+01  0.00000000000E+00  0.00000000000E+00  1.
       32    2    1    2    0    0  0.00000000000E+00 -1.77635683940E-15  3.41484624932E+02  3.63644092985E+02  1.25001109186E+02  0.00000000000E+00  1.
       24    2    3    3    0    0  1.87629041149E+01  1.83588559378E+00  2.41377468003E+02  2.52570011502E+02  7.19243463886E+01  0.00000000000E+00  1.
      -24    2    3    3    0    0 -1.87629041149E+01 -1.83588559378E+00  1.00107156929E+02  1.11074081483E+02  4.42785688819E+01  0.00000000000E+00  1.
        4    1    4    4  804    0 -1.03324237819E+01 -2.42195240259E+01  4.34192137337E+01  5.07956501238E+01  1.27500000000E+00  0.00000000000E+00  1.
       -3    1    4    4    0  804  2.90953278968E+01  2.60554096197E+01  1.97958254270E+02  2.01774361378E+02  0.00000000000E+00  0.00000000000E+00  1.
        1    1    5    5  803    0 -2.10059792786E+00  4.07465756296E+00 -3.62130615606E+00  5.84202065678E+00  1.07205544404E-06  0.00000000000E+00  1.
       -4    1    5    5    0  803 -1.66623061870E+01 -5.91054315674E+00  1.03728463085E+02  1.05232060926E+02  1.27500000000E+00  0.00000000000E+00  1.
</event>
<event>
 9   1   1.0000000E+00   6.2498060E+01   7.8125000E-03   1.3829011E-01
       -1   -1    0    0    0  502  0.00000000000E+00  0.00000000000E+00  6.33125316905E+00  6.33125316905E+00  0.00000000000E+00  0.00000000000E+00  1.
        1   -1    0    0  502    0  0.00000000000E+00  0.00000000000E+00 -6.16940659469E+02  6.16940659469E+02  0.00000000000E+00  0.00000000000E+00  1.
       32    2    1    2    0    0  3.55271367880E-15 -3.55271367880E-15 -6.10609406299E+02  6.23271912638E+02  1.24996120026E+02  0.00000000000E+00  1.
       24    2    3    3    0    0  1.53069122691E+01  2.20348337580E+01 -3.05293156216E+02  3.16637283278E+02  7.95953671222E+01  0.00000000000E+00  1.
      -24    2    3    3    0    0 -1.53069122691E+01 -2.20348337580E+01 -3.05316250084E+02  3.06634629360E+02  9.32458554400E+00  0.00000000000E+00  1.
       16    1    4    4    0    0  3.53639588604E+01 -1.67713590304E+01 -1.18512554484E+02  1.24808307677E+02  3.30362473978E-06  0.00000000000E+00  1.
      -15    1    4    4    0    0 -2.00570465913E+01  3.88061927884E+01 -1.86780601732E+02  1.91828975700E+02  1.77680000000E+00  0.00000000000E+00  1.
       15    1    5    5    0    0 -2.31436789315E+00 -7.61913289832E+00 -1.27946182325E+02  1.28206045391E+02  1.77680000000E+00  0.00000000000E+00  1.
      -16    1    5    5    0    0 -1.29925443760E+01 -1.44157008597E+01 -1.77370067758E+02  1.78428583969E+02  0.00000000000E+00  0.00000000000E+00  1.
</event>
<event>
 9   1   1.0000000E+00   6.2500885E+01   7.8125000E-03   1.3828906E-01
        2   -1    0    0  501    0  0.00000000000E+00  0.00000000000E+00  3.11812894535E+02  3.11812894535E+02  0.00000000000E+00  0.00000000000E+00  1.
       -2   -1    0    0    0  501  0.00000000000E+00  0.00000000000E+00 -1.25278995577E+01  1.25278995577E+01  0.00000000000E+00  0.00000000000E+00  1.
       32    2    1    2    0    0 -3.55271367880E-15 -5.32907051820E-15  2.99284994977E+02  3.24340794093E+02  1.25001769964E+02  0.00000000000E+00  1.
      -24    2    3    3    0    0  1.81363547053E+01  1.06155538420E+01  1.85386164484E+02  2.02848200110E+02  7.96099551579E+01  0.00000000000E+00  1.
       24    2    3    3    0    0 -1.81363547053E+01 -1.06155538420E+01  1.13898830493E+02  1.21492593983E+02  3.66863661270E+01  0.00000000000E+00  1.
        3    1    4    4  803    0 -1.80751412806E+01  3.38087040085E+01  1.03047696404E+02  1.09948019232E+02  1.90734863281E-06  0.00000000000E+00  1.
       -4    1    4    4    0  803  3.62114959859E+01 -2.31931501665E+01  8.23384680804E+01  9.29001808772E+01  1.27500000000E+00  0.00000000000E+00  1.
       16    1    5    5    0    0  1.20135401721E+00  9.25541199362E+00  8.95968288466E+00  1.29376127098E+01  0.00000000000E+00  0.00000000000E+00  1.
      -15    1    5    5    0    0 -1.93377087225E+01 -1.98709658356E+01  1.04939147609E+02  1.08554981373E+02  1.77680000000E+00  0.00000000000E+00  1.
</event>
<event>
 9   1   1.0000000E+00   6.2498191E+01   7.8125000E-03   1.3829006E-01
        1   -1    0    0  501    0  0.00000000000E+00  0.00000000000E+00  1.22752612154E+03  1.22752612154E+03  0.00000000000E+00  0.00000000000E+00  1.
       -1   -1    0    0    0  501  0.00000000000E+00  0.00000000000E+00 -3.18202913904E+00  3.18202913904E+00  0.00000000000E+00  0.00000000000E+00  1.
       32    2    1    2    0    0  7.10542735760E-15  0.00000000000E+00  1.22434409240E+03  1.23070815068E+03  1.24996382151E+02  0.00000000000E+00  1.
       24    2    3    3    0    0  2.04904283466E+01  2.11176677282E+01  6.41813926239E+02  6.43913369756E+02  4.28193681836E+01  0.00000000000E+00  1.
      -24    2    3    3    0    0 -2.04904283466E+01 -2.11176677282E+01  5.82530166164E+02  5.86794780926E+02  6.41942901369E+01  0.00000000000E+00  1.
       16    1    4    4    0    0 -4.81889374534E+00  2.57023865309E+01  3.13776726226E+02  3.14864523774E+02  0.00000000000E+00  0.00000000000E+00  1.
      -15    1    4    4    0    0  2.53093220919E+01 -4.58471880267E+00  3.28037200013E+02  3.29048845982E+02  1.77679999999E+00  0.00000000000E+00  1.
        3    1    5    5  804    0 -3.96958917562E+01 -2.42750024110E+01  4.91547044099E+02  4.93744403741E+02  9.34406182397E-06  0.00000000000E+00  1.
       -4    1    5    5    0  804  1.92054634096E+01  3.15733468283E+00  9.09831220655E+01  9.30503772849E+01  1.27499999999E+00  0.00000000000E+00  1.
</event>
<event>
 9   1   1.0000000E+00   6.2498731E+01   7.8125000E-03   1.3828986E-01
        2   -1    0    0  501    0  0.00000000000E+00  0.00000000000E+00  8.19161813676E+02  8.19161813676E+02  0.00000000000E+00  0.00000000000E+00  1.
       -2   -1    0    0    0  501  0.00000000000E+00  0.00000000000E+00 -4.76840015334E+00  4.76840015334E+00  0.00000000000E+00  0.00000000000E+00  1.
       32    2    1    2    0    0 -5.32907051820E-15 -1.77635683940E-15  8.14393413523E+02  8.23930213830E+02  1.24997461061E+02  0.00000000000E+00  1.
       24    2    3    3    0    0 -6.65584438484E+00 -8.78689156629E+00  1.72939610679E+02  1.77160850977E+02  3.68286362650E+01  0.00000000000E+00  1.
      -24    2    3    3    0    0  6.65584438484E+00  8.78689156629E+00  6.41453802844E+02  6.46769362853E+02  8.20129124850E+01  0.00000000000E+00  1.
       12    1    4    4    0    0  1.45452768799E+01 -8.36081112165E+00  6.30497136274E+01  6.52436558649E+01  1.78416127528E-06  0.00000000000E+00  1.
      -11    1    4    4    0    0 -2.12011212647E+01 -4.26080444630E-01  1.09889897052E+02  1.11917195112E+02  5.11002157370E-04  0.00000000000E+00  1.
        1    1    5    5  803    0 -1.45511606709E+01  2.97955528911E+01  5.39946867094E+02  5.40964075086E+02  1.07895932188E-05  0.00000000000E+00  1.
       -2    1    5    5    0  803  2.12070050557E+01 -2.10086613248E+01  1.01506935749E+02  1.05805287866E+02  6.74349576174E-06  0.00000000000E+00  1.
</event>
<event>
 9   1   1.0000000E+00   6.2501192E+01   7.8125000E-03   1.3828894E-01
        1   -1    0    0  501    0  0.00000000000E+00  0.00000000000E+00  1.01953639839E+03  1.01953639839E+03  0.00000000000E+00  0.00000000000E+00  1.
       -1   -1    0    0    0  501  0.00000000000E+00  0.00000000000E+00 -3.83154443552E+00  3.83154443552E+00  0.00000000000E+00  0.00000000000E+00  1.
       32    2    1    2    0    0  1.77635683940E-15 -1.77635683940E-15  1.01570485396E+03  1.02336794283E+03  1.25002384202E+02  0.00000000000E+00  1.
      -24    2    3    3    0    0 -1.22224605925E+01  8.44416268455E+00  2.47801961181E+02  2.51607917779E+02  4.09882897603E+01  0.00000000000E+00  1.
       24    2    3    3    0    0  1.22224605925E+01 -8.44416268455E+00  7.67902892776E+02  7.71760025049E+02  7.56173994780E+01  0.00000000000E+00  1.
        1    1    4    4  804    0 -2.53951575121E+01  8.43352550719E-01  1.95352914225E+02  1.96998442645E+02  2.69739830470E-06  0.00000000000E+00  1.
       -2    1    4    4    0  804  1.31726969195E+01  7.60081013383E+00  5.24490469560E+01  5.46094753348E+01  1.34869915235E-06  0.00000000000E+00  1.
       16    1    5    5    0    0  1.87329253557E+01 -8.16535957994E+00  7.63329563363E+02  7.63603050050E+02  1.07895932188E-05  0.00000000000E+00  1.
      -15    1    5    5    0    0 -6.51046476319E+00 -2.78803104607E-01  4.57332941292E+00  8.15697509881E+00  1.77679999992E+00  0.00000000000E+00  1.
</event>
<event>
 9   1   1.0000000E+00   6.2499606E+01   7.8125000E-03   1.3828953E-01
        1   -1    0    0  501    0  0.00000000000E+00  0.00000000000E+00  6.22562756906E+02  6.22562756906E+02  0.00000000000E+00  0.00000000000E+00  1.
       -1   -1    0    0    0  501  0.00000000000E+00  0.00000000000E+00 -6.27438883371E+00  6.27438883371E+00  0.00000000000E+00  0.00000000000E+00  1.
       32    2    1    2    0    0 -3.55271367880E-15  0.00000000000E+00  6.16288368072E+02  6.28837145739E+02  1.24999212961E+02  0.00000000000E+00  1.
       24    2    3    3    0    0  1.70584947788E+01  8.05189075492E+00  4.66200637524E+02  4.73470356292E+02  8.04693647978E+01  0.00000000000E+00  1.
      -24    2    3    3    0    0 -1.70584947788E+01 -8.05189075492E+00  1.50087730548E+02  1.55366789447E+02  3.54497843886E+01  0.00000000000E+00  1.
        4    1    4    4  803    0 -2.07228559054E+01 -7.20778293838E+00  3.43062096716E+02  3.43765351250E+02  1.27500000001E+00  0.00000000000E+00  1.
       -3    1    4    4    0  803  3.77813506841E+01  1.52596736933E+01  1.23138540808E+02  1.29705005042E+02  3.30362473978E-06  0.00000000000E+00  1.
        3    1    5    5  804    0  7.93150375312E+00  6.11108597578E+00  5.91604705350E+01  6.00017950524E+01  1.34869915235E-06  0.00000000000E+00  1.
       -4    1    5    5    0  804 -2.49899985319E+01 -1.41629767307E+01  9.09272600134E+01  9.53649944951E+01  1.27500000000E+00  0.00000000000E+00  1.
</event>
<event>
 9   1   1.0000000E+00   6.2501309E+01   7.8125000E-03   1.3828890E-01
       -2   -1    0    0    0  502  0.00000000000E+00  0.00000000000E+00  3.31057000761E+02  3.31057000761E+02  0.00000000000E+00  0.00000000000E+00  1.
        2   -1    0    0  502    0  0.00000000000E+00  0.00000000000E+00 -1.17998218989E+01  1.17998218989E+01  0.00000000000E+00  0.00000000000E+00  1.
       32    2    1    2    0    0 -3.55271367880E-15 -3.55271367880E-15  3.19257178863E+02  3.42856822660E+02  1.25002618330E+02  0.00000000000E+00  1.
      -24    2    3    3    0    0 -2.20138981447E+01 -2.43334056804E+00  1.48322877983E+01  2.71696405856E+01  5.25925378469E+00  0.00000000000E+00  1.
       24    2    3    3    0    0  2.20138981447E+01  2.43334056804E+00  3.04424891064E+02  3.15687182075E+02  8.05813239463E+01  0.00000000000E+00  1.
        3    1    4    4  803    0 -7.83690956748E+00 -1.65708235326E+00  2.70770650361E+00  8.45545679991E+00  0.00000000000E+00  0.00000000000E+00  1.
       -4    1    4    4    0  803 -1.41769885772E+01 -7.76258214786E-01  1.21245812947E+01  1.87141838856E+01  1.27500000000E+00  0.00000000000E+00  1.
       12    1    5    5    0    0  1.39915572570E+01 -3.51794777097E+01  2.15525593519E+02  2.18825594554E+02  4.67203091199E-06  0.00000000000E+00  1.
      -11    1    5    5    0    0  8.02234088773E+00  3.76128182777E+01  8.88992975450E+01  9.68615876205E+01  5.11002157370E-04  0.00000000000E+00  1.
</event>
<event>
 9   1   1.0000000E+00   6.2500500E+01   7.8125000E-03   1.3828920E-01
       -2   -1    0    0    0  502  0.00000000000E+00  0.00000000000E+00  6.28283760252E+00  6.28283760252E+00  0.00000000000E+00  0.00000000000E+00  1.
        2   -1    0    0  502    0  0.00000000000E+00  0.00000000000E+00 -6.21743355537E+02  6.21743355537E+02  0.00000000000E+00  0.00000000000E+00  1.
       32    2    1    2    0    0  0.00000000000E+00 -1.77635683940E-15 -6.15460517935E+02  6.28026193140E+02  1.25001000529E+02  0.00000000000E+00  1.
       24    2    3    3    0    0  2.26848407723E+01  7.61564007835E+00 -2.39335649826E+02  2.43430153591E+02  3.74711412303E+01  0.00000000000E+00  1.
      -24    2    3    3    0    0 -2.26848407723E+01 -7.61564007835E+00 -3.76124868109E+02  3.84596039549E+02  7.66263482885E+01  0.00000000000E+00  1.
       16    1    4    4    0    0  1.66292024341E+01  1.47794881422E+01 -6.25828809390E+01  6.64197307279E+01  3.37174788087E-06  0.00000000000E+00  1.
      -15    1    4    4    0    0  6.05563833821E+00 -7.16384806389E+00 -1.76752768887E+02  1.77010422863E+02  1.77680000000E+00  0.00000000000E+00  1.
        3    1    5    5  803    0  5.19558916716E+00  2.98237304425E+01 -2.04626297476E+02  2.06853500485E+02  4.67203091199E-06  0.00000000000E+00  1.
       -4    1    5    5    0  803 -2.78804299394E+01 -3.74393705208E+01 -1.71498570633E+02  1.77742539064E+02  1.27500000000E+00  0.00000000000E+00  1.
</event>
<event>
 9   1   1.0000000E+00   6.2500336E+01   7.8125000E-03   1.3828926E-01
        2   -1    0    0  501    0  0.00000000000E+00  0.00000000000E+00  6.62240191986E+01  6.62240191986E+01  0.00000000000E+00  0.00000000000E+00  1.
       -2   -1    0    0    0  501  0.00000000000E+00  0.00000000000E+00 -5.89860305980E+01  5.89860305980E+01  0.00000000000E+00  0.00000000000E+00  1.
       32    2    1    2    0    0  0.00000000000E+00  0.00000000000E+00  7.23798860063E+00  1.25210049797E+02  1.25000672363E+02  0.00000000000E+00  1.
      -24    2    3    3    0    0  5.11703525300E-03  2.59604152396E+01  4.27593425239E+00  8.79248887277E+01  8.38961218320E+01  0.00000000000E+00  1.
       24    2    3    3    0    0 -5.11703525300E-03 -2.59604152396E+01  2.96205434825E+00  3.72851610689E+01  2.65982383698E+01  0.00000000000E+00  1.
        3    1    4    4  804    0 -2.06261431915E+01 -2.37089948260E+01  1.18704067577E+01  3.35925703382E+01  0.00000000000E+00  0.00000000000E+00  1.
       -4    1    4    4    0  804  2.06312602268E+01  4.96694100656E+01 -7.59447250526E+00  5.43323184895E+01  1.27500000000E+00  0.00000000000E+00  1.
        4    1    5    5  803    0 -4.53262839514E+00 -3.04262678399E+01  1.99938315787E+00  3.08532924150E+01  1.27500000000E+00  0.00000000000E+00  1.
       -3    1    5    5    0  803  4.52751135989E+00  4.46585260024E+00  9.62671190384E-01  6.43186865396E+00  0.00000000000E+00  0.00000000000E+00  1.
</event>
<event>
 9   1   1.0000000E+00   6.2499233E+01   7.8125000E-03   1.3828967E-01
        2   -1    0    0  501    0  0.00000000000E+00  0.00000000000E+00  3.87593110819E+02  3.87593110819E+02  0.00000000000E+00  0.00000000000E+00  1.
       -2   -1    0    0    0  501  0.00000000000E+00  0.00000000000E+00 -1.00779761266E+01  1.00779761266E+01  0.00000000000E+00  0.00000000000E+00  1.
       32    2    1    2    0    0  5.32907051820E-15  0.00000000000E+00  3.77515134692E+02  3.97671086945E+02  1.24998465873E+02  0.00000000000E+00  1.
      -24    2    3    3    0    0 -4.35540727913E+00  4.83563037058E+00  3.14195078274E+02  3.24008706438E+02  7.88716789633E+01  0.00000000000E+00  1.
       24    2    3    3    0    0  4.35540727913E+00 -4.83563037058E+00  6.33200564179E+01  7.36623805069E+01  3.70724137808E+01  0.00000000000E+00  1.
        1    1    4    4  803    0 -3.59379199749E+01  1.03750144762E+01  8.89816144980E+01  9.65241044308E+01  1.90734863281E-06  0.00000000000E+00  1.
       -2    1    4    4    0  803  3.15825126958E+01 -5.53938410565E+00  2.25213463776E+02  2.27484602008E+02  2.69739830470E-06  0.00000000000E+00  1.
       14    1    5    5    0    0  1.80694720471E+01 -1.19589837495E+01  3.08169542524E+01  3.76723743519E+01  0.00000000000E+00  0.00000000000E+00  1.
      -13    1    5    5    0    0 -1.37140647680E+01  7.12335337888E+00  3.25031021654E+01  3.59900062550E+01  1.05659999997E-01  0.00000000000E+00  1.
</event>
<event>
 9   1   1.0000000E+00   6.2501126E+01   7.8125000E-03   1.3828897E-01
        1   -1    0    0  501    0  0.00000000000E+00  0.00000000000E+00  1.07171544708E+01  1.07171544708E+01  0.00000000000E+00  0.00000000000E+00  1.
       -1   -1    0    0    0  501  0.00000000000E+00  0.00000000000E+00 -3.64498874269E+02  3.64498874269E+02  0.00000000000E+00  0.00000000000E+00  1.
       32    2    1    2    0    0 -8.88178419700E-16  0.00000000000E+00 -3.53781719798E+02  3.75216028740E+02  1.25002251819E+02  0.00000000000E+00  1.
       24    2    3    3    0    0 -7.26583131179E+00  7.17514265874E+00 -2.11255705333E+02  2.11832663463E+02  1.18249438487E+01  0.00000000000E+00  1.
      -24    2    3    3    0    0  7.26583131179E+00 -7.17514265874E+00 -1.42526014465E+02  1.63383365277E+02  7.92223723022E+01  0.00000000000E+00  1.
        4    1    4    4  804    0 -3.12612400899E+00 -3.01680377426E+00 -7.27830428917E+01  7.29237321721E+01  1.27500000000E+00  0.00000000000E+00  1.
       -3    1    4    4    0  804 -4.13970730280E+00  1.01919464330E+01 -1.38472662442E+02  1.38908931391E+02  1.90734863281E-06  0.00000000000E+00  1.
        1    1    5    5  803    0 -1.36696610630E+01 -7.20181542133E+00  3.51818169235E+00  1.58462418686E+01  2.31539304251E-06  0.00000000000E+00  1.
       -2    1    5    5    0  803  2.09354923747E+01  2.66727625929E-02 -1.46044196157E+02  1.47537123408E+02  3.30362473978E-06  0.00000000000E+00  1.
</event>
<event>
 9   1   1.0000000E+00   6.2500013E+01   7.8125000E-03   1.3828938E-01
       -2   -1    0    0    0  502  0.00000000000E+00  0.00000000000E+00  1.29427223195E+01  1.29427223195E+01  0.00000000000E+00  0.00000000000E+00  1.
        2   -1    0    0  502    0  0.00000000000E+00  0.00000000000E+00 -3.01810667784E+02  3.01810667784E+02  0.00000000000E+00  0.00000000000E+00  1.
       32    2    1    2    0    0  3.55271367880E-15  3.55271367880E-15 -2.88867945464E+02  3.14753390103E+02  1.25000026659E+02  0.00000000000E+00  1.
      -24    2    3    3    0    0  1.45863828150E+01 -4.82236201317E+00 -1.88106136155E+02  2.05345780932E+02  8.09132470504E+01  0.00000000000E+00  1.
       24    2    3    3    0    0 -1.45863828150E+01  4.82236201317E+00 -1.00761809309E+02  1.09407609172E+02  3.97626079423E+01  0.00000000000E+00  1.
        1    1    4    4  803    0  4.09173127550E+01  1.68217724094E+01 -7.35866795762E+01  8.58615043027E+01  0.00000000000E+00  0.00000000000E+00  1.
       -2    1    4    4    0  803 -2.63309299400E+01 -2.16441344226E+01 -1.14519456579E+02  1.19484276629E+02  1.90734863281E-06  0.00000000000E+00  1.
       14    1    5    5    0    0  1.94105165802E+00  2.28232633859E+00  3.03955757948E+00  4.26797448300E+00  0.00000000000E+00  0.00000000000E+00  1.
      -13    1    5    5    0    0 -1.65274344730E+01  2.54003567458E+00 -1.03801366889E+02  1.05139634789E+02  1.05660000004E-01  0.00000000000E+00  1.
</event>
<event>
 9   1   1.0000000E+00   6.2498143E+01   7.8125000E-03   1.3829008E-01
       -2   -1    0    0    0  502  0.00000000000E+00  0.00000000000E+00  1.37835584319E+01  1.37835584319E+01  0.00000000000E+00  0.00000000000E+00  1.
        2   -1    0    0  502    0  0.00000000000E+00  0.00000000000E+00 -2.83382400938E+02  2.83382400938E+02  0.00000000000E+00  0.00000000000E+00  1.
       32    2    1    2    0    0 -7.10542735760E-15 -2.22044604925E-15 -2.69598842506E+02  2.97165959370E+02  1.24996286055E+02  0.00000000000E+00  1.
      -24    2    3    3    0    0 -3.39234693606E+01  2.56614768869E+00 -1.88195443895E+02  2.07462836219E+02  8.04109222775E+01  0.00000000000E+00  1.
       24    2    3    3    0    0  3.39234693606E+01 -2.56614768869E+00 -8.14033986110E+01  8.97031231515E+01  1.62095684792E+01  0.00000000000E+00  1.
        3    1    4    4  803    0 -5.81072237284E+01 -8.48781190733E+00 -1.48276250856E+02  1.59481469144E+02  1.90734863281E-06  0.00000000000E+00  1.
       -4    1    4    4    0  803  2.41837543679E+01  1.10539595960E+01 -3.99191930392E+01  4.79813671749E+01  1.27500000000E+00  0.00000000000E+00  1.
       14    1    5    5    0    0  7.01382652225E+00  1.34467389099E+00 -5.31693371265E+00  8.90346530638E+00  0.00000000000E+00  0.00000000000E+00  1.
      -13    1    5    5    0    0  2.69096428383E+01 -3.91082157968E+00 -7.60864648984E+01  8.07996578451E+01  1.05660000012E-01  0.00000000000E+00  1.
</event>
<event>
 9   1   1.0000000E+00   6.2498670E+01   7.8125000E-03   1.3828988E-01
       -2   -1    0    0    0  502  0.00000000000E+00  0.00000000000E+00  1.69027749678E+00  1.69027749678E+00  0.00000000000E+00  0.00000000000E+00  1.
        2   -1    0    0  502    0  0.00000000000E+00  0.00000000000E+00 -2.31091268101E+03  2.31091268101E+03  0.00000000000E+00  0.00000000000E+00  1.
       32    2    1    2    0    0 -3.55271367880E-15  0.00000000000E+00 -2.30922240351E+03  2.31260295851E+03  1.24997339199E+02  0.00000000000E+00  1.
      -24    2    3    3    0    0 -1.98468719802E+01  6.83520807995E+00 -1.51928913088E+03  1.52136499045E+03  7.66247514689E+01  0.00000000000E+00  1.
       24    2    3    3    0    0  1.98468719802E+01 -6.83520807995E+00 -7.89933272628E+02  7.91237968059E+02  4.02781391858E+01  0.00000000000E+00  1.
        1    1    4    4  803    0 -2.64962022242E+01  3.45334594983E+01 -1.20550942834E+03  1.20629498490E+03  1.52587890625E-05  0.00000000000E+00  1.
       -2    1    4    4    0  803  6.64933024395E+00 -2.76982514183E+01 -3.13779702548E+02  3.15070005643E+02  1.82946453984E-05  0.00000000000E+00  1.
       16    1    5    5    0    0 -1.10620265223E+01 -8.99953981460E+00 -2.76610029539E+02  2.76977379201E+02  0.00000000000E+00  0.00000000000E+00  1.
      -15    1    5    5    0    0  3.09088985025E+01  2.16433173464E+00 -5.13323243089E+02  5.14260588858E+02  1.77680000002E+00  0.00000000000E+00  1.
</event>
<event>
 9   1   1.0000000E+00   6.2503800E+01   7.8125000E-03   1.3828797E-01
        2   -1    0    0  501    0  0.00000000000E+00  0.00000000000E+00  8.52478534940E+01  8.52478534940E+01  0.00000000000E+00  0.00000000000E+00  1.
       -2   -1    0    0    0  501  0.00000000000E+00  0.00000000000E+00 -4.58278404801E+01  4.58278404801E+01  0.00000000000E+00  0.00000000000E+00  1.
       32    2    1    2    0    0  1.77635683940E-15  0.00000000000E+00  3.94200130139E+01  1.31075693974E+02  1.25007600268E+02  0.00000000000E+00  1.
      -24    2    3    3    0    0 -1.45296058086E+01  2.55930437464E+01  1.55689672803E+01  3.88329959353E+01  1.99873834700E+01  0.00000000000E+00  1.
       24    2    3    3    0    0  1.45296058086E+01 -2.55930437464E+01  2.38510457336E+01  9.22426980388E+01  8.41054672762E+01  0.00000000000E+00  1.
       15    1    4    4    0    0 -3.84488907243E+00  1.05394926533E+01 -3.89431980736E+00  1.20077817423E+01  1.77680000000E+00  0.00000000000E+00  1.
      -16    1    4    4    0    0 -1.06847167361E+01  1.50535510930E+01  1.94632870877E+01  2.68252141930E+01  0.00000000000E+00  0.00000000000E+00  1.
        4    1    5    5  803    0  2.88865907064E+01 -3.79130761467E+00  4.83363445758E+01  5.64520767379E+01  1.27500000000E+00  0.00000000000E+00  1.
       -3    1    5    5    0  803 -1.43569848979E+01 -2.18017361317E+01 -2.44852988423E+01  3.57906213009E+01  1.01152436426E-06  0.00000000000E+00  1.
</event>
<event>
 9   1   1.0000000E+00   6.2500592E+01   7.8125000E-03   1.3828917E-01
        2   -1    0    0  501    0  0.00000000000E+00  0.00000000000E+00  1.27928782762E+03  1.27928782762E+03  0.00000000000E+00  0.00000000000E+00  1.
       -2   -1    0    0    0  501  0.00000000000E+00  0.00000000000E+00 -3.05351453495E+00  3.05351453495E+00  0.00000000000E+00  0.00000000000E+00  1.
       32    2    1    2    0    0 -3.55271367880E-15 -3.55271367880E-15  1.27623431309E+03  1.28234134216E+03  1.25001183611E+02  0.00000000000E+00  1.
      -24    2    3    3    0    0  1.85704940240E+01  1.69340555224E+01  9.01211579901E+02  9.05129689112E+02  8.02858448350E+01  0.00000000000E+00  1.
       24    2    3    3    0    0 -1.85704940240E+01 -1.69340555224E+01  3.75022733189E+02  3.77211653047E+02  3.18583631300E+01  0.00000000000E+00  1.
        1    1    4    4  803    0 -7.41174369803E+00 -2.42432509435E+01  1.34146227909E+02  1.36520619773E+02  7.13664510112E-06  0.00000000000E+00  1.
       -2    1    4    4    0  803  2.59822377221E+01  4.11773064659E+01  7.67065351992E+02  7.68609069340E+02  1.52587890625E-05  0.00000000000E+00  1.
        4    1    5    5  804    0 -1.18288871212E+01  7.53708854332E+00  1.78834874204E+02  1.79388595319E+02  1.27500000000E+00  0.00000000000E+00  1.
       -3    1    5    5    0  804 -6.74160690287E+00 -2.44711440657E+01  1.96187858985E+02  1.97823057728E+02  5.39479660939E-06  0.00000000000E+00  1.
</event>
<event>
 9   1   1.0000000E+00   6.2501448E+01   7.8125000E-03   1.3828885E-01
       -2   -1    0    0    0  502  0.00000000000E+00  0.00000000000E+00  9.89093747863E+00  9.89093747863E+00  0.00000000000E+00  0.00000000000E+00  1.
        2   -1    0    0  502    0  0.00000000000E+00  0.00000000000E+00 -3.94950527672E+02  3.94950527672E+02  0.00000000000E+00  0.00000000000E+00  1.
       32    2    1    2    0    0 -3.55271367880E-15  0.00000000000E+00 -3.85059590193E+02  4.04841465150E+02  1.25002895588E+02  0.00000000000E+00  1.
       24    2    3    3    0    0  4.02800194589E+00  2.12242602957E+01 -6.27103538209E+01  7.17557708990E+01  2.73789728843E+01  0.00000000000E+00  1.
      -24    2    3    3    0    0 -4.02800194589E+00 -2.12242602957E+01 -3.22349236372E+02  3.33085694251E+02  8.10577294300E+01  0.00000000000E+00  1.
       12    1    4    4    0    0 -9.54439495992E+00  1.04764018586E+01 -1.34374489998E+01  1.95298620216E+01  0.00000000000E+00  0.00000000000E+00  1.
      -11    1    4    4    0    0  1.35723969058E+01  1.07478584371E+01 -4.92729048211E+01  5.22259089775E+01  5.10998597706E-04  0.00000000000E+00  1.
        1    1    5    5  803    0  1.42425354672E+01 -3.60406028313E+01 -2.92623948048E+02  2.95178843822E+02  3.81469726562E-06  0.00000000000E+00  1.
       -2    1    5    5    0  803 -1.82705374130E+01  1.48163425356E+01 -2.97252883239E+01  3.79068504288E+01  1.93692169300E-06  0.00000000000E+00  1.
</event>
<event>
 9   1   1.0000000E+00   6.2500188E+01   7.8125000E-03   1.3828932E-01
       -2   -1    0    0    0  502  0.00000000000E+00  0.00000000000E+00  3.78193547228E+00  3.78193547228E+00  0.00000000000E+00  0.00000000000E+00  1.
        2   -1    0    0  502    0  0.00000000000E+00  0.00000000000E+00 -1.03287681729E+03  1.03287681729E+03  0.00000000000E+00  0.00000000000E+00  1.
       32    2    1    2    0    0  3.55271367880E-15 -1.77635683940E-15 -1.02909488182E+03  1.03665875277E+03  1.25000375581E+02  0.00000000000E+00  1.
      -24    2    3    3    0    0 -2.79707628826E+01 -8.43319556047E+00 -1.51918318696E+02  1.55209169062E+02  1.25390686144E+01  0.00000000000E+00  1.
       24    2    3    3    0    0  2.79707628826E+01  8.43319556047E+00 -8.77176563126E+02  8.81449583705E+02  8.16159503580E+01  0.00000000000E+00  1.
       11    1    4    4    0    0 -2.58774050442E+01 -3.16140248112E+00 -1.21292585058E+02  1.24062588027E+02  5.10995038018E-04  0.00000000000E+00  1.
      -12    1    4    4    0    0 -2.09335783841E+00 -5.27179307935E+00 -3.06257336377E+01  3.11465811348E+01  0.00000000000E+00  0.00000000000E+00  1.
        2    1    5    5  804    0  5.04487955893E+01  2.08812310576E+01 -4.17442177315E+02  4.20997717557E+02  9.34406182397E-06  0.00000000000E+00  1.
       -1    1    5    5    0  804 -2.24780327066E+01 -1.24480354972E+01 -4.59734385811E+02  4.60451866148E+02  1.07895932188E-05  0.00000000000E+00  1.
</event>
<event>
 9   1   1.0000000E+00   6.2500300E+01   7.8125000E-03   1.3828927E-01
        2   -1    0    0  501    0  0.00000000000E+00  0.00000000000E+00  5.36394693709E+01  5.36394693709E+01  0.00000000000E+00  0.00000000000E+00  1.
       -2   -1    0    0    0  501  0.00000000000E+00  0.00000000000E+00 -7.28248714375E+01  7.28248714375E+01  0.00000000000E+00  0.00000000000E+00  1.
       32    2    1    2    0    0  0.00000000000E+00  2.66453525910E-15 -1.91854020666E+01  1.26464340808E+02  1.25000599373E+02  0.00000000000E+00  1.
       24    2    3    3    0    0 -2.84924122111E+01  6.11126501241E+00  2.31641985520E+00  4.19659219907E+01  3.01099268337E+01  0.00000000000E+00  1.
      -24    2    3    3    0    0  2.84924122111E+01 -6.11126501241E+00 -2.15018219218E+01  8.44984188177E+01  7.63445435056E+01  0.00000000000E+00  1.
        2    1    4    4  804    0 -1.07982327963E+01  1.36713380579E+01  1.12639749959E+01  2.07457091593E+01  0.00000000000E+00  0.00000000000E+00  1.
       -1    1    4    4    0  804 -1.76941794148E+01 -7.56007304545E+00 -8.94755514071E+00  2.12202129314E+01  0.00000000000E+00  0.00000000000E+00  1.
        3    1    5    5  803    0  3.23814732022E+01 -2.20307708433E+00 -4.77006086284E+01  5.76954193928E+01  0.00000000000E+00  0.00000000000E+00  1.
       -4    1    5    5    0  803 -3.88906099115E+00 -3.90818792808E+00  2.61987867066E+01  2.68029994249E+01  1.27500000000E+00  0.00000000000E+00  1.
</event>
<event>
 9   1   1.0000000E+00   6.2497962E+01   7.8125000E-03   1.3829015E-01
        3   -1    0    0  501    0  0.00000000000E+00  0.00000000000E+00  4.69034625466E+02  4.69034625466E+02  0.00000000000E+00  0.00000000000E+00  1.
       -3   -1    0    0    0  501  0.00000000000E+00  0.00000000000E+00 -8.32773322502E+00  8.32773322502E+00  0.00000000000E+00  0.00000000000E+00  1.
       32    2    1    2    0    0 -3.55271367880E-15 -1.77635683940E-15  4.60706892241E+02  4.77362358691E+02  1.24995923680E+02  0.00000000000E+00  1.
       24    2    3    3    0    0 -1.97718271840E+01  5.82183795681E-01  4.27517464995E+02  4.35430026006E+02  8.02300478852E+01  0.00000000000E+00  1.
      -24    2    3    3    0    0  1.97718271840E+01 -5.82183795681E-01  3.31894272458E+01  4.19323326848E+01  1.62947339751E+01  0.00000000000E+00  1.
        4    1    4    4  803    0 -2.27971192624E+01 -1.38004991720E+01  4.28164263563E+01  5.04483341150E+01  1.27499999999E+00  0.00000000000E+00  1.
       -3    1    4    4    0  803  3.02529207839E+00  1.43826829677E+01  3.84701038639E+02  3.84981691891E+02  0.00000000000E+00  0.00000000000E+00  1.
       13    1    5    5    0    0  1.75913501141E+01  5.81759981650E+00  2.10988173675E+01  2.80797315658E+01  1.05660000000E-01  0.00000000000E+00  1.
      -14    1    5    5    0    0  2.18047706993E+00 -6.39978361218E+00  1.20906098782E+01  1.38526012190E+01  0.00000000000E+00  0.00000000000E+00  1.
</event>
<event>
 9   1   1.0000000E+00   6.2507218E+01   7.8125000E-03   1.3828669E-01
        5   -1    0    0  501    0  0.00000000000E+00  0.00000000000E+00  8.55095784776E+01  8.55095784776E+01  0.00000000000E+00  0.00000000000E+00  1.
       -5   -1    0    0    0  501  0.00000000000E+00  0.00000000000E+00 -4.56925684862E+01  4.56925684862E+01  0.00000000000E+00  0.00000000000E+00  1.
       32    2    1    2    0    0  8.88178419700E-16 -1.77635683940E-15  3.98170099914E+01  1.31202146964E+02  1.25014435500E+02  0.00000000000E+00  1.
       24    2    3    3    0    0  4.01853396928E+00 -1.18476568824E+01  1.08464455232E+01  4.48614858538E+01  4.16940276737E+01  0.00000000000E+00  1.
      -24    2    3    3    0    0 -4.01853396928E+00  1.18476568824E+01  2.89705644682E+01  8.63406611100E+01  8.03672854242E+01  0.00000000000E+00  1.
       14    1    4    4    0    0  4.60602590397E+00 -2.32284209989E+01  1.93996477138E+01  3.06124378015E+01  0.00000000000E+00  0.00000000000E+00  1.
      -13    1    4    4    0    0 -5.87491934697E-01  1.13807641164E+01 -8.55320219062E+00  1.42490480523E+01  1.05660000001E-01  0.00000000000E+00  1.
        3    1    5    5  803    0 -1.32039205242E+01  4.44201872132E+01  9.59844648690E+00  4.73246946554E+01  1.26721213016E-06  0.00000000000E+00  1.
       -4    1    5    5    0  803  9.18538655497E+00 -3.25725303307E+01  1.93721179812E+01  3.90159664547E+01  1.27500000000E+00  0.00000000000E+00  1.
</event>
<event>
 9   1   1.0000000E+00   6.2476444E+01   7.8125000E-03   1.3829818E-01
       -2   -1    0    0    0  502  0.00000000000E+00  0.00000000000E+00  1.90345026558E+00  1.90345026558E+00  0.00000000000E+00  0.00000000000E+00  1.
        2   -1    0    0  502    0  0.00000000000E+00  0.00000000000E+00 -2.05064778244E+03  2.05064778244E+03  0.00000000000E+00  0.00000000000E+00  1.
       32    2    1    2    0    0 -6.66133814775E-15  3.55271367880E-15 -2.04874433218E+03  2.05255123271E+03  1.24952888180E+02  0.00000000000E+00  1.
      -24    2    3    3    0    0  1.87573521141E+00 -2.24574245486E+01 -8.96479627115E+02  8.97249257187E+02  2.95407073324E+01  0.00000000000E+00  1.
       24    2    3    3    0    0 -1.87573521141E+00  2.24574245486E+01 -1.15226470506E+03  1.15530197552E+03  8.06278476241E+01  0.00000000000E+00  1.
        3    1    4    4  803    0  1.70743979306E+00 -1.14592626526E+01 -9.65008220149E+01  9.71938202806E+01  1.34869915235E-06  0.00000000000E+00  1.
       -4    1    4    4    0  803  1.68295418358E-01 -1.09981618960E+01 -7.99978805100E+02  8.00055436906E+02  1.27499999999E+00  0.00000000000E+00  1.
        4    1    5    5  804    0  3.89190286688E+01  1.67848674160E+01 -5.52643533387E+02  5.54267916432E+02  1.27500000002E+00  0.00000000000E+00  1.
       -1    1    5    5    0  804 -4.07947638802E+01  5.67255713258E+00 -5.99621171675E+02  6.01034059190E+02  1.07895932188E-05  0.00000000000E+00  1.
</event>
<event>
 9   1   1.0000000E+00   6.2500437E+01   7.8125000E-03   1.3828922E-01
        2   -1    0    0  501    0  0.00000000000E+00  0.00000000000E+00  2.69057555678E+03  2.69057555678E+03  0.00000000000E+00  0.00000000000E+00  1.
       -2   -1    0    0    0  501  0.00000000000E+00  0.00000000000E+00 -1.45184720167E+00  1.45184720167E+00  0.00000000000E+00  0.00000000000E+00  1.
       32    2    1    2    0    0  0.00000000000E+00 -1.77635683940E-15  2.68912370958E+03  2.69202740398E+03  1.25000873485E+02  0.00000000000E+00  1.
      -24    2    3    3    0    0 -3.54320098178E+01 -4.42255269500E+00  1.22628251226E+03  1.22848637533E+03  6.43038740395E+01  0.00000000000E+00  1.
       24    2    3    3    0    0  3.54320098178E+01  4.42255269500E+00  1.46284119732E+03  1.46354102865E+03  2.78026557881E+01  0.00000000000E+00  1.
        1    1    4    4  804    0 -3.20183987016E+01  1.34736929706E+01  1.12767427356E+03  1.12820919413E+03  1.52587890625E-05  0.00000000000E+00  1.
       -2    1    4    4    0  804 -3.41361111624E+00 -1.78962456656E+01  9.86082387017E+01  1.00277181301E+02  8.84401177930E-06  0.00000000000E+00  1.
        2    1    5    5  803    0  1.69279647682E+01  1.04615252336E+01  1.09852706444E+03  1.09870729077E+03  2.15791864376E-05  0.00000000000E+00  1.
       -1    1    5    5    0  803  1.85040450497E+01 -6.03897253862E+00  3.64314132883E+02  3.64833737873E+02  1.07895932188E-05  0.00000000000E+00  1.
</event>
<event>
 9   1   1.0000000E+00   6.2499038E+01   7.8125000E-03   1.3828975E-01
       -2   -1    0    0    0  502  0.00000000000E+00  0.00000000000E+00  2.35773543471E+01  2.35773543471E+01  0.00000000000E+00  0.00000000000E+00  1.
        2   -1    0    0  502    0  0.00000000000E+00  0.00000000000E+00 -1.65672947641E+02  1.65672947641E+02  0.00000000000E+00  0.00000000000E+00  1.
       32    2    1    2    0    0  1.77635683940E-15  0.00000000000E+00 -1.42095593294E+02  1.89250301988E+02  1.24998076661E+02  0.00000000000E+00  1.
      -24    2    3    3    0    0 -1.12017102361E+01  1.10720284309E+01 -4.46246790185E+01  6.00840045004E+01  3.70223917855E+01  0.00000000000E+00  1.
       24    2    3    3    0    0  1.12017102361E+01 -1.10720284309E+01 -9.74709142755E+01  1.29166297488E+02  8.32783594411E+01  0.00000000000E+00  1.
       13    1    4    4    0    0 -3.07948827803E+00  1.58350693515E+01 -4.75598434755E+01  5.02213355545E+01  1.05660000002E-01  0.00000000000E+00  1.
      -14    1    4    4    0    0 -8.12222195808E+00 -4.76304092062E+00  2.93516445704E+00  9.86266904597E+00  0.00000000000E+00  0.00000000000E+00  1.
       14    1    5    5    0    0 -9.83276169573E-01 -4.68110983970E+01 -4.98240470731E+01  6.83716421155E+01  1.34869915235E-06  0.00000000000E+00  1.
      -13    1    5    5    0    0  1.21849864057E+01  3.57390699661E+01 -4.76468672024E+01  6.07946554722E+01  1.05659999997E-01  0.00000000000E+00  1.
</event>
<event>
 9   1   1.0000000E+00   6.2492752E+01   7.8125000E-03   1.3829209E-01
       -2   -1    0    0    0  502  0.00000000000E+00  0.00000000000E+00  1.94333171544E+01  1.94333171544E+01  0.00000000000E+00  0.00000000000E+00  1.
        2   -1    0    0  502    0  0.00000000000E+00  0.00000000000E+00 -2.00961268424E+02  2.00961268424E+02  0.00000000000E+00  0.00000000000E+00  1.
       32    2    1    2    0    0  0.00000000000E+00 -3.55271367880E-15 -1.81527951270E+02  2.20394585579E+02  1.24985504200E+02  0.00000000000E+00  1.
      -24    2    3    3    0    0  2.40676542549E+01  1.32931826939E+01 -5.72082127748E+01  6.93170789672E+01  2.78588790190E+01  0.00000000000E+00  1.
       24    2    3    3    0    0 -2.40676542549E+01 -1.32931826939E+01 -1.24319738495E+02  1.51077506612E+02  8.13206919362E+01  0.00000000000E+00  1.
        1    1    4    4  804    0  1.51250774614E+01  8.04235742296E+00 -7.78268046387E+00  1.88153554337E+01  0.00000000000E+00  0.00000000000E+00  1.
       -2    1    4    4    0  804  8.94257679352E+00  5.25082527097E+00 -4.94255323109E+01  5.05017237335E+01  0.00000000000E+00  0.00000000000E+00  1.
       14    1    5    5    0    0 -1.74358123435E+01 -4.14769171081E+01 -3.44736417481E+01  5.66813389066E+01  1.65181236989E-06  0.00000000000E+00  1.
      -13    1    5    5    0    0 -6.63184191141E+00  2.81837344141E+01 -8.98460967472E+01  9.43961677051E+01  1.05660000008E-01  0.00000000000E+00  1.
</event>
<event>
 9   1   1.0000000E+00   6.2498910E+01   7.8125000E-03   1.3828979E-01
       -2   -1    0    0    0  502  0.00000000000E+00  0.00000000000E+00  2.22934426747E+02  2.22934426747E+02  0.00000000000E+00  0.00000000000E+00  1.
        2   -1    0    0  502    0  0.00000000000E+00  0.00000000000E+00 -1.75213574327E+01  1.75213574327E+01  0.00000000000E+00  0.00000000000E+00  1.
       32    2    1    2    0    0  0.00000000000E+00  7.10542735760E-15  2.05413069314E+02  2.40455784180E+02  1.24997820382E+02  0.00000000000E+00  1.
       24    2    3    3    0    0  2.27969801182E+01  3.85316436811E+00  1.67214499605E+02  1.87406979010E+02  8.14010916734E+01  0.00000000000E+00  1.
      -24    2    3    3    0    0 -2.27969801182E+01 -3.85316436811E+00  3.81985697097E+01  5.30488051693E+01  2.86442982785E+01  0.00000000000E+00  1.
       12    1    4    4    0    0  4.25690473432E+01  2.88663870544E+01  1.18564417026E+02  1.29239750379E+02  2.33601545599E-06  0.00000000000E+00  1.
      -11    1    4    4    0    0 -1.97720672249E+01 -2.50132226863E+01  4.86500825784E+01  5.81672286313E+01  5.11005272055E-04  0.00000000000E+00  1.
        1    1    5    5  803    0 -1.22239566919E+01 -1.19631798550E+01  3.55675205881E+01  3.94663313500E+01  0.00000000000E+00  0.00000000000E+00  1.
       -2    1    5    5    0  803 -1.05730234263E+01  8.11001548688E+00  2.63104912166E+00  1.35824738193E+01  0.00000000000E+00  0.00000000000E+00  1.
</event>
<event>
 9   1   1.0000000E+00   6.2499202E+01   7.8125000E-03   1.3828968E-01
       -2   -1    0    0    0  502  0.00000000000E+00  0.00000000000E+00  5.42303652179E+00  5.42303652179E+00  0.00000000000E+00  0.00000000000E+00  1.
        2   -1    0    0  502    0  0.00000000000E+00  0.00000000000E+00 -7.20288401496E+02  7.20288401496E+02  0.00000000000E+00  0.00000000000E+00  1.
       32    2    1    2    0    0  7.10542735760E-15  5.32907051820E-15 -7.14865364974E+02  7.25711438018E+02  1.24998404910E+02  0.00000000000E+00  1.
      -24    2    3    3    0    0  1.85821869128E+01  7.90277678996E+00 -1.92030910187E+02  1.96201404392E+02  3.48047276468E+01  0.00000000000E+00  1.
       24    2    3    3    0    0 -1.85821869128E+01 -7.90277678996E+00 -5.22834454787E+02  5.29510033626E+02  8.13465244901E+01  0.00000000000E+00  1.
        1    1    4    4  804    0  2.77544053347E+01  7.00587031465E+00 -1.10350761681E+02  1.14002981806E+02  2.69739830470E-06  0.00000000000E+00  1.
       -2    1    4    4    0  804 -9.17221842186E+00  8.96906475313E-01 -8.16801485066E+01  8.21984226860E+01  0.00000000000E+00  0.00000000000E+00  1.
       16    1    5    5    0    0 -1.32387002608E+01 -2.64747261346E+01 -4.93193965867E+02  4.94081432839E+02  1.42732902022E-05  0.00000000000E+00  1.
      -15    1    5    5    0    0 -5.34348665200E+00  1.85719493447E+01 -2.96404889193E+01  3.54286007863E+01  1.77680000003E+00  0.00000000000E+00  1.
</event>
</LesHouchesEvents>
