<LesHouchesEvents version="1.0">
<!--
Output from the JHUGenerator v7.4.1 described in arXiv:1001.3396 [hep-ph], arXiv:1208.4018 [hep-ph], arXiv:1309.4819 [hep-ph], arXiv:1606.03107 [hep-ph]
   
   Command line: ./JHUGen Seed=765543533 PDFSet=3 Process=1 VegasNc0=100000 VegasNc2=100 DataFile=compare_to_reference/spin1_ZZ DecayMode1=9 DecayMode2=9 zprime_qq_left=0.159847991225521,0.324512374690709 zprime_qq_right=0.514696145793129,0.150317974674483 zprime_zz_1=0.4084476008646,0.289302928999951 zprime_zz_2=0.328820833481286,0.910335641048151
   
   Input Parameter:
    Collider: P-P, sqrt(s)=13000.00
    Resonance: spin=1, mass= 125.00 width=   0.00407
    DecayMode1: 9  DecayMode2: 9
    Z boson: mass=91.188, width=2.4952
    Random seed:   765543533
    To reproduce results using this seed, JHUGen should be compiled with the same compiler:
      GNU Fortran (GCC) 6.3.0
    
    OffXVV: TTT
    WidthScheme:   2
    PChannel: 1
    PDFSet:   3
    Unweighted: T
    Interference: T
    Intermediate off-shell photons: F
    
    Spin-1-VV couplings: 
      zprime_qq_left =  0.15984799E+00  0.32451237E+00i
      zprime_qq_right=  0.51469615E+00  0.15031797E+00i
      zprime_zz_1=  0.40844760E+00  0.28930293E+00i
      zprime_zz_2=  0.32882083E+00  0.91033564E+00i
    
    LHE output: compare_to_reference/spin1_ZZ.lhe
    Histogram output: compare_to_reference/spin1_ZZ.dat
    Log file: compare_to_reference/spin1_ZZ.log
    
-->
<init>
2212 2212   6500.0000000000000000    6500.0000000000000000 0 0  263000  263000  3  1
 2.7538463E+06  3.3840801E+04  1.0000000E+00   1
</init>
<event>
 9   1   1.0000000E+00   6.2504377E+01   7.8125000E-03   1.3828775E-01
        2   -1    0    0  501    0  0.00000000000E+00  0.00000000000E+00  1.24181145852E+01  1.24181145852E+01  0.00000000000E+00 0.00000000000E+00  1.
       -2   -1    0    0    0  501  0.00000000000E+00  0.00000000000E+00 -3.14604696272E+02  3.14604696272E+02  0.00000000000E+00 0.00000000000E+00  1.
       32    2    1    2    0    0  0.00000000000E+00  1.77635683940E-15 -3.02186581686E+02  3.27022810857E+02  1.25008754371E+02 0.00000000000E+00  1.
       23    2    3    3    0    0  2.09308276312E+01  4.77808880193E+00 -2.61468329129E+02  2.77578950767E+02  9.06832790176E+01 0.00000000000E+00  1.
       23    2    3    3    0    0 -2.09308276312E+01 -4.77808880193E+00 -4.07182525569E+01  4.94438600896E+01  1.80496407538E+01 0.00000000000E+00  1.
        2    1    4    4  803    0  4.58747253544E+01 -1.68479174705E+01 -2.15574985500E+02  2.21045056871E+02  2.69739830470E-06 0.00000000000E+00  1.
       -2    1    4    4    0  803 -2.49438977232E+01  2.16260062724E+01 -4.58933436291E+01  5.65338939962E+01  2.86102294922E-06 0.00000000000E+00  1.
       14    1    5    5    0    0 -4.80251478448E+00  2.53616348865E+00 -2.55674070248E+01  2.61378762616E+01  0.00000000000E+00 0.00000000000E+00  1.
      -14    1    5    5    0    0 -1.61283128467E+01 -7.31425229058E+00 -1.51508455322E+01  2.33059838280E+01  0.00000000000E+00 0.00000000000E+00  1.
</event>
<event>
 9   1   1.0000000E+00   6.2507523E+01   7.8125000E-03   1.3828658E-01
       -1   -1    0    0    0  502  0.00000000000E+00  0.00000000000E+00  1.13199378021E+01  1.13199378021E+01  0.00000000000E+00 0.00000000000E+00  1.
        1   -1    0    0  502    0  0.00000000000E+00  0.00000000000E+00 -3.45160063235E+02  3.45160063235E+02  0.00000000000E+00 0.00000000000E+00  1.
       32    2    1    2    0    0  0.00000000000E+00  0.00000000000E+00 -3.33840125433E+02  3.56480001037E+02  1.25015046256E+02 0.00000000000E+00  1.
       23    2    3    3    0    0  1.91957279621E+01 -1.71546779503E+01 -1.57916989582E+02  1.60331965255E+02  1.02861332099E+01 0.00000000000E+00  1.
       23    2    3    3    0    0 -1.91957279621E+01  1.71546779503E+01 -1.75923135851E+02  1.96148035782E+02  8.28392616206E+01 0.00000000000E+00  1.
       11    1    4    4    0    0  1.12085901180E+01 -3.87765860550E+00 -5.58349419743E+01  5.70807276953E+01  5.10998152747E-04 0.00000000000E+00  1.
      -11    1    4    4    0    0  7.98713784411E+00 -1.32770193448E+01 -1.02082047608E+02  1.03251237560E+02  5.10996817865E-04 0.00000000000E+00  1.
       13    1    5    5    0    0 -4.34130115256E+01  1.26143292309E+01 -4.82545988924E+01  6.61235839165E+01  1.05659999989E-01 0.00000000000E+00  1.
      -13    1    5    5    0    0  2.42172835634E+01  4.54034871935E+00 -1.27668536959E+02  1.30024451866E+02  1.05659999978E-01 0.00000000000E+00  1.
</event>
<event>
 9   1   1.0000000E+00   6.2498473E+01   7.8125000E-03   1.3828996E-01
       -1   -1    0    0    0  502  0.00000000000E+00  0.00000000000E+00  2.59248888840E+01  2.59248888840E+01  0.00000000000E+00 0.00000000000E+00  1.
        1   -1    0    0  502    0  0.00000000000E+00  0.00000000000E+00 -1.50668307446E+02  1.50668307446E+02  0.00000000000E+00 0.00000000000E+00  1.
       32    2    1    2    0    0 -3.55271367880E-15 -3.55271367880E-15 -1.24743418562E+02  1.76593196330E+02  1.24996946025E+02 0.00000000000E+00  1.
       23    2    3    3    0    0 -1.62718275746E+00 -1.63512480474E+01 -3.31063456832E+01  4.63717025291E+01  2.80052429827E+01 0.00000000000E+00  1.
       23    2    3    3    0    0  1.62718275746E+00  1.63512480474E+01 -9.16370728786E+01  1.30221493801E+02  9.10509378617E+01 0.00000000000E+00  1.
        2    1    4    4  804    0  5.91840523715E+00 -1.87712780254E+01 -1.02718499178E+01  2.22013356452E+01  0.00000000000E+00 0.00000000000E+00  1.
       -2    1    4    4    0  804 -7.54558799461E+00  2.42002997795E+00 -2.28344957654E+01  2.41703670839E+01  0.00000000000E+00 0.00000000000E+00  1.
       12    1    5    5    0    0 -2.50847892690E+01  2.50631942895E+01 -1.15644535574E+00  3.54788350094E+01  1.27837721047E-06 0.00000000000E+00  1.
      -12    1    5    5    0    0  2.67119720265E+01 -8.71194624212E+00 -9.04806275228E+01  9.47426588913E+01  0.00000000000E+00 0.00000000000E+00  1.
</event>
<event>
 9   1   1.0000000E+00   6.2499593E+01   7.8125000E-03   1.3828954E-01
       -2   -1    0    0    0  502  0.00000000000E+00  0.00000000000E+00  2.75505905996E+01  2.75505905996E+01  0.00000000000E+00 0.00000000000E+00  1.
        2   -1    0    0  502    0  0.00000000000E+00  0.00000000000E+00 -1.41782772239E+02  1.41782772239E+02  0.00000000000E+00 0.00000000000E+00  1.
       32    2    1    2    0    0  1.33226762955E-14 -3.55271367880E-15 -1.14232181640E+02  1.69333362839E+02  1.24999185790E+02 0.00000000000E+00  1.
       23    2    3    3    0    0 -6.72743081270E+00 -8.80809375355E+00 -1.05474049597E+02  1.39890643596E+02  9.12237698531E+01 0.00000000000E+00  1.
       23    2    3    3    0    0  6.72743081270E+00  8.80809375355E+00 -8.75813204228E+00  2.94427192433E+01  2.58326924392E+01 0.00000000000E+00  1.
       16    1    4    4    0    0  3.40316708098E+01 -1.95558551467E+01 -8.37014037699E+01  9.24473422099E+01  1.65181236989E-06 0.00000000000E+00  1.
      -16    1    4    4    0    0 -4.07591016225E+01  1.07477613931E+01 -2.17726458275E+01  4.74433013856E+01  1.56341517551E-06 0.00000000000E+00  1.
       16    1    5    5    0    0  1.02061880713E+01  9.86499483896E-01 -1.54735821956E+01  1.85626291819E+01  0.00000000000E+00 0.00000000000E+00  1.
      -16    1    5    5    0    0 -3.47875725862E+00  7.82159426966E+00  6.71545015333E+00  1.08800900615E+01  0.00000000000E+00 0.00000000000E+00  1.
</event>
<event>
 9   1   1.0000000E+00   6.2496467E+01   7.8125000E-03   1.3829071E-01
       -1   -1    0    0    0  502  0.00000000000E+00  0.00000000000E+00  3.15113867178E+01  3.15113867178E+01  0.00000000000E+00 0.00000000000E+00  1.
        1   -1    0    0  502    0  0.00000000000E+00  0.00000000000E+00 -1.23949112311E+02  1.23949112311E+02  0.00000000000E+00 0.00000000000E+00  1.
       32    2    1    2    0    0 -3.55271367880E-15  0.00000000000E+00 -9.24377255936E+01  1.55460499029E+02  1.24992934382E+02 0.00000000000E+00  1.
       23    2    3    3    0    0  1.29632333440E+01 -1.30162912221E+01 -5.40910258441E+01  1.07525888187E+02  9.10961486428E+01 0.00000000000E+00  1.
       23    2    3    3    0    0 -1.29632333440E+01  1.30162912221E+01 -3.83466997495E+01  4.79346108426E+01  2.21311608156E+01 0.00000000000E+00  1.
       16    1    4    4    0    0  4.80121345621E+01 -2.61985924097E+01 -2.51528732951E+01  6.02013152389E+01  1.39020726558E-06 0.00000000000E+00  1.
      -16    1    4    4    0    0 -3.50489012181E+01  1.31823011876E+01 -2.89381525490E+01  4.73245731477E+01  1.30587233902E-06 0.00000000000E+00  1.
        5    1    5    5  804    0 -1.70179079373E+01  1.21166710071E+01 -2.34844119784E+01  3.17884100393E+01  4.75000000000E+00 0.00000000000E+00  1.
       -5    1    5    5    0  804  4.05467459331E+00  8.99620214978E-01 -1.48622877711E+01  1.61462008033E+01  4.75000000000E+00 0.00000000000E+00  1.
</event>
<event>
 9   1   1.0000000E+00   6.2501211E+01   7.8125000E-03   1.3828893E-01
        2   -1    0    0  501    0  0.00000000000E+00  0.00000000000E+00  7.59650941687E+02  7.59650941687E+02  0.00000000000E+00 0.00000000000E+00  1.
       -2   -1    0    0    0  501  0.00000000000E+00  0.00000000000E+00 -5.14236371141E+00  5.14236371141E+00  0.00000000000E+00 0.00000000000E+00  1.
       32    2    1    2    0    0  4.44089209850E-16 -8.88178419700E-15  7.54508577975E+02  7.64793305398E+02  1.25002422950E+02 0.00000000000E+00  1.
       23    2    3    3    0    0 -1.05907473326E+00  2.23434328347E+00  7.38147908901E+02  7.43804560857E+02  9.15247256653E+01 0.00000000000E+00  1.
       23    2    3    3    0    0  1.05907473326E+00 -2.23434328347E+00  1.63606690744E+01  2.09887445409E+01  1.29128608620E+01 0.00000000000E+00  1.
       12    1    4    4    0    0 -8.97365168481E+00  4.57547070240E+01  3.32839023680E+02  3.36089028866E+02  3.81469726562E-06 0.00000000000E+00  1.
      -12    1    4    4    0    0  7.91457695155E+00 -4.35203637405E+01  4.05308885221E+02  4.07715532092E+02  5.39479660939E-06 0.00000000000E+00  1.
        1    1    5    5  804    0  8.86474770741E-01 -7.38970440371E+00  6.59385333926E+00  9.94346381005E+00  0.00000000000E+00 0.00000000000E+00  1.
       -1    1    5    5    0  804  1.72599962523E-01  5.15536112025E+00  9.76681573519E+00  1.10452809309E+01  0.00000000000E+00 0.00000000000E+00  1.
</event>
<event>
 9   1   1.0000000E+00   6.2498821E+01   7.8125000E-03   1.3828983E-01
        4   -1    0    0  501    0  0.00000000000E+00  0.00000000000E+00  2.39682025745E+02  2.39682025745E+02  0.00000000000E+00 0.00000000000E+00  1.
       -4   -1    0    0    0  501  0.00000000000E+00  0.00000000000E+00 -1.62970193746E+01  1.62970193746E+01  0.00000000000E+00 0.00000000000E+00  1.
       32    2    1    2    0    0  1.11022302463E-15  3.55271367880E-15  2.23385006371E+02  2.55979045120E+02  1.24997641855E+02 0.00000000000E+00  1.
       23    2    3    3    0    0  9.49098287747E-01 -1.99193261046E+01  1.58967745136E+02  1.84573191875E+02  9.16451789530E+01 0.00000000000E+00  1.
       23    2    3    3    0    0 -9.49098287747E-01  1.99193261046E+01  6.44172612343E+01  7.14058532446E+01  2.34847182787E+01 0.00000000000E+00  1.
        3    1    4    4  803    0  2.25458703431E+01  2.02542189586E+01  1.22449448443E+02  1.26144429442E+02  1.90734863281E-06 0.00000000000E+00  1.
       -3    1    4    4    0  803 -2.15967720553E+01 -4.01735450633E+01  3.65182966933E+01  5.84287624337E+01  2.02304872852E-06 0.00000000000E+00  1.
       16    1    5    5    0    0 -9.61642673668E-01  7.99749220473E+00  5.65530541084E+01  5.71238354683E+01  0.00000000000E+00 0.00000000000E+00  1.
      -16    1    5    5    0    0  1.25443859202E-02  1.19218338999E+01  7.86420712592E+00  1.42820178763E+01  0.00000000000E+00 0.00000000000E+00  1.
</event>
<event>
 9   1   1.0000000E+00   6.2493224E+01   7.8125000E-03   1.3829192E-01
       -4   -1    0    0    0  502  0.00000000000E+00  0.00000000000E+00  2.53919415984E+01  2.53919415984E+01  0.00000000000E+00 0.00000000000E+00  1.
        4   -1    0    0  502    0  0.00000000000E+00  0.00000000000E+00 -1.53804822505E+02  1.53804822505E+02  0.00000000000E+00 0.00000000000E+00  1.
       32    2    1    2    0    0  1.42108547152E-14 -1.66533453694E-15 -1.28412880907E+02  1.79196764104E+02  1.24986448395E+02 0.00000000000E+00  1.
       23    2    3    3    0    0  2.54733838326E+01 -3.88416047432E-01 -2.92045254597E+01  3.94980887482E+01  7.62565121944E+00 0.00000000000E+00  1.
       23    2    3    3    0    0 -2.54733838326E+01  3.88416047432E-01 -9.92083554470E+01  1.39698675355E+02  9.49967260207E+01 0.00000000000E+00  1.
        3    1    4    4  803    0  1.37180967287E+01 -9.53579040215E-01 -1.01088237164E+01  1.70670386352E+01  0.00000000000E+00 0.00000000000E+00  1.
       -3    1    4    4    0  803  1.17552871039E+01  5.65162992782E-01 -1.90957017432E+01  2.24310501130E+01  0.00000000000E+00 0.00000000000E+00  1.
        1    1    5    5  804    0 -5.31284547030E+01  2.54378935947E+01 -4.61321755360E+01  7.48190934812E+01  1.16800772800E-06 0.00000000000E+00  1.
       -1    1    5    5    0  804  2.76550708703E+01 -2.50494775473E+01 -5.30761799110E+01  6.48795818743E+01  1.50789149292E-06 0.00000000000E+00  1.
</event>
<event>
 9   1   1.0000000E+00   6.2499666E+01   7.8125000E-03   1.3828951E-01
        2   -1    0    0  501    0  0.00000000000E+00  0.00000000000E+00  9.62990697412E+02  9.62990697412E+02  0.00000000000E+00 0.00000000000E+00  1.
       -2   -1    0    0    0  501  0.00000000000E+00  0.00000000000E+00 -4.05633014882E+00  4.05633014882E+00  0.00000000000E+00 0.00000000000E+00  1.
       32    2    1    2    0    0  0.00000000000E+00  3.55271367880E-15  9.58934367264E+02  9.67047027561E+02  1.24999331181E+02 0.00000000000E+00  1.
       23    2    3    3    0    0 -2.14438532874E+01  1.75313421767E+01  2.71159321409E+02  2.74359778376E+02  3.12845585141E+01 0.00000000000E+00  1.
       23    2    3    3    0    0  2.14438532874E+01 -1.75313421767E+01  6.87775045855E+02  6.92687249185E+02  7.75494982619E+01 0.00000000000E+00  1.
        1    1    4    4  803    0 -1.48799848689E+01  1.10755212418E+01  5.57728053456E+01  5.87765849348E+01  1.78416127528E-06 0.00000000000E+00  1.
       -1    1    4    4    0  803 -6.56386841853E+00  6.45582093487E+00  2.15386516063E+02  2.15583193542E+02  2.69739830470E-06 0.00000000000E+00  1.
        2    1    5    5  804    0 -2.86539827127E+01 -4.11046280772E+00  3.13917760784E+02  3.15249595029E+02  0.00000000000E+00 0.00000000000E+00  1.
       -2    1    5    5    0  804  5.00978360001E+01 -1.34208793689E+01  3.73857285070E+02  3.77437654156E+02  7.62939453125E-06 0.00000000000E+00  1.
</event>
<event>
 9   1   1.0000000E+00   6.2500413E+01   7.8125000E-03   1.3828923E-01
       -1   -1    0    0    0  502  0.00000000000E+00  0.00000000000E+00  4.92069977008E+02  4.92069977008E+02  0.00000000000E+00 0.00000000000E+00  1.
        1   -1    0    0  502    0  0.00000000000E+00  0.00000000000E+00 -7.93850835275E+00  7.93850835275E+00  0.00000000000E+00 0.00000000000E+00  1.
       32    2    1    2    0    0  0.00000000000E+00 -1.77635683940E-15  4.84131468656E+02  5.00008485361E+02  1.25000825959E+02 0.00000000000E+00  1.
       23    2    3    3    0    0  1.46302328375E+01 -7.51603963688E+00  4.52322838215E+02  4.61701051719E+02  9.11118906792E+01 0.00000000000E+00  1.
       23    2    3    3    0    0 -1.46302328375E+01  7.51603963688E+00  3.18086304407E+01  3.83074336419E+01  1.36064667351E+01 0.00000000000E+00  1.
        3    1    4    4  804    0  5.10113650362E+01 -1.32191899458E+01  2.05632838577E+02  2.12277579237E+02  6.03156597170E-06 0.00000000000E+00  1.
       -3    1    4    4    0  804 -3.63811321987E+01  5.70315030889E+00  2.46689999638E+02  2.49423472582E+02  3.81469726562E-06 0.00000000000E+00  1.
        1    1    5    5  803    0 -1.03700191354E+01  3.24458237428E+00  3.01538042744E+01  3.20517788941E+01  0.00000000000E+00 0.00000000000E+00  1.
       -1    1    5    5    0  803 -4.26021370208E+00  4.27145726260E+00  1.65482616636E+00  6.25565494777E+00  0.00000000000E+00 0.00000000000E+00  1.
</event>
<event>
 9   1   1.0000000E+00   6.2500077E+01   7.8125000E-03   1.3828936E-01
       -2   -1    0    0    0  502  0.00000000000E+00  0.00000000000E+00  4.12576455030E+00  4.12576455030E+00  0.00000000000E+00 0.00000000000E+00  1.
        2   -1    0    0  502    0  0.00000000000E+00  0.00000000000E+00 -9.46796544575E+02  9.46796544575E+02  0.00000000000E+00 0.00000000000E+00  1.
       32    2    1    2    0    0 -1.77635683940E-15  7.10542735760E-15 -9.42670780025E+02  9.50922309125E+02  1.25000153919E+02 0.00000000000E+00  1.
       23    2    3    3    0    0 -1.03456477568E+01 -2.32149891308E+01 -2.46645095113E+02  2.48430179215E+02  1.54202092619E+01 0.00000000000E+00  1.
       23    2    3    3    0    0  1.03456477568E+01  2.32149891308E+01 -6.96025684911E+02  7.02492129910E+02  9.16377126578E+01 0.00000000000E+00  1.
        1    1    4    4  803    0 -1.29636240787E+01 -1.05371166166E+01 -1.30035985896E+02  1.31104706261E+02  2.69739830470E-06 0.00000000000E+00  1.
       -1    1    4    4    0  803  2.61797632187E+00 -1.26778725142E+01 -1.16609109217E+02  1.17325472954E+02  2.33601545599E-06 0.00000000000E+00  1.
        5    1    5    5  804    0 -1.70434847078E+01 -1.40041451380E+01 -5.06761057441E+01  5.54727558845E+01  4.74999999999E+00 0.00000000000E+00  1.
       -5    1    5    5    0  804  2.73891324647E+01  3.72191342687E+01 -6.45349579167E+02  6.47019374025E+02  4.74999999998E+00 0.00000000000E+00  1.
</event>
<event>
 9   1   1.0000000E+00   6.2477092E+01   7.8125000E-03   1.3829794E-01
       -1   -1    0    0    0  502  0.00000000000E+00  0.00000000000E+00  2.75069962198E+00  2.75069962198E+00  0.00000000000E+00 0.00000000000E+00  1.
        1   -1    0    0  502    0  0.00000000000E+00  0.00000000000E+00 -1.41905242946E+03  1.41905242946E+03  0.00000000000E+00 0.00000000000E+00  1.
       32    2    1    2    0    0 -3.55271367880E-15  0.00000000000E+00 -1.41630172984E+03  1.42180312908E+03  1.24954183304E+02 0.00000000000E+00  1.
       23    2    3    3    0    0  1.70525153091E+01 -4.88572013076E+00 -4.29886842190E+02  4.32081249208E+02  3.97095742814E+01 0.00000000000E+00  1.
       23    2    3    3    0    0 -1.70525153091E+01  4.88572013076E+00 -9.86414887646E+02  9.89721879872E+02  7.88695783416E+01 0.00000000000E+00  1.
        4    1    4    4  803    0 -2.23723336678E+00  1.49365324366E+01 -1.18398296604E+02  1.19364515154E+02  1.27500000000E+00 0.00000000000E+00  1.
       -4    1    4    4    0  803  1.92897486759E+01 -1.98222525673E+01 -3.11488545586E+02  3.12716734054E+02  1.27500000001E+00 0.00000000000E+00  1.
        3    1    5    5  804    0 -1.82404117874E+01 -1.25796181551E+00 -4.92219316108E+01  5.25080341672E+01  1.20631319434E-05 0.00000000000E+00  1.
       -3    1    5    5    0  804  1.18789647828E+00  6.14368194627E+00 -9.37192956035E+02  9.37213845905E+02  1.52587890625E-05 0.00000000000E+00  1.
</event>
<event>
 9   1   1.0000000E+00   6.2501036E+01   7.8125000E-03   1.3828900E-01
        2   -1    0    0  501    0  0.00000000000E+00  0.00000000000E+00  2.35986689303E+03  2.35986689303E+03  0.00000000000E+00 0.00000000000E+00  1.
       -2   -1    0    0    0  501  0.00000000000E+00  0.00000000000E+00 -1.65533889252E+00  1.65533889252E+00  0.00000000000E+00 0.00000000000E+00  1.
       32    2    1    2    0    0 -3.55271367880E-15 -1.77635683940E-15  2.35821155414E+03  2.36152223193E+03  1.25002071170E+02 0.00000000000E+00  1.
       23    2    3    3    0    0  1.74614232167E+01  1.43529495391E+01  4.01033514400E+02  4.02093930760E+02  1.84591717099E+01 0.00000000000E+00  1.
       23    2    3    3    0    0 -1.74614232167E+01 -1.43529495391E+01  1.95717803974E+03  1.95942830117E+03  9.11179439385E+01 0.00000000000E+00  1.
       11    1    4    4    0    0  1.71195366022E+01  1.80832405358E+01  3.69620287958E+02  3.70458147963E+02  5.10970119505E-04 0.00000000000E+00  1.
      -11    1    4    4    0    0  3.41886614433E-01 -3.73029099670E+00  3.14132264425E+01  3.16357827967E+01  5.10995705461E-04 0.00000000000E+00  1.
        3    1    5    5  804    0  7.17847117636E+00 -4.77532403329E+01  1.33131983231E+03  1.33219533049E+03  2.15791864376E-05 0.00000000000E+00  1.
       -3    1    5    5    0  804 -2.46398943930E+01  3.34002907938E+01  6.25858207432E+02  6.27232970777E+02  7.62939453125E-06 0.00000000000E+00  1.
</event>
<event>
 9   1   1.0000000E+00   6.2498913E+01   7.8125000E-03   1.3828979E-01
       -1   -1    0    0    0  502  0.00000000000E+00  0.00000000000E+00  9.94634582650E+02  9.94634582650E+02  0.00000000000E+00 0.00000000000E+00  1.
        1   -1    0    0  502    0  0.00000000000E+00  0.00000000000E+00 -3.92718505618E+00  3.92718505618E+00  0.00000000000E+00 0.00000000000E+00  1.
       32    2    1    2    0    0 -1.33226762955E-15 -3.55271367880E-15  9.90707397593E+02  9.98561767706E+02  1.24997825090E+02 0.00000000000E+00  1.
       23    2    3    3    0    0  2.35064855829E+00 -1.49226696372E+01  1.23538860604E+02  1.26516674239E+02  2.27245937965E+01 0.00000000000E+00  1.
       23    2    3    3    0    0 -2.35064855829E+00  1.49226696372E+01  8.67168536989E+02  8.72045093467E+02  9.08469145252E+01 0.00000000000E+00  1.
        2    1    4    4  803    0 -4.71661964849E+00  1.07183705592E+00  6.10887043176E+00  7.79189537500E+00  1.10550147241E-06 0.00000000000E+00  1.
       -2    1    4    4    0  803  7.06726820677E+00 -1.59945066931E+01  1.17429990173E+02  1.18724778964E+02  1.34869915235E-06 0.00000000000E+00  1.
        3    1    5    5  804    0  3.39616351353E+00  4.55204949853E+01  7.28319339440E+02  7.29748387865E+02  0.00000000000E+00 0.00000000000E+00  1.
       -3    1    5    5    0  804 -5.74681207182E+00 -3.05978253481E+01  1.38849197549E+02  1.42296705702E+02  5.04637014592E-06 0.00000000000E+00  1.
</event>
<event>
 9   1   1.0000000E+00   6.2501485E+01   7.8125000E-03   1.3828883E-01
       -1   -1    0    0    0  502  0.00000000000E+00  0.00000000000E+00  1.94643029695E+00  1.94643029695E+00  0.00000000000E+00 0.00000000000E+00  1.
        1   -1    0    0  502    0  0.00000000000E+00  0.00000000000E+00 -2.00697434051E+03  2.00697434051E+03  0.00000000000E+00 0.00000000000E+00  1.
       32    2    1    2    0    0  7.10542735760E-15  1.33226762955E-15 -2.00502791021E+03  2.00892077081E+03  1.25002970550E+02 0.00000000000E+00  1.
       23    2    3    3    0    0 -4.61424364729E+01  3.64634741228E+00 -8.22927746059E+02  8.24734548108E+02  2.88890864502E+01 0.00000000000E+00  1.
       23    2    3    3    0    0  4.61424364729E+01 -3.64634741228E+00 -1.18210016416E+03  1.18418622270E+03  5.28563302175E+01 0.00000000000E+00  1.
       15    1    4    4    0    0 -4.46985722243E+01 -3.54521801465E+00 -7.65329966842E+02  7.66644406550E+02  1.77680000009E+00 0.00000000000E+00  1.
      -15    1    4    4    0    0 -1.44386424857E+00  7.19156542693E+00 -5.75977792172E+01  5.80901415582E+01  1.77680000007E+00 0.00000000000E+00  1.
        5    1    5    5  804    0 -7.05198157946E+00  4.13908878475E+00 -5.59491256835E+01  5.67426617715E+01  4.74999999991E+00 0.00000000000E+00  1.
       -5    1    5    5    0  804  5.31944180523E+01 -7.78543619702E+00 -1.12615103847E+03  1.12744356093E+03  4.74999999995E+00 0.00000000000E+00  1.
</event>
<event>
 9   1   1.0000000E+00   6.2501030E+01   7.8125000E-03   1.3828900E-01
       -1   -1    0    0    0  502  0.00000000000E+00  0.00000000000E+00  3.39673351039E+00  3.39673351039E+00  0.00000000000E+00 0.00000000000E+00  1.
        1   -1    0    0  502    0  0.00000000000E+00  0.00000000000E+00 -1.15003981680E+03  1.15003981680E+03  0.00000000000E+00 0.00000000000E+00  1.
       32    2    1    2    0    0 -8.88178419700E-15  5.32907051820E-15 -1.14664308329E+03  1.15343655031E+03  1.25002060527E+02 0.00000000000E+00  1.
       23    2    3    3    0    0  9.44865180373E+00 -1.24469485499E+01 -2.43614210410E+02  2.45855305998E+02  2.92017880374E+01 0.00000000000E+00  1.
       23    2    3    3    0    0 -9.44865180373E+00  1.24469485499E+01 -9.03028872881E+02  9.07581244313E+02  8.94335855497E+01 0.00000000000E+00  1.
        1    1    4    4  804    0  1.77584445558E+01 -6.91945742922E+00 -9.42311679466E+01  9.61392442032E+01  1.90734863281E-06 0.00000000000E+00  1.
       -1    1    4    4    0  804 -8.30979275205E+00 -5.52749112064E+00 -1.49383042464E+02  1.49716061995E+02  2.69739830470E-06 0.00000000000E+00  1.
       16    1    5    5    0    0 -2.99493128786E+01  4.39266684513E+01 -5.13197704939E+02  5.15944180991E+02  0.00000000000E+00 0.00000000000E+00  1.
      -16    1    5    5    0    0  2.05006610748E+01 -3.14797199014E+01 -3.89831167941E+02  3.91637063423E+02  5.39479660939E-06 0.00000000000E+00  1.
</event>
<event>
 9   1   1.0000000E+00   6.2498995E+01   7.8125000E-03   1.3828976E-01
       -1   -1    0    0    0  502  0.00000000000E+00  0.00000000000E+00  6.41945774067E+01  6.41945774067E+01  0.00000000000E+00 0.00000000000E+00  1.
        1   -1    0    0  502    0  0.00000000000E+00  0.00000000000E+00 -6.08481988738E+01  6.08481988738E+01  0.00000000000E+00 0.00000000000E+00  1.
       32    2    1    2    0    0  2.22044604925E-15  5.32907051820E-15  3.34637853292E+00  1.25042776281E+02  1.24997990587E+02 0.00000000000E+00  1.
       23    2    3    3    0    0  3.78706438462E+00 -1.14623432023E+01  8.02705186247E+00  8.72904283698E+01  8.60782095251E+01 0.00000000000E+00  1.
       23    2    3    3    0    0 -3.78706438462E+00  1.14623432023E+01 -4.68067332955E+00  3.77523479107E+01  3.54627114250E+01 0.00000000000E+00  1.
       12    1    4    4    0    0  1.01674030720E+00 -4.36952791033E+01 -1.64731915525E+01  4.67084276838E+01  1.32745846816E-06 0.00000000000E+00  1.
      -12    1    4    4    0    0  2.77032407742E+00  3.22329359010E+01  2.45002434150E+01  4.05820006861E+01  1.39020726558E-06 0.00000000000E+00  1.
        4    1    5    5  803    0 -1.71542184496E+01 -1.72858334537E+00 -7.26518261134E+00  1.87526988558E+01  1.27500000000E+00 0.00000000000E+00  1.
       -4    1    5    5    0  803  1.33671540650E+01  1.31909265477E+01  2.58450928179E+00  1.89996490549E+01  1.27500000000E+00 0.00000000000E+00  1.
</event>
<event>
 9   1   1.0000000E+00   6.2500820E+01   7.8125000E-03   1.3828908E-01
        2   -1    0    0  501    0  0.00000000000E+00  0.00000000000E+00  1.37331383127E+03  1.37331383127E+03  0.00000000000E+00 0.00000000000E+00  1.
       -2   -1    0    0    0  501  0.00000000000E+00  0.00000000000E+00 -2.84447182911E+00  2.84447182911E+00  0.00000000000E+00 0.00000000000E+00  1.
       32    2    1    2    0    0  1.06581410364E-14 -3.55271367880E-15  1.37046935944E+03  1.37615830310E+03  1.25001640079E+02 0.00000000000E+00  1.
       23    2    3    3    0    0 -2.20123953882E+01  2.49973424257E+00  4.28452619371E+02  4.29473534755E+02  1.96233480183E+01 0.00000000000E+00  1.
       23    2    3    3    0    0  2.20123953882E+01 -2.49973424257E+00  9.42016740073E+02  9.46684768347E+02  9.12453714993E+01 0.00000000000E+00  1.
       13    1    4    4    0    0 -2.71999785113E+00  4.24555517264E+00  2.34859761153E+02  2.34913902738E+02  1.05659999918E-01 0.00000000000E+00  1.
      -13    1    4    4    0    0 -1.92923975371E+01 -1.74582093006E+00  1.93592858218E+02  1.94559632017E+02  1.05659999987E-01 0.00000000000E+00  1.
       16    1    5    5    0    0  5.13103519993E+01 -2.48820818404E+01  5.75044565558E+02  5.77865142224E+02  0.00000000000E+00 0.00000000000E+00  1.
      -16    1    5    5    0    0 -2.92979566111E+01  2.23823475978E+01  3.66972174515E+02  3.68819626123E+02  1.07895932188E-05 0.00000000000E+00  1.
</event>
<event>
 9   1   1.0000000E+00   6.2496585E+01   7.8125000E-03   1.3829066E-01
       -2   -1    0    0    0  502  0.00000000000E+00  0.00000000000E+00  3.93970012523E+01  3.93970012523E+01  0.00000000000E+00 0.00000000000E+00  1.
        2   -1    0    0  502    0  0.00000000000E+00  0.00000000000E+00 -9.91401110119E+01  9.91401110119E+01  0.00000000000E+00 0.00000000000E+00  1.
       32    2    1    2    0    0 -8.88178419700E-16  7.10542735760E-15 -5.97431097596E+01  1.38537112264E+02  1.24993169056E+02 0.00000000000E+00  1.
       23    2    3    3    0    0 -3.70209679430E-01  2.13707925810E+01  4.53841682706E+00  2.45057963057E+01  1.10945479642E+01 0.00000000000E+00  1.
       23    2    3    3    0    0  3.70209679430E-01 -2.13707925810E+01 -6.42815265867E+01  1.14031315958E+02  9.17288314990E+01 0.00000000000E+00  1.
        4    1    4    4  804    0  4.86270935647E+00  7.15247903771E+00  4.14646910169E-01  8.75222575865E+00  1.27500000000E+00 0.00000000000E+00  1.
       -4    1    4    4    0  804 -5.23291903590E+00  1.42183135433E+01  4.12376991689E+00  1.57535705470E+01  1.27500000000E+00 0.00000000000E+00  1.
        5    1    5    5  803    0 -1.47213607862E+01 -3.92531339580E+01 -7.63846492400E+01  8.72622720793E+01  4.75000000000E+00 0.00000000000E+00  1.
       -5    1    5    5    0  803  1.50915704657E+01  1.78823413770E+01  1.21031226534E+01  2.67690438792E+01  4.75000000000E+00 0.00000000000E+00  1.
</event>
<event>
 9   1   1.0000000E+00   6.2500274E+01   7.8125000E-03   1.3828928E-01
        2   -1    0    0  501    0  0.00000000000E+00  0.00000000000E+00  8.91628063908E+02  8.91628063908E+02  0.00000000000E+00 0.00000000000E+00  1.
       -2   -1    0    0    0  501  0.00000000000E+00  0.00000000000E+00 -4.38106914429E+00  4.38106914429E+00  0.00000000000E+00 0.00000000000E+00  1.
       32    2    1    2    0    0 -1.77635683940E-15  9.76996261670E-15  8.87246994763E+02  8.96009133052E+02  1.25000547182E+02 0.00000000000E+00  1.
       23    2    3    3    0    0  1.27276893645E+00 -6.56383693618E+00  1.77407181591E+02  1.79248157155E+02  2.47364077309E+01 0.00000000000E+00  1.
       23    2    3    3    0    0 -1.27276893645E+00  6.56383693618E+00  7.09839813173E+02  7.16760975897E+02  9.91414762226E+01 0.00000000000E+00  1.
        1    1    4    4  803    0 -8.31991531624E+00  2.14552192780E+00  2.82103935991E+01  2.94898383876E+01  2.90048719897E-06 0.00000000000E+00  1.
       -1    1    4    4    0  803  9.59268425269E+00 -8.70935886398E+00  1.49196787992E+02  1.49758318967E+02  2.69739830470E-06 0.00000000000E+00  1.
        3    1    5    5  804    0  9.27100787098E+00 -4.54019860191E+01  3.28214799878E+02  3.31469827958E+02  3.81469726562E-06 0.00000000000E+00  1.
       -3    1    5    5    0  804 -1.05437768074E+01  5.19658229553E+01  3.81625013295E+02  3.85291148039E+02  0.00000000000E+00 0.00000000000E+00  1.
</event>
<event>
 9   1   1.0000000E+00   6.2499040E+01   7.8125000E-03   1.3828974E-01
       -2   -1    0    0    0  502  0.00000000000E+00  0.00000000000E+00  2.05329627409E+01  2.05329627409E+01  0.00000000000E+00 0.00000000000E+00  1.
        2   -1    0    0  502    0  0.00000000000E+00  0.00000000000E+00 -1.90237040194E+02  1.90237040194E+02  0.00000000000E+00 0.00000000000E+00  1.
       32    2    1    2    0    0  3.55271367880E-15  0.00000000000E+00 -1.69704077453E+02  2.10770002935E+02  1.24998080917E+02 0.00000000000E+00  1.
       23    2    3    3    0    0 -1.14118953944E+01 -2.49798255009E+01 -3.89847307862E+01  4.78531378169E+01  3.98629224964E+00 0.00000000000E+00  1.
       23    2    3    3    0    0  1.14118953944E+01  2.49798255009E+01 -1.30719346667E+02  1.62916865118E+02  9.32745104962E+01 0.00000000000E+00  1.
       14    1    5    5    0    0  2.35927711816E+01 -3.15530786077E+01 -5.21546420089E+01  6.53630041981E+01  0.00000000000E+00 0.00000000000E+00  1.
      -14    1    4    4    0    0 -5.38668537664E+00 -1.28666644227E+01 -1.64353326658E+01  2.15566136614E+01  0.00000000000E+00 0.00000000000E+00  1.
       14    1    4    4    0    0 -6.02521001775E+00 -1.21131610782E+01 -2.25493981204E+01  2.62965241555E+01  1.99475294717E-06 0.00000000000E+00  1.
      -14    1    5    5    0    0 -1.21808757872E+01  5.65329041086E+01 -7.85647046581E+01  9.75538610200E+01  1.65181236989E-06 0.00000000000E+00  1.
</event>
<event>
 9   1   1.0000000E+00   6.2500618E+01   7.8125000E-03   1.3828916E-01
        1   -1    0    0  501    0  0.00000000000E+00  0.00000000000E+00  2.99102831950E+03  2.99102831950E+03  0.00000000000E+00 0.00000000000E+00  1.
       -1   -1    0    0    0  501  0.00000000000E+00  0.00000000000E+00 -1.30601478928E+00  1.30601478928E+00  0.00000000000E+00 0.00000000000E+00  1.
       32    2    1    2    0    0  8.88178419700E-16  3.55271367880E-15  2.98972230471E+03  2.99233433429E+03  1.25001235521E+02 0.00000000000E+00  1.
       23    2    3    3    0    0 -2.74034958793E+00 -1.70615032910E+01  3.67576417850E+02  3.68566443518E+02  2.07411648115E+01 0.00000000000E+00  1.
       23    2    3    3    0    0  2.74034958793E+00  1.70615032910E+01  2.62214588686E+03  2.62376789077E+03  9.06106409357E+01 0.00000000000E+00  1.
       14    1    4    4    0    0 -1.34294241088E+00 -2.17918259412E+01  3.16610993861E+02  3.17362897436E+02  5.39479660939E-06 0.00000000000E+00  1.
      -14    1    4    4    0    0 -1.39740717706E+00  4.73032265018E+00  5.09654239892E+01  5.12035461818E+01  1.50789149292E-06 0.00000000000E+00  1.
       13    1    5    5    0    0  7.56629035615E+00  7.67645238769E+00  2.58812977639E+03  2.58815222258E+03  1.05660009042E-01 0.00000000000E+00  1.
      -13    1    5    5    0    0 -4.82594076822E+00  9.38505090334E+00  3.40161104708E+01  3.56156681862E+01  1.05660000363E-01 0.00000000000E+00  1.
</event>
<event>
 9   1   1.0000000E+00   6.2501877E+01   7.8125000E-03   1.3828869E-01
        2   -1    0    0  501    0  0.00000000000E+00  0.00000000000E+00  3.51508217027E+01  3.51508217027E+01  0.00000000000E+00 0.00000000000E+00  1.
       -2   -1    0    0    0  501  0.00000000000E+00  0.00000000000E+00 -1.11134946524E+02  1.11134946524E+02  0.00000000000E+00 0.00000000000E+00  1.
       32    2    1    2    0    0  0.00000000000E+00  7.10542735760E-15 -7.59841248211E+01  1.46285768226E+02  1.25003754987E+02 0.00000000000E+00  1.
       23    2    3    3    0    0 -4.08580385721E+00 -1.84611670346E+01 -1.69616930536E+01  3.56523264755E+01  2.50176112055E+01 0.00000000000E+00  1.
       23    2    3    3    0    0  4.08580385721E+00  1.84611670346E+01 -5.90224317675E+01  1.10633441751E+02  9.16438895971E+01 0.00000000000E+00  1.
        2    1    4    4  804    0  8.70460808744E+00 -1.20515523111E+00 -9.43222782973E+00  1.28914515443E+01  0.00000000000E+00 0.00000000000E+00  1.
       -2    1    4    4    0  804 -1.27904119447E+01 -1.72560118035E+01 -7.52946522386E+00  2.27608749312E+01  0.00000000000E+00 0.00000000000E+00  1.
        3    1    5    5  803    0  6.54864701300E+00 -3.17018356744E+01  9.79850473255E-01  3.23859734492E+01  0.00000000000E+00 0.00000000000E+00  1.
       -3    1    5    5    0  803 -2.46284315578E+00  5.01630027089E+01 -6.00022822408E+01  7.82474685018E+01  1.50789149292E-06 0.00000000000E+00  1.
</event>
<event>
 9   1   1.0000000E+00   6.2501669E+01   7.8125000E-03   1.3828876E-01
        2   -1    0    0  501    0  0.00000000000E+00  0.00000000000E+00  2.39382883216E+01  2.39382883216E+01  0.00000000000E+00 0.00000000000E+00  1.
       -2   -1    0    0    0  501  0.00000000000E+00  0.00000000000E+00 -1.63188720071E+02  1.63188720071E+02  0.00000000000E+00 0.00000000000E+00  1.
       32    2    1    2    0    0  0.00000000000E+00 -3.55271367880E-15 -1.39250431750E+02  1.87127008393E+02  1.25003338066E+02 0.00000000000E+00  1.
       23    2    3    3    0    0 -1.83951265718E+01  1.33950291938E+01 -9.81106948267E+01  1.35815147246E+02  9.11166191935E+01 0.00000000000E+00  1.
       23    2    3    3    0    0  1.83951265718E+01 -1.33950291938E+01 -4.11397369228E+01  5.13118611472E+01  2.05577637795E+01 0.00000000000E+00  1.
        5    1    4    4  804    0 -5.31954577314E+01  1.47538541468E+01 -7.68321647159E+01  9.47268545364E+01  4.75000000000E+00 0.00000000000E+00  1.
       -5    1    4    4    0  804  3.48003311596E+01 -1.35882495299E+00 -2.12785301109E+01  4.10882927091E+01  4.75000000000E+00 0.00000000000E+00  1.
        4    1    5    5  803    0  7.18584094927E+00  2.43214843648E+00 -2.46515651884E+01  2.58239607226E+01  1.27500000000E+00 0.00000000000E+00  1.
       -4    1    5    5    0  803  1.12092856225E+01 -1.58271776303E+01 -1.64881717344E+01  2.54879004245E+01  1.27500000000E+00 0.00000000000E+00  1.
</event>
<event>
 9   1   1.0000000E+00   6.2499822E+01   7.8125000E-03   1.3828945E-01
       -1   -1    0    0    0  502  0.00000000000E+00  0.00000000000E+00  8.19153041142E-01  8.19153041142E-01  0.00000000000E+00 0.00000000000E+00  1.
        1   -1    0    0  502    0  0.00000000000E+00  0.00000000000E+00 -4.76861772571E+03  4.76861772571E+03  0.00000000000E+00 0.00000000000E+00  1.
       32    2    1    2    0    0  0.00000000000E+00 -2.66453525910E-15 -4.76779857267E+03  4.76943687876E+03  1.24999643393E+02 0.00000000000E+00  1.
       23    2    3    3    0    0  1.16332335300E+01  1.11821124832E+01 -2.54343368756E+03  2.54497072920E+03  8.69523877816E+01 0.00000000000E+00  1.
       23    2    3    3    0    0 -1.16332335300E+01 -1.11821124832E+01 -2.22436488512E+03  2.22446614955E+03  1.37890029591E+01 0.00000000000E+00  1.
        1    1    5    5  804    0  2.43350656602E+00 -9.45280004885E-01 -6.48137846381E+02  6.48143104121E+02  3.65892907968E-05 0.00000000000E+00  1.
       -1    1    4    4    0  803 -2.30086705697E+01 -3.73896151034E+00 -2.03736508184E+03  2.03749843079E+03  2.15791864376E-05 0.00000000000E+00  1.
        1    1    4    4  803    0  3.46419040997E+01  1.49210739935E+01 -5.06068605711E+02  5.07472298412E+02  7.62939453125E-06 0.00000000000E+00  1.
       -1    1    5    5    0  804 -1.40667400960E+01 -1.02368324783E+01 -1.57622703874E+03  1.57632304543E+03  0.00000000000E+00 0.00000000000E+00  1.
</event>
<event>
 9   1   1.0000000E+00   6.2499240E+01   7.8125000E-03   1.3828967E-01
       -5   -1    0    0    0  502  0.00000000000E+00  0.00000000000E+00  2.66202239549E+02  2.66202239549E+02  0.00000000000E+00 0.00000000000E+00  1.
        5   -1    0    0  502    0  0.00000000000E+00  0.00000000000E+00 -1.46736370276E+01  1.46736370276E+01  0.00000000000E+00 0.00000000000E+00  1.
       32    2    1    2    0    0 -1.77635683940E-15  3.55271367880E-15  2.51528602521E+02  2.80875876576E+02  1.24998480616E+02 0.00000000000E+00  1.
       23    2    3    3    0    0  6.58874283467E+00 -2.18829016289E+01  1.73908744655E+02  1.98095418278E+02  9.20612315766E+01 0.00000000000E+00  1.
       23    2    3    3    0    0 -6.58874283467E+00  2.18829016289E+01  7.76198578658E+01  8.27804582980E+01  1.74782443360E+01 0.00000000000E+00  1.
       14    1    4    4    0    0 -3.90365971372E+01 -2.28275908381E+01  1.15047196401E+02  1.23615582429E+02  0.00000000000E+00 0.00000000000E+00  1.
      -14    1    4    4    0    0  4.56253399719E+01  9.44689209147E-01  5.88615482546E+01  7.44798358496E+01  0.00000000000E+00 0.00000000000E+00  1.
        2    1    5    5  804    0  5.59870335797E+00  7.70467976196E+00  3.43105004911E+01  3.56078364055E+01  0.00000000000E+00 0.00000000000E+00  1.
       -2    1    5    5    0  804 -1.21874461926E+01  1.41782218670E+01  4.33093573747E+01  4.71726218925E+01  0.00000000000E+00 0.00000000000E+00  1.
</event>
<event>
 9   1   1.0000000E+00   6.2500172E+01   7.8125000E-03   1.3828932E-01
       -1   -1    0    0    0  502  0.00000000000E+00  0.00000000000E+00  2.72467552849E+02  2.72467552849E+02  0.00000000000E+00 0.00000000000E+00  1.
        1   -1    0    0  502    0  0.00000000000E+00  0.00000000000E+00 -1.43366483849E+01  1.43366483849E+01  0.00000000000E+00 0.00000000000E+00  1.
       32    2    1    2    0    0 -4.44089209850E-16  1.77635683940E-15  2.58130904464E+02  2.86804201234E+02  1.25000344023E+02 0.00000000000E+00  1.
       23    2    3    3    0    0  2.11282614199E+00  9.24966501613E+00  2.12960547269E+01  3.34107657719E+01  2.39319239785E+01 0.00000000000E+00  1.
       23    2    3    3    0    0 -2.11282614199E+00 -9.24966501613E+00  2.36834849737E+02  2.53393435462E+02  8.95961313229E+01 0.00000000000E+00  1.
       13    1    4    4    0    0  4.17245119624E+00 -4.18138176127E+00  1.86548057464E+01  1.95679902874E+01  1.05660000001E-01 0.00000000000E+00  1.
      -13    1    4    4    0    0 -2.05962505424E+00  1.34310467774E+01  2.64124898059E+00  1.38427754845E+01  1.05660000000E-01 0.00000000000E+00  1.
       14    1    5    5    0    0 -9.31379027049E+00  1.36005562248E+01  2.26833514365E+02  2.27431671285E+02  2.69739830470E-06 0.00000000000E+00  1.
      -14    1    5    5    0    0  7.20096412849E+00 -2.28502212409E+01  1.00013353717E+01  2.59617643767E+01  2.57613453686E-06 0.00000000000E+00  1.
</event>
<event>
 9   1   1.0000000E+00   6.2499382E+01   7.8125000E-03   1.3828962E-01
        2   -1    0    0  501    0  0.00000000000E+00  0.00000000000E+00  9.69749323942E+02  9.69749323942E+02  0.00000000000E+00 0.00000000000E+00  1.
       -2   -1    0    0    0  501  0.00000000000E+00  0.00000000000E+00 -4.02802316001E+00  4.02802316001E+00  0.00000000000E+00 0.00000000000E+00  1.
       32    2    1    2    0    0  1.77635683940E-15  5.32907051820E-15  9.65721300782E+02  9.73777347102E+02  1.24998763774E+02 0.00000000000E+00  1.
       23    2    3    3    0    0  6.98263679716E+00 -1.30034071757E+01  6.18840687679E+02  6.25792643589E+02  9.18411140397E+01 0.00000000000E+00  1.
       23    2    3    3    0    0 -6.98263679716E+00  1.30034071757E+01  3.46880613103E+02  3.47984703513E+02  2.34381807663E+01 0.00000000000E+00  1.
       15    1    4    4    0    0  2.19531385254E+01  3.47810580931E+01  2.20200067736E+02  2.24015377022E+02  1.77679999999E+00 0.00000000000E+00  1.
      -15    1    4    4    0    0 -1.49705017283E+01 -4.77844652688E+01  3.98640619943E+02  4.01777266567E+02  1.77679999999E+00 0.00000000000E+00  1.
        1    1    5    5  803    0  3.37872734732E+00  1.64259932268E+01  2.15945848597E+02  2.16596026329E+02  4.67203091199E-06 0.00000000000E+00  1.
       -1    1    5    5    0  803 -1.03613641445E+01 -3.42258605110E+00  1.30934764506E+02  1.31388677384E+02  4.26496119976E-06 0.00000000000E+00  1.
</event>
<event>
 9   1   1.0000000E+00   6.2503945E+01   7.8125000E-03   1.3828791E-01
       -1   -1    0    0    0  502  0.00000000000E+00  0.00000000000E+00  5.19385016904E+02  5.19385016904E+02  0.00000000000E+00 0.00000000000E+00  1.
        1   -1    0    0  502    0  0.00000000000E+00  0.00000000000E+00 -7.52186347172E+00  7.52186347172E+00  0.00000000000E+00 0.00000000000E+00  1.
       32    2    1    2    0    0  8.88178419700E-16  0.00000000000E+00  5.11863153432E+02  5.26906880376E+02  1.25007890733E+02 0.00000000000E+00  1.
       23    2    3    3    0    0  2.99694659437E+00  1.60154308723E+01  3.79519297495E+02  3.90915000621E+02  9.22722321387E+01 0.00000000000E+00  1.
       23    2    3    3    0    0 -2.99694659437E+00 -1.60154308723E+01  1.32343855937E+02  1.35991879755E+02  2.67099127701E+01 0.00000000000E+00  1.
        3    1    4    4  803    0 -4.04006299513E+01 -4.10174049880E-01  2.51943851834E+02  2.55162857054E+02  0.00000000000E+00 0.00000000000E+00  1.
       -3    1    4    4    0  803  4.33975765457E+01  1.64256049222E+01  1.27575445662E+02  1.35752143566E+02  1.34869915235E-06 0.00000000000E+00  1.
        5    1    5    5  804    0 -7.94401784171E+00  3.24146938822E+00  6.07658881301E+01  6.15521746448E+01  4.75000000000E+00 0.00000000000E+00  1.
       -5    1    5    5    0  804  4.94707124734E+00 -1.92569002605E+01  7.15779678069E+01  7.44397051105E+01  4.75000000000E+00 0.00000000000E+00  1.
</event>
<event>
 9   1   1.0000000E+00   6.2499833E+01   7.8125000E-03   1.3828945E-01
        4   -1    0    0  501    0  0.00000000000E+00  0.00000000000E+00  6.97613559772E+00  6.97613559772E+00  0.00000000000E+00 0.00000000000E+00  1.
       -4   -1    0    0    0  501  0.00000000000E+00  0.00000000000E+00 -5.59941687231E+02  5.59941687231E+02  0.00000000000E+00 0.00000000000E+00  1.
       32    2    1    2    0    0  0.00000000000E+00  0.00000000000E+00 -5.52965551633E+02  5.66917822828E+02  1.24999666191E+02 0.00000000000E+00  1.
       23    2    3    3    0    0  4.28056178826E+01  2.19456913398E+01 -2.94211691896E+02  3.03710657476E+02  5.80147354193E+01 0.00000000000E+00  1.
       23    2    3    3    0    0 -4.28056178826E+01 -2.19456913398E+01 -2.58753859737E+02  2.63207165352E+02  3.24309622742E+00 0.00000000000E+00  1.
        1    1    4    4  803    0 -9.69176568509E+00  1.19931481479E+01 -1.32633404253E+02  1.33526723449E+02  1.90734863281E-06 0.00000000000E+00  1.
       -1    1    4    4    0  803  5.24973835676E+01  9.95254319191E+00 -1.61578287643E+02  1.70183934227E+02  2.69739830470E-06 0.00000000000E+00  1.
       11    1    5    5    0    0 -1.47657357440E+01 -7.61872697565E+00 -9.79744974120E+01  9.93734073894E+01  5.11000377541E-04 0.00000000000E+00  1.
      -11    1    5    5    0    0 -2.80398821386E+01 -1.43269643642E+01 -1.60779362325E+02  1.63833757963E+02  5.10995038018E-04 0.00000000000E+00  1.
</event>
<event>
 9   1   1.0000000E+00   6.2511883E+01   7.8125000E-03   1.3828495E-01
        2   -1    0    0  501    0  0.00000000000E+00  0.00000000000E+00  4.24282447810E+02  4.24282447810E+02  0.00000000000E+00 0.00000000000E+00  1.
       -2   -1    0    0    0  501  0.00000000000E+00  0.00000000000E+00 -9.21022193350E+00  9.21022193350E+00  0.00000000000E+00 0.00000000000E+00  1.
       32    2    1    2    0    0 -8.88178419700E-16 -1.77635683940E-15  4.15072225877E+02  4.33492669744E+02  1.25023765850E+02 0.00000000000E+00  1.
       23    2    3    3    0    0 -7.01316731785E+00 -1.19748771395E+01  1.49769830956E+02  1.52487585049E+02  2.50774626139E+01 0.00000000000E+00  1.
       23    2    3    3    0    0  7.01316731785E+00  1.19748771395E+01  2.65302394921E+02  2.81005084695E+02  9.15746399135E+01 0.00000000000E+00  1.
        5    1    4    4  804    0  1.23303762696E+00 -1.45996271238E+01  5.23482358862E+01  5.45671127543E+01  4.75000000000E+00 0.00000000000E+00  1.
       -5    1    4    4    0  804 -8.24620494480E+00  2.62474998430E+00  9.74215950696E+01  9.79204722945E+01  4.75000000000E+00 0.00000000000E+00  1.
       14    1    5    5    0    0  5.91489297957E+00  1.64882226517E+01  1.96523041173E+00  1.76269560409E+01  4.38007967447E-06 0.00000000000E+00  1.
      -14    1    5    5    0    0  1.09827433828E+00 -4.51334551217E+00  2.63337164509E+02  2.63378128854E+02  3.81469726562E-06 0.00000000000E+00  1.
</event>
<event>
 9   1   1.0000000E+00   6.2496320E+01   7.8125000E-03   1.3829076E-01
        2   -1    0    0  501    0  0.00000000000E+00  0.00000000000E+00  1.06787117991E+03  1.06787117991E+03  0.00000000000E+00 0.00000000000E+00  1.
       -2   -1    0    0    0  501  0.00000000000E+00  0.00000000000E+00 -3.65754788286E+00  3.65754788286E+00  0.00000000000E+00 0.00000000000E+00  1.
       32    2    1    2    0    0  0.00000000000E+00 -4.44089209850E-15  1.06421363203E+03  1.07152872780E+03  1.24992639355E+02 0.00000000000E+00  1.
       23    2    3    3    0    0 -1.65913050666E+01 -5.03978100990E+00  2.96995638080E+02  2.98584925451E+02  2.54141273988E+01 0.00000000000E+00  1.
       23    2    3    3    0    0  1.65913050666E+01  5.03978100990E+00  7.67217993951E+02  7.72943802346E+02  9.22930146133E+01 0.00000000000E+00  1.
        2    1    4    4  803    0  2.65335647160E+00  2.19733823585E-01  1.70904955236E+02  1.70925692457E+02  2.69739830470E-06 0.00000000000E+00  1.
       -2    1    4    4    0  803 -1.92446615382E+01 -5.25951483348E+00  1.26090682844E+02  1.27659233194E+02  1.34869915235E-06 0.00000000000E+00  1.
        5    1    5    5  804    0 -3.89773666058E+00 -2.23371322218E+01  5.24019366645E+01  5.72945485466E+01  4.75000000000E+00 0.00000000000E+00  1.
       -5    1    5    5    0  804  2.04890417272E+01  2.73769132316E+01  7.14816057287E+02  7.15649253800E+02  4.75000000000E+00 0.00000000000E+00  1.
</event>
<event>
 9   1   1.0000000E+00   6.2501124E+01   7.8125000E-03   1.3828897E-01
        2   -1    0    0  501    0  0.00000000000E+00  0.00000000000E+00  3.45316908374E+02  3.45316908374E+02  0.00000000000E+00 0.00000000000E+00  1.
       -2   -1    0    0    0  501  0.00000000000E+00  0.00000000000E+00 -1.13124798044E+01  1.13124798044E+01  0.00000000000E+00 0.00000000000E+00  1.
       32    2    1    2    0    0 -3.55271367880E-15 -1.77635683940E-15  3.34004428569E+02  3.56629388178E+02  1.25002248813E+02 0.00000000000E+00  1.
       23    2    3    3    0    0 -8.20279081766E+00  5.29369195972E+00  9.88089038918E+01  1.04519703216E+02  3.26475101705E+01 0.00000000000E+00  1.
       23    2    3    3    0    0  8.20279081766E+00 -5.29369195972E+00  2.35195524677E+02  2.52109684962E+02  9.02610074812E+01 0.00000000000E+00  1.
       12    1    4    4    0    0  3.27893598363E+00 -1.12029129076E+00 -1.18693632484E+00  3.66268912141E+00  2.54308300357E-06 0.00000000000E+00  1.
      -12    1    4    4    0    0 -1.14817268013E+01  6.41398325049E+00  9.99958402167E+01  1.00857014095E+02  2.69739830470E-06 0.00000000000E+00  1.
       13    1    5    5    0    0 -3.30000192621E+01 -2.48947321155E+01  1.48426575470E+02  1.54075333614E+02  1.05659999969E-01 0.00000000000E+00  1.
      -13    1    5    5    0    0  4.12028100797E+01  1.96010401557E+01  8.67689492072E+01  9.80343513479E+01  1.05660000004E-01 0.00000000000E+00  1.
</event>
<event>
 9   1   1.0000000E+00   6.2499563E+01   7.8125000E-03   1.3828955E-01
       -4   -1    0    0    0  502  0.00000000000E+00  0.00000000000E+00  1.19649905423E+01  1.19649905423E+01  0.00000000000E+00 0.00000000000E+00  1.
        4   -1    0    0  502    0  0.00000000000E+00  0.00000000000E+00 -3.26468739677E+02  3.26468739677E+02  0.00000000000E+00 0.00000000000E+00  1.
       32    2    1    2    0    0  4.44089209850E-16 -3.55271367880E-15 -3.14503749135E+02  3.38433730220E+02  1.24999126118E+02 0.00000000000E+00  1.
       23    2    3    3    0    0 -3.21875796676E+00  2.19140224816E+01 -1.03176418937E+02  1.05973108400E+02  9.71295501085E+00 0.00000000000E+00  1.
       23    2    3    3    0    0  3.21875796676E+00 -2.19140224816E+01 -2.11327330198E+02  2.32460621820E+02  9.42768021526E+01 0.00000000000E+00  1.
        2    1    4    4  804    0  3.25913505114E+00  5.92182348473E+00 -3.50346507834E+01  3.56807610651E+01  0.00000000000E+00 0.00000000000E+00  1.
       -2    1    4    4    0  804 -6.47789301789E+00  1.59921989968E+01 -6.81417681536E+01  7.02923473346E+01  0.00000000000E+00 0.00000000000E+00  1.
        1    1    5    5  803    0  1.56363663056E+01  5.95298588654E+00  2.10115821918E+00  1.68626469288E+01  1.19432597813E-06 0.00000000000E+00  1.
       -1    1    5    5    0  803 -1.24176083389E+01 -2.78670083681E+01 -2.13428488417E+02  2.15597974991E+02  0.00000000000E+00 0.00000000000E+00  1.
</event>
<event>
 9   1   1.0000000E+00   6.2498894E+01   7.8125000E-03   1.3828980E-01
        2   -1    0    0  501    0  0.00000000000E+00  0.00000000000E+00  7.85132392448E+02  7.85132392448E+02  0.00000000000E+00 0.00000000000E+00  1.
       -2   -1    0    0    0  501  0.00000000000E+00  0.00000000000E+00 -4.97509953455E+00  4.97509953455E+00  0.00000000000E+00 0.00000000000E+00  1.
       32    2    1    2    0    0  0.00000000000E+00  3.55271367880E-15  7.80157292913E+02  7.90107491982E+02  1.24997788784E+02 0.00000000000E+00  1.
       23    2    3    3    0    0 -8.59008904146E+00 -2.08254723573E+01  2.92913350432E+02  2.95081674947E+02  2.77033228998E+01 0.00000000000E+00  1.
       23    2    3    3    0    0  8.59008904146E+00  2.08254723573E+01  4.87243942481E+02  4.95025817035E+02  8.44772757493E+01 0.00000000000E+00  1.
        2    1    4    4  803    0  7.25694607258E+00 -1.42022662640E+01  1.96845427620E+02  1.97490480904E+02  3.81469726562E-06 0.00000000000E+00  1.
       -2    1    4    4    0  803 -1.58470351140E+01 -6.62320609325E+00  9.60679228119E+01  9.75911942430E+01  1.34869915235E-06 0.00000000000E+00  1.
        3    1    5    5  804    0  1.02909297227E+01 -1.15395212883E+01  1.45793068800E+01  2.12513523151E+01  2.64418995533E-06 0.00000000000E+00  1.
       -3    1    5    5    0  804 -1.70084068120E+00  3.23649936456E+01  4.72664635601E+02  4.73774464820E+02  9.34406182397E-06 0.00000000000E+00  1.
</event>
<event>
 9   1   1.0000000E+00   6.2499566E+01   7.8125000E-03   1.3828955E-01
        2   -1    0    0  501    0  0.00000000000E+00  0.00000000000E+00  4.53958685268E+01  4.53958685268E+01  0.00000000000E+00 0.00000000000E+00  1.
       -2   -1    0    0    0  501  0.00000000000E+00  0.00000000000E+00 -8.60473857929E+01  8.60473857929E+01  0.00000000000E+00 0.00000000000E+00  1.
       32    2    1    2    0    0 -5.32907051820E-15  0.00000000000E+00 -4.06515172662E+01  1.31443254320E+02  1.24999132997E+02 0.00000000000E+00  1.
       23    2    3    3    0    0  3.39322801512E+00  2.11803368044E+01 -1.94650202102E+01  3.87136971760E+01  2.56854564637E+01 0.00000000000E+00  1.
       23    2    3    3    0    0 -3.39322801512E+00 -2.11803368044E+01 -2.11864970560E+01  9.27295571436E+01  8.76914046360E+01 0.00000000000E+00  1.
        4    1    4    4  804    0 -4.51124487831E+00 -4.37372552413E+00 -1.89641468468E+00  6.68601667428E+00  1.27500000000E+00 0.00000000000E+00  1.
       -4    1    4    4    0  804  7.90447289344E+00  2.55540623285E+01 -1.75686055255E+01  3.20276805018E+01  1.27500000000E+00 0.00000000000E+00  1.
        2    1    5    5  803    0  3.78975621413E+01 -2.00673116472E+01 -2.75017635742E+01  5.09437848289E+01  1.01152436426E-06 0.00000000000E+00  1.
       -2    1    5    5    0  803 -4.12907901564E+01 -1.11302515716E+00  6.31526651824E+00  4.17857723147E+01  0.00000000000E+00 0.00000000000E+00  1.
</event>
<event>
 9   1   1.0000000E+00   6.2500119E+01   7.8125000E-03   1.3828934E-01
       -2   -1    0    0    0  502  0.00000000000E+00  0.00000000000E+00  3.32750254093E+01  3.32750254093E+01  0.00000000000E+00 0.00000000000E+00  1.
        2   -1    0    0  502    0  0.00000000000E+00  0.00000000000E+00 -1.17393296562E+02  1.17393296562E+02  0.00000000000E+00 0.00000000000E+00  1.
       32    2    1    2    0    0  7.10542735760E-15  3.55271367880E-15 -8.41182711530E+01  1.50668321972E+02  1.25000238816E+02 0.00000000000E+00  1.
       23    2    3    3    0    0 -2.05871104481E+01 -1.76321713855E+01 -1.18698955602E+01  3.19534635829E+01  1.20584754409E+01 0.00000000000E+00  1.
       23    2    3    3    0    0  2.05871104481E+01  1.76321713855E+01 -7.22483755927E+01  1.18714858389E+02  9.02145622507E+01 0.00000000000E+00  1.
       12    1    4    4    0    0 -1.29857618090E+01 -9.84297495296E+00 -6.28524905687E-01  1.63067228235E+01  0.00000000000E+00 0.00000000000E+00  1.
      -12    1    4    4    0    0 -7.60134863906E+00 -7.78919643256E+00 -1.12413706546E+01  1.56467407594E+01  0.00000000000E+00 0.00000000000E+00  1.
        1    1    5    5  804    0  5.44823916659E+01  2.13424861297E+01 -3.48493460064E+01  6.81051367117E+01  1.34869915235E-06 0.00000000000E+00  1.
       -1    1    5    5    0  804 -3.38952812178E+01 -3.71031474421E+00 -3.73990295864E+01  5.06097218769E+01  0.00000000000E+00 0.00000000000E+00  1.
</event>
<event>
 9   1   1.0000000E+00   6.2500601E+01   7.8125000E-03   1.3828916E-01
       -4   -1    0    0    0  502  0.00000000000E+00  0.00000000000E+00  9.82716944311E+02  9.82716944311E+02  0.00000000000E+00 0.00000000000E+00  1.
        4   -1    0    0  502    0  0.00000000000E+00  0.00000000000E+00 -3.97502568925E+00  3.97502568925E+00  0.00000000000E+00 0.00000000000E+00  1.
       32    2    1    2    0    0  1.06581410364E-14 -2.66453525910E-15  9.78741918622E+02  9.86691970001E+02  1.25001201577E+02 0.00000000000E+00  1.
       23    2    3    3    0    0  1.68898014696E+01  3.82917852367E+00  3.05022057832E+02  3.06459684508E+02  2.40656282453E+01 0.00000000000E+00  1.
       23    2    3    3    0    0 -1.68898014696E+01 -3.82917852367E+00  6.73719860790E+02  6.80232285492E+02  9.22907546917E+01 0.00000000000E+00  1.
       13    1    4    4    0    0  1.60846114004E+01 -3.81916199818E+00  2.74003392931E+02  2.74501677998E+02  1.05660000021E-01 0.00000000000E+00  1.
      -13    1    4    4    0    0  8.05190069149E-01  7.64834052184E+00  3.10186649015E+01  3.19580065100E+01  1.05660000069E-01 0.00000000000E+00  1.
        2    1    5    5  803    0  2.40688277062E+01 -2.43965901919E+01  4.77605780109E+02  4.78833774257E+02  7.62939453125E-06 0.00000000000E+00  1.
       -2    1    5    5    0  803 -4.09586291758E+01  2.05674116682E+01  1.96114080681E+02  2.01398511435E+02  2.69739830470E-06 0.00000000000E+00  1.
</event>
<event>
 9   1   1.0000000E+00   6.2500565E+01   7.8125000E-03   1.3828918E-01
        2   -1    0    0  501    0  0.00000000000E+00  0.00000000000E+00  1.88128417413E+03  1.88128417413E+03  0.00000000000E+00 0.00000000000E+00  1.
       -2   -1    0    0    0  501  0.00000000000E+00  0.00000000000E+00 -2.07641176904E+00  2.07641176904E+00  0.00000000000E+00 0.00000000000E+00  1.
       32    2    1    2    0    0  0.00000000000E+00 -1.77635683940E-15  1.87920776237E+03  1.88336058590E+03  1.25001129596E+02 0.00000000000E+00  1.
       23    2    3    3    0    0  5.10066739955E+00 -3.55213980135E+00  5.61923282880E+02  5.62698378800E+02  2.88626948858E+01 0.00000000000E+00  1.
       23    2    3    3    0    0 -5.10066739955E+00  3.55213980135E+00  1.31728447948E+03  1.32066220710E+03  9.41893352458E+01 0.00000000000E+00  1.
        3    1    5    5  804    0  4.05091437895E+01  1.75556553486E+01  7.86308141896E+02  7.87546624610E+02  1.52587890625E-05 0.00000000000E+00  1.
       -3    1    4    4    0  803  7.29779606463E+00 -7.70360066159E+00  5.45843092351E+02  5.45946228915E+02  1.07895932188E-05 0.00000000000E+00  1.
        3    1    4    4  803    0 -2.19712866508E+00  4.15146086024E+00  1.60801905298E+01  1.67521499850E+01  1.43566791700E-05 0.00000000000E+00  1.
       -3    1    5    5    0  804 -4.56098111890E+01 -1.40035155473E+01  5.30976337589E+02  5.33115582593E+02  1.86881236479E-05 0.00000000000E+00  1.
</event>
<event>
 9   1   1.0000000E+00   6.2499273E+01   7.8125000E-03   1.3828966E-01
        2   -1    0    0  501    0  0.00000000000E+00  0.00000000000E+00  1.95438195654E+03  1.95438195654E+03  0.00000000000E+00 0.00000000000E+00  1.
       -2   -1    0    0    0  501  0.00000000000E+00  0.00000000000E+00 -1.99866723514E+00  1.99866723514E+00  0.00000000000E+00 0.00000000000E+00  1.
       32    2    1    2    0    0  2.44249065418E-15  4.44089209850E-15  1.95238328931E+03  1.95638062378E+03  1.24998546895E+02 0.00000000000E+00  1.
       23    2    3    3    0    0 -5.40323299115E-01  7.28759572774E+00  1.77606012612E+03  1.77835924409E+03  9.01034319622E+01 0.00000000000E+00  1.
       23    2    3    3    0    0  5.40323299115E-01 -7.28759572774E+00  1.76323163188E+02  1.78021379687E+02  2.34169329380E+01 0.00000000000E+00  1.
        3    1    4    4  804    0 -2.26692846817E+01  4.21227062988E+01  8.02068562051E+02  8.03493744273E+02  2.85465804045E-05 0.00000000000E+00  1.
       -3    1    4    4    0  804  2.21289613826E+01 -3.48351105710E+01  9.73991564067E+02  9.74865499818E+02  1.52587890625E-05 0.00000000000E+00  1.
        5    1    5    5  803    0 -1.90103171965E+00  4.95064965307E+00  1.16894110577E+02  1.17110710190E+02  4.75000000000E+00 0.00000000000E+00  1.
       -5    1    5    5    0  803  2.44135501877E+00 -1.22382453808E+01  5.94290526113E+01  6.09106694973E+01  4.75000000000E+00 0.00000000000E+00  1.
</event>
<event>
 9   1   1.0000000E+00   6.2499702E+01   7.8125000E-03   1.3828950E-01
        1   -1    0    0  501    0  0.00000000000E+00  0.00000000000E+00  8.68666142759E+01  8.68666142759E+01  0.00000000000E+00 0.00000000000E+00  1.
       -1   -1    0    0    0  501  0.00000000000E+00  0.00000000000E+00 -4.49679409492E+01  4.49679409492E+01  0.00000000000E+00 0.00000000000E+00  1.
       32    2    1    2    0    0  1.77635683940E-15 -3.55271367880E-15  4.18986733267E+01  1.31834555225E+02  1.24999404498E+02 0.00000000000E+00  1.
       23    2    3    3    0    0  8.17443139394E+00 -1.77427562011E+01  3.19140599698E+01  9.89986631308E+01  9.16547944829E+01 0.00000000000E+00  1.
       23    2    3    3    0    0 -8.17443139394E+00  1.77427562011E+01  9.98461335688E+00  3.28358920944E+01  2.44310576833E+01 0.00000000000E+00  1.
        5    1    4    4  803    0  2.39278609973E+01 -8.15298450792E-01  5.85340243160E+01  6.34192537491E+01  4.75000000000E+00 0.00000000000E+00  1.
       -5    1    4    4    0  803 -1.57534296034E+01 -1.69274577503E+01 -2.66199643462E+01  3.55794093817E+01  4.75000000000E+00 0.00000000000E+00  1.
       12    1    5    5    0    0 -2.14002785819E+00  1.92876202183E+01 -1.81743140226E+00  1.94908971015E+01  0.00000000000E+00 0.00000000000E+00  1.
      -12    1    5    5    0    0 -6.03440353575E+00 -1.54486401721E+00  1.18020447591E+01  1.33449949929E+01  0.00000000000E+00 0.00000000000E+00  1.
</event>
<event>
 9   1   1.0000000E+00   6.2499910E+01   7.8125000E-03   1.3828942E-01
        2   -1    0    0  501    0  0.00000000000E+00  0.00000000000E+00  8.03844826600E+02  8.03844826600E+02  0.00000000000E+00 0.00000000000E+00  1.
       -2   -1    0    0    0  501  0.00000000000E+00  0.00000000000E+00 -4.85944384073E+00  4.85944384073E+00  0.00000000000E+00 0.00000000000E+00  1.
       32    2    1    2    0    0  0.00000000000E+00  0.00000000000E+00  7.98985382759E+02  8.08704270440E+02  1.24999820664E+02 0.00000000000E+00  1.
       23    2    3    3    0    0 -1.62324415588E+01  9.33367442461E+00  5.00595433839E+02  5.08560253577E+02  8.76762995375E+01 0.00000000000E+00  1.
       23    2    3    3    0    0  1.62324415588E+01 -9.33367442461E+00  2.98389948920E+02  3.00144016864E+02  2.64435172630E+01 0.00000000000E+00  1.
        3    1    4    4  804    0  3.14926042391E+01 -6.83183706986E+00  3.00292514225E+02  3.02016642288E+02  0.00000000000E+00 0.00000000000E+00  1.
       -3    1    4    4    0  804 -4.77250457979E+01  1.61655114945E+01  2.00302919614E+02  2.06543611389E+02  3.81469726562E-06 0.00000000000E+00  1.
        1    1    5    5  803    0  4.55273173128E+00 -1.64572578335E+01  2.10990582505E+02  2.11680406863E+02  4.67203091199E-06 0.00000000000E+00  1.
       -1    1    5    5    0  803  1.16797098275E+01  7.12358340891E+00  8.73993664151E+01  8.84636101004E+01  3.81469726562E-06 0.00000000000E+00  1.
</event>
<event>
 9   1   1.0000000E+00   6.2502634E+01   7.8125000E-03   1.3828840E-01
        2   -1    0    0  501    0  0.00000000000E+00  0.00000000000E+00  2.23082329755E+03  2.23082329755E+03  0.00000000000E+00 0.00000000000E+00  1.
       -2   -1    0    0    0  501  0.00000000000E+00  0.00000000000E+00 -1.75118272405E+00  1.75118272405E+00  0.00000000000E+00 0.00000000000E+00  1.
       32    2    1    2    0    0  7.10542735760E-15  1.77635683940E-15  2.22907211483E+03  2.23257448028E+03  1.25005267394E+02 0.00000000000E+00  1.
       23    2    3    3    0    0 -1.11829793652E+01 -1.59989655749E-01  1.87210394727E+03  1.87448516269E+03  9.37888646654E+01 0.00000000000E+00  1.
       23    2    3    3    0    0  1.11829793652E+01  1.59989655749E-01  3.56968167562E+02  3.58089317590E+02  2.60115761865E+01 0.00000000000E+00  1.
        3    1    4    4  804    0 -2.90363412233E+01  3.63071992571E+01  6.27826761105E+02  6.29545680563E+02  7.62939453125E-06 0.00000000000E+00  1.
       -3    1    4    4    0  804  1.78533618582E+01 -3.64671889128E+01  1.24427718616E+03  1.24493948233E+03  2.15791864376E-05 0.00000000000E+00  1.
        2    1    5    5  803    0  4.66615446626E+00  1.04572773103E+01  2.73149408102E+02  2.73389331892E+02  3.81469726562E-06 0.00000000000E+00  1.
       -2    1    5    5    0  803  6.51682489889E+00 -1.02972876546E+01  8.38187594601E+01  8.46999857979E+01  1.65181236989E-06 0.00000000000E+00  1.
</event>
<event>
 9   1   1.0000000E+00   6.2500821E+01   7.8125000E-03   1.3828908E-01
       -2   -1    0    0    0  502  0.00000000000E+00  0.00000000000E+00  4.49948315591E+00  4.49948315591E+00  0.00000000000E+00 0.00000000000E+00  1.
        2   -1    0    0  502    0  0.00000000000E+00  0.00000000000E+00 -8.68178066877E+02  8.68178066877E+02  0.00000000000E+00 0.00000000000E+00  1.
       32    2    1    2    0    0  1.77635683940E-15 -1.24344978758E-14 -8.63678583721E+02  8.72677550033E+02  1.25001641401E+02 0.00000000000E+00  1.
       23    2    3    3    0    0  1.49317057149E+01  1.44041565378E+01 -1.76052348677E+02  1.78495351906E+02  2.08740416807E+01 0.00000000000E+00  1.
       23    2    3    3    0    0 -1.49317057149E+01 -1.44041565378E+01 -6.87626235044E+02  6.94182198127E+02  9.28905243546E+01 0.00000000000E+00  1.
        3    1    4    4  804    0  9.20872191362E+00  1.52637752203E+00 -2.33872064841E+01  2.51811798729E+01  2.02304872852E-06 0.00000000000E+00  1.
       -3    1    4    4    0  804  5.72298380133E+00  1.28777790157E+01 -1.52665142193E+02  1.53314172233E+02  2.69739830470E-06 0.00000000000E+00  1.
        4    1    5    5  803    0 -6.85844549785E+00 -5.40719961129E+01 -4.14141049425E+02  4.17714320418E+02  1.27499999997E+00 0.00000000000E+00  1.
       -4    1    5    5    0  803 -8.07326021709E+00  3.96678395752E+01 -2.73485185619E+02  2.76467877709E+02  1.27500000001E+00 0.00000000000E+00  1.
</event>
<event>
 9   1   1.0000000E+00   6.2500109E+01   7.8125000E-03   1.3828935E-01
       -2   -1    0    0    0  502  0.00000000000E+00  0.00000000000E+00  1.60797692181E+00  1.60797692181E+00  0.00000000000E+00 0.00000000000E+00  1.
        2   -1    0    0  502    0  0.00000000000E+00  0.00000000000E+00 -2.42930329175E+03  2.42930329175E+03  0.00000000000E+00 0.00000000000E+00  1.
       32    2    1    2    0    0  0.00000000000E+00  0.00000000000E+00 -2.42769531483E+03  2.43091126868E+03  1.25000218067E+02 0.00000000000E+00  1.
       23    2    3    3    0    0  2.37554191313E+01  1.23412455155E+01 -5.69677723535E+02  5.70502840031E+02  1.49718239475E+01 0.00000000000E+00  1.
       23    2    3    3    0    0 -2.37554191313E+01 -1.23412455155E+01 -1.85801759130E+03  1.86040842864E+03  9.04075523629E+01 0.00000000000E+00  1.
       16    1    4    4    0    0  2.13618875241E+01  1.48496213977E+01 -4.32810778686E+02  4.33591987519E+02  0.00000000000E+00 0.00000000000E+00  1.
      -16    1    4    4    0    0  2.39353160711E+00 -2.50837588221E+00 -1.36866944849E+02  1.36910852612E+02  5.72204589844E-06 0.00000000000E+00  1.
       13    1    5    5    0    0 -1.78891347121E+01 -4.36852974876E+01 -5.55998632254E+02  5.57999029202E+02  1.05660000779E-01 0.00000000000E+00  1.
      -13    1    5    5    0    0 -5.86628441912E+00  3.13440519721E+01 -1.30201895904E+03  1.30240939944E+03  1.05660001329E-01 0.00000000000E+00  1.
</event>
<event>
 9   1   1.0000000E+00   6.2502171E+01   7.8125000E-03   1.3828858E-01
        2   -1    0    0  501    0  0.00000000000E+00  0.00000000000E+00  1.05319098716E+02  1.05319098716E+02  0.00000000000E+00 0.00000000000E+00  1.
       -2   -1    0    0    0  501  0.00000000000E+00  0.00000000000E+00 -3.70922405433E+01  3.70922405433E+01  0.00000000000E+00 0.00000000000E+00  1.
       32    2    1    2    0    0  0.00000000000E+00  1.06581410364E-14  6.82268581731E+01  1.42411339260E+02  1.25004341419E+02 0.00000000000E+00  1.
       23    2    3    3    0    0 -2.01497179013E+01 -1.86034069444E+01  3.80856620055E+00  2.81300879078E+01  4.96978749593E+00 0.00000000000E+00  1.
       23    2    3    3    0    0  2.01497179013E+01  1.86034069444E+01  6.44182919726E+01  1.14281251352E+02  9.03238074289E+01 0.00000000000E+00  1.
       14    1    4    4    0    0 -9.34073057870E+00 -6.51061630046E+00  3.48567671849E+00  1.19074478601E+01  0.00000000000E+00 0.00000000000E+00  1.
      -14    1    4    4    0    0 -1.08089873226E+01 -1.20927906440E+01  3.22889482054E-01  1.62226400477E+01  0.00000000000E+00 0.00000000000E+00  1.
        5    1    5    5  803    0  1.45041570473E+00  5.23871703692E+01  5.05789505454E+01  7.29884378740E+01  4.75000000000E+00 0.00000000000E+00  1.
       -5    1    5    5    0  803  1.86993021966E+01 -3.37837634248E+01  1.38393414271E+01  4.12928134779E+01  4.75000000000E+00 0.00000000000E+00  1.
</event>
<event>
 9   1   1.0000000E+00   6.2498623E+01   7.8125000E-03   1.3828990E-01
        2   -1    0    0  501    0  0.00000000000E+00  0.00000000000E+00  3.23236420724E+02  3.23236420724E+02  0.00000000000E+00 0.00000000000E+00  1.
       -2   -1    0    0    0  501  0.00000000000E+00  0.00000000000E+00 -1.20842751110E+01  1.20842751110E+01  0.00000000000E+00 0.00000000000E+00  1.
       32    2    1    2    0    0 -3.55271367880E-15 -7.10542735760E-15  3.11152145613E+02  3.35320695835E+02  1.24997245313E+02 0.00000000000E+00  1.
       23    2    3    3    0    0  1.04046061732E+01 -1.28333673373E+01  1.32710955267E+02  1.34213243021E+02  1.13157327410E+01 0.00000000000E+00  1.
       23    2    3    3    0    0 -1.04046061732E+01  1.28333673373E+01  1.78441190346E+02  2.01107452814E+02  9.12688228174E+01 0.00000000000E+00  1.
        1    1    4    4  804    0  6.40043134616E+00 -1.42731199030E+01  9.76357356295E+01  9.88808593464E+01  0.00000000000E+00 0.00000000000E+00  1.
       -1    1    4    4    0  804  4.00417482701E+00  1.43975256572E+00  3.50752196378E+01  3.53323836747E+01  0.00000000000E+00 0.00000000000E+00  1.
        4    1    5    5  803    0  2.12321563174E+01 -2.79070548140E+01  3.91839585366E+01  5.25986349811E+01  1.27500000000E+00 0.00000000000E+00  1.
       -4    1    5    5    0  803 -3.16367624906E+01  4.07404221513E+01  1.39257231809E+02  1.48508817833E+02  1.27500000000E+00 0.00000000000E+00  1.
</event>
<event>
 9   1   1.0000000E+00   6.2500852E+01   7.8125000E-03   1.3828907E-01
        2   -1    0    0  501    0  0.00000000000E+00  0.00000000000E+00  1.45372714465E+03  1.45372714465E+03  0.00000000000E+00 0.00000000000E+00  1.
       -2   -1    0    0    0  501  0.00000000000E+00  0.00000000000E+00 -2.68713180234E+00  2.68713180234E+00  0.00000000000E+00 0.00000000000E+00  1.
       32    2    1    2    0    0  8.88178419700E-16  0.00000000000E+00  1.45104001285E+03  1.45641427645E+03  1.25001703065E+02 0.00000000000E+00  1.
       23    2    3    3    0    0  5.69873320425E+00  2.49496277098E+01  5.15794918590E+02  5.16506491727E+02  8.92179744131E+00 0.00000000000E+00  1.
       23    2    3    3    0    0 -5.69873320425E+00 -2.49496277098E+01  9.35245094260E+02  9.39907784728E+02  8.99349652350E+01 0.00000000000E+00  1.
       11    1    4    4    0    0 -5.74630589457E-01  1.56328663419E+01  3.32456865084E+02  3.32824704389E+02  5.10998597706E-04 0.00000000000E+00  1.
      -11    1    4    4    0    0  6.27336379371E+00  9.31676136792E+00  1.83338053506E+02  1.83681787337E+02  5.10970119505E-04 0.00000000000E+00  1.
        1    1    5    5  803    0 -2.03216438612E+01 -2.93279272228E+01  1.38681691278E+02  1.43198142617E+02  1.61843898282E-05 0.00000000000E+00  1.
       -1    1    5    5    0  803  1.46229106569E+01  4.37829951296E+00  7.96563402981E+02  7.96709642211E+02  1.07895932188E-05 0.00000000000E+00  1.
</event>
<event>
 9   1   1.0000000E+00   6.2497641E+01   7.8125000E-03   1.3829027E-01
        2   -1    0    0  501    0  0.00000000000E+00  0.00000000000E+00  1.03666512707E+03  1.03666512707E+03  0.00000000000E+00 0.00000000000E+00  1.
       -2   -1    0    0    0  501  0.00000000000E+00  0.00000000000E+00 -3.76780792476E+00  3.76780792476E+00  0.00000000000E+00 0.00000000000E+00  1.
       32    2    1    2    0    0 -3.55271367880E-15 -1.77635683940E-15  1.03289731915E+03  1.04043293500E+03  1.24995281209E+02 0.00000000000E+00  1.
       23    2    3    3    0    0  1.88949519173E+01 -1.56408763798E+01  7.89550305441E+02  7.94363310907E+02  8.37957556879E+01 0.00000000000E+00  1.
       23    2    3    3    0    0 -1.88949519173E+01  1.56408763798E+01  2.43347013706E+02  2.46069624090E+02  2.70339526897E+01 0.00000000000E+00  1.
       16    1    4    4    0    0  3.85721957613E+01 -3.89736420899E+01  5.82524894639E+02  5.85100001656E+02  0.00000000000E+00 0.00000000000E+00  1.
      -16    1    4    4    0    0 -1.96772438440E+01  2.33327657101E+01  2.07025410802E+02  2.09263309251E+02  2.69739830470E-06 0.00000000000E+00  1.
       14    1    5    5    0    0 -2.07040140357E+01  2.16337060453E+01  2.11928539529E+02  2.14033593862E+02  3.81469726562E-06 0.00000000000E+00  1.
      -14    1    5    5    0    0  1.80906211844E+00 -5.99282966544E+00  3.14184741769E+01  3.20360302278E+01  5.06884852063E-06 0.00000000000E+00  1.
</event>
<event>
 9   1   1.0000000E+00   6.2506400E+01   7.8125000E-03   1.3828700E-01
        1   -1    0    0  501    0  0.00000000000E+00  0.00000000000E+00  1.35020259361E+02  1.35020259361E+02  0.00000000000E+00 0.00000000000E+00  1.
       -1   -1    0    0    0  501  0.00000000000E+00  0.00000000000E+00 -2.89367689684E+01  2.89367689684E+01  0.00000000000E+00 0.00000000000E+00  1.
       32    2    1    2    0    0  0.00000000000E+00 -3.99680288865E-15  1.06083490393E+02  1.63957028330E+02  1.25012800164E+02 0.00000000000E+00  1.
       23    2    3    3    0    0 -1.59679671057E+01  1.82009555893E+00  5.03536946968E+01  1.05135966790E+02  9.08833770380E+01 0.00000000000E+00  1.
       23    2    3    3    0    0  1.59679671057E+01 -1.82009555893E+00  5.57297956960E+01  5.88210615400E+01  9.78868893401E+00 0.00000000000E+00  1.
       12    1    4    4    0    0 -3.49920746691E+00  4.59021971775E+01  2.00732545495E+01  5.02214268701E+01  2.13248059988E-06 0.00000000000E+00  1.
      -12    1    4    4    0    0 -1.24687596387E+01 -4.40821016186E+01  3.02804401473E+01  5.49145401195E+01  2.28683067480E-06 0.00000000000E+00  1.
       11    1    5    5    0    0  7.11696098101E+00 -4.34897378994E+00  3.72893365174E+01  3.82107226417E+01  5.10999932583E-04 0.00000000000E+00  1.
      -11    1    5    5    0    0  8.85100612465E+00  2.52887823101E+00  1.84404591786E+01  2.06103388983E+01  5.11000210682E-04 0.00000000000E+00  1.
</event>
<event>
 9   1   1.0000000E+00   6.2499889E+01   7.8125000E-03   1.3828943E-01
        1   -1    0    0  501    0  0.00000000000E+00  0.00000000000E+00  1.33473589121E+01  1.33473589121E+01  0.00000000000E+00 0.00000000000E+00  1.
       -1   -1    0    0    0  501  0.00000000000E+00  0.00000000000E+00 -2.92659851149E+02  2.92659851149E+02  0.00000000000E+00 0.00000000000E+00  1.
       32    2    1    2    0    0 -3.55271367880E-15  0.00000000000E+00 -2.79312492236E+02  3.06007210061E+02  1.24999777159E+02 0.00000000000E+00  1.
       23    2    3    3    0    0 -1.81972998736E+01  1.26581512370E+01 -3.63472789495E+01  4.61434603920E+01  1.77967338151E+01 0.00000000000E+00  1.
       23    2    3    3    0    0  1.81972998736E+01 -1.26581512370E+01 -2.42965213287E+02  2.59863749669E+02  8.94745942091E+01 0.00000000000E+00  1.
        2    1    5    5  804    0 -3.40674675553E+00  1.47887533875E+01 -8.05037083540E-01  1.51974089225E+01  0.00000000000E+00 0.00000000000E+00  1.
       -2    1    4    4    0  803 -4.21215495543E+00 -1.40958447714E+00  3.21228897860E-01  4.45335444037E+00  0.00000000000E+00 0.00000000000E+00  1.
        2    1    4    4  803    0 -1.39851449182E+01  1.40677357142E+01 -3.66685078474E+01  4.16901060517E+01  2.47771855483E-06 0.00000000000E+00  1.
       -2    1    5    5    0  804  2.16040466291E+01 -2.74469046245E+01 -2.42160176203E+02  2.44666340946E+02  3.81469726562E-06 0.00000000000E+00  1.
</event>
<event>
 9   1   1.0000000E+00   6.2502068E+01   7.8125000E-03   1.3828861E-01
       -2   -1    0    0    0  502  0.00000000000E+00  0.00000000000E+00  2.15069391562E+00  2.15069391562E+00  0.00000000000E+00 0.00000000000E+00  1.
        2   -1    0    0  502    0  0.00000000000E+00  0.00000000000E+00 -1.81639445862E+03  1.81639445862E+03  0.00000000000E+00 0.00000000000E+00  1.
       32    2    1    2    0    0  1.77635683940E-15  1.06581410364E-14 -1.81424376471E+03  1.81854515254E+03  1.25004136100E+02 0.00000000000E+00  1.
       23    2    3    3    0    0  5.47994685437E+00  1.74696487872E+01 -4.82286930081E+02  4.83646235094E+02  3.12694635029E+01 0.00000000000E+00  1.
       23    2    3    3    0    0 -5.47994685437E+00 -1.74696487872E+01 -1.33195683463E+03  1.33489891745E+03  8.66654027831E+01 0.00000000000E+00  1.
        3    1    4    4  804    0 -5.90471607045E+00  7.10022744565E+00 -3.84932568297E+01  3.95854736363E+01  9.30749001310E-06 0.00000000000E+00  1.
       -3    1    4    4    0  804  1.13846629248E+01  1.03694213415E+01 -4.43793673251E+02  4.44060761458E+02  9.34406182397E-06 0.00000000000E+00  1.
       15    1    5    5    0    0 -6.14189674638E+00 -3.96745017475E+01 -2.97485011305E+02  3.00187071597E+02  1.77680000003E+00 0.00000000000E+00  1.
      -15    1    5    5    0    0  6.61949892010E-01  2.22048529603E+01 -1.03447182332E+03  1.03471184585E+03  1.77680000002E+00 0.00000000000E+00  1.
</event>
<event>
 9   1   1.0000000E+00   6.2497114E+01   7.8125000E-03   1.3829046E-01
       -2   -1    0    0    0  502  0.00000000000E+00  0.00000000000E+00  5.10742985550E+01  5.10742985550E+01  0.00000000000E+00 0.00000000000E+00  1.
        2   -1    0    0  502    0  0.00000000000E+00  0.00000000000E+00 -7.64746517883E+01  7.64746517883E+01  0.00000000000E+00 0.00000000000E+00  1.
       32    2    1    2    0    0 -8.88178419700E-16  1.77635683940E-15 -2.54003532333E+01  1.27548950343E+02  1.24994227024E+02 0.00000000000E+00  1.
       23    2    3    3    0    0  5.06606061513E+00 -7.66393134128E+00 -2.88690058076E+01  4.80612597736E+01  3.73103789976E+01 0.00000000000E+00  1.
       23    2    3    3    0    0 -5.06606061513E+00  7.66393134128E+00  3.46865257430E+00  7.94876905697E+01  7.88787714639E+01 0.00000000000E+00  1.
       16    1    4    4    0    0  4.21596182114E-01  1.03870065827E+01 -2.74685377012E+01  2.93698521026E+01  0.00000000000E+00 0.00000000000E+00  1.
      -16    1    4    4    0    0  4.64446443301E+00 -1.80509379239E+01 -1.40046810641E+00  1.86914076709E+01  0.00000000000E+00 0.00000000000E+00  1.
        5    1    5    5  804    0  2.51170641451E+01 -2.41943113781E+01  3.23545760532E+00  3.53449048697E+01  4.75000000000E+00 0.00000000000E+00  1.
       -5    1    5    5    0  804 -3.01831247603E+01  3.18582427194E+01  2.33194968986E-01  4.41427857000E+01  4.75000000000E+00 0.00000000000E+00  1.
</event>
<event>
 9   1   1.0000000E+00   6.2500630E+01   7.8125000E-03   1.3828915E-01
        5   -1    0    0  501    0  0.00000000000E+00  0.00000000000E+00  1.09450964281E+02  1.09450964281E+02  0.00000000000E+00 0.00000000000E+00  1.
       -5   -1    0    0    0  501  0.00000000000E+00  0.00000000000E+00 -3.56902178380E+01  3.56902178380E+01  0.00000000000E+00 0.00000000000E+00  1.
       32    2    1    2    0    0  1.06581410364E-14 -8.88178419700E-16  7.37607464430E+01  1.45141182119E+02  1.25001260118E+02 0.00000000000E+00  1.
       23    2    3    3    0    0 -9.78769623073E+00  1.25689243570E+00  4.74325061135E+01  4.85848130797E+01  3.64179209889E+00 0.00000000000E+00  1.
       23    2    3    3    0    0  9.78769623073E+00 -1.25689243570E+00  2.63282403295E+01  9.65563690393E+01  9.23719513007E+01 0.00000000000E+00  1.
        1    1    4    4  804    0 -4.18928240784E+00  5.60175995447E-01  1.23895643394E+01  1.30906528247E+01  0.00000000000E+00 0.00000000000E+00  1.
       -1    1    4    4    0  804 -5.59841382289E+00  6.96716440249E-01  3.50429417740E+01  3.54941603550E+01  0.00000000000E+00 0.00000000000E+00  1.
        3    1    5    5  803    0 -3.10509277200E+01  4.96967936274E+00 -1.77793180746E+01  3.61242575517E+01  0.00000000000E+00 0.00000000000E+00  1.
       -3    1    5    5    0  803  4.08386239508E+01 -6.22657179844E+00  4.41075584041E+01  6.04321116875E+01  1.43051147461E-06 0.00000000000E+00  1.
</event>
<event>
 9   1   1.0000000E+00   6.2500647E+01   7.8125000E-03   1.3828914E-01
        2   -1    0    0  501    0  0.00000000000E+00  0.00000000000E+00  4.01689429057E+02  4.01689429057E+02  0.00000000000E+00 0.00000000000E+00  1.
       -2   -1    0    0    0  501  0.00000000000E+00  0.00000000000E+00 -9.72475407557E+00  9.72475407557E+00  0.00000000000E+00 0.00000000000E+00  1.
       32    2    1    2    0    0  1.77635683940E-15  3.55271367880E-15  3.91964674981E+02  4.11414183132E+02  1.25001294591E+02 0.00000000000E+00  1.
       23    2    3    3    0    0 -9.96605689815E+00 -1.72468536491E+01  1.86768747703E+02  1.87889242535E+02  4.79855090823E+00 0.00000000000E+00  1.
       23    2    3    3    0    0  9.96605689815E+00  1.72468536491E+01  2.05195927278E+02  2.23524940598E+02  8.63785520065E+01 0.00000000000E+00  1.
       12    1    4    4    0    0 -9.59603322122E+00 -1.29702702994E+01  1.41215634151E+02  1.42134327740E+02  4.26496119976E-06 0.00000000000E+00  1.
      -12    1    4    4    0    0 -3.70023676932E-01 -4.27658334963E+00  4.55531135523E+01  4.57549149942E+01  1.65181236989E-06 0.00000000000E+00  1.
        3    1    5    5  804    0 -1.23303380014E+01  2.58523272702E+01  1.59658231269E+01  3.27915778088E+01  1.95154017731E-06 0.00000000000E+00  1.
       -3    1    5    5    0  804  2.22963948995E+01 -8.60547362118E+00  1.89230104151E+02  1.90733362989E+02  2.69739830470E-06 0.00000000000E+00  1.
</event>
<event>
 9   1   1.0000000E+00   6.2499509E+01   7.8125000E-03   1.3828957E-01
       -2   -1    0    0    0  502  0.00000000000E+00  0.00000000000E+00  3.09731124907E+01  3.09731124907E+01  0.00000000000E+00 0.00000000000E+00  1.
        2   -1    0    0  502    0  0.00000000000E+00  0.00000000000E+00 -1.26115469080E+02  1.26115469080E+02  0.00000000000E+00 0.00000000000E+00  1.
       32    2    1    2    0    0 -3.55271367880E-15  3.55271367880E-15 -9.51423565897E+01  1.57088581571E+02  1.24999017766E+02 0.00000000000E+00  1.
       23    2    3    3    0    0 -1.63101858360E+01 -1.62287751028E+01 -3.22057098512E+01  4.41548780245E+01  1.95716683753E+01 0.00000000000E+00  1.
       23    2    3    3    0    0  1.63101858360E+01  1.62287751028E+01 -6.29366467385E+01  1.12933703547E+02  9.09043705809E+01 0.00000000000E+00  1.
        3    1    4    4  803    0 -1.46824866774E+01 -1.86307709186E+01 -3.34422795046E+01  4.10008182664E+01  0.00000000000E+00 0.00000000000E+00  1.
       -3    1    4    4    0  803 -1.62769915864E+00  2.40199581575E+00  1.23656965336E+00  3.15405985808E+00  0.00000000000E+00 0.00000000000E+00  1.
        1    1    5    5  804    0 -3.36706654474E+01  6.82722398980E+00 -3.23636315245E+00  3.45079520174E+01  0.00000000000E+00 0.00000000000E+00  1.
       -1    1    5    5    0  804  4.99808512834E+01  9.40155111303E+00 -5.97002835861E+01  7.84257516292E+01  0.00000000000E+00 0.00000000000E+00  1.
</event>
<event>
 9   1   1.0000000E+00   6.2500915E+01   7.8125000E-03   1.3828904E-01
       -2   -1    0    0    0  502  0.00000000000E+00  0.00000000000E+00  2.98235645174E+00  2.98235645174E+00  0.00000000000E+00 0.00000000000E+00  1.
        2   -1    0    0  502    0  0.00000000000E+00  0.00000000000E+00 -1.30982477513E+03  1.30982477513E+03  0.00000000000E+00 0.00000000000E+00  1.
       32    2    1    2    0    0  0.00000000000E+00  7.10542735760E-15 -1.30684241868E+03  1.31280713158E+03  1.25001829887E+02 0.00000000000E+00  1.
       23    2    3    3    0    0 -2.29873836002E+00  1.36112780469E+01 -1.04725064179E+03  1.05133896252E+03  9.15923374695E+01 0.00000000000E+00  1.
       23    2    3    3    0    0  2.29873836002E+00 -1.36112780469E+01 -2.59591776888E+02  2.61468169067E+02  2.80564024657E+01 0.00000000000E+00  1.
        2    1    4    4  803    0 -2.77976390605E+01 -3.05668887370E+01 -4.26867747316E+02  4.28862585362E+02  1.20631319434E-05 0.00000000000E+00  1.
       -2    1    4    4    0  803  2.54989007004E+01  4.41781667839E+01 -6.20382894475E+02  6.22476377254E+02  7.62939453125E-06 0.00000000000E+00  1.
        4    1    5    5  804    0 -3.27784718380E-01  8.42505221521E+00 -9.50350711650E+01  9.54168712754E+01  1.27500000000E+00 0.00000000000E+00  1.
       -4    1    5    5    0  804  2.62652307840E+00 -2.20363302621E+01 -1.64556705723E+02  1.66051297792E+02  1.27500000000E+00 0.00000000000E+00  1.
</event>
<event>
 9   1   1.0000000E+00   6.2500596E+01   7.8125000E-03   1.3828916E-01
        3   -1    0    0  501    0  0.00000000000E+00  0.00000000000E+00  1.10680972966E+02  1.10680972966E+02  0.00000000000E+00 0.00000000000E+00  1.
       -3   -1    0    0    0  501  0.00000000000E+00  0.00000000000E+00 -3.52935501981E+01  3.52935501981E+01  0.00000000000E+00 0.00000000000E+00  1.
       32    2    1    2    0    0  0.00000000000E+00  0.00000000000E+00  7.53874227683E+01  1.45974523165E+02  1.25001191600E+02 0.00000000000E+00  1.
       23    2    3    3    0    0  7.38009459324E+00  2.91798043603E+00  2.89330208093E+01  9.47668935036E+01  8.98925136212E+01 0.00000000000E+00  1.
       23    2    3    3    0    0 -7.38009459324E+00 -2.91798043603E+00  4.64544019590E+01  5.12076296609E+01  2.00307131200E+01 0.00000000000E+00  1.
       16    1    4    4    0    0  8.21925229339E+00 -1.39599227232E+01 -2.96545285097E+01  3.37909250922E+01  1.26159253648E-06 0.00000000000E+00  1.
      -16    1    4    4    0    0 -8.39157700150E-01  1.68779031592E+01  5.85875493190E+01  6.09759686114E+01  0.00000000000E+00 0.00000000000E+00  1.
        2    1    5    5  804    0 -1.33045001022E+01  1.50823667448E+00  2.29848852209E+01  2.66005535554E+01  0.00000000000E+00 0.00000000000E+00  1.
       -2    1    5    5    0  804  5.92440550898E+00 -4.42621711051E+00  2.34695167381E+01  2.46070762055E+01  0.00000000000E+00 0.00000000000E+00  1.
</event>
<event>
 9   1   1.0000000E+00   6.2500328E+01   7.8125000E-03   1.3828926E-01
       -3   -1    0    0    0  502  0.00000000000E+00  0.00000000000E+00  7.78814420506E+02  7.78814420506E+02  0.00000000000E+00 0.00000000000E+00  1.
        3   -1    0    0  502    0  0.00000000000E+00  0.00000000000E+00 -5.01568910623E+00  5.01568910623E+00  0.00000000000E+00 0.00000000000E+00  1.
       32    2    1    2    0    0 -7.10542735760E-15  2.66453525910E-15  7.73798731400E+02  7.83830109612E+02  1.25000656074E+02 0.00000000000E+00  1.
       23    2    3    3    0    0 -1.83587672028E+01 -8.68467015771E-01  4.98112970445E+02  5.06791291645E+02  9.15591797322E+01 0.00000000000E+00  1.
       23    2    3    3    0    0  1.83587672028E+01  8.68467015771E-01  2.75685760955E+02  2.77038817967E+02  2.02501678870E+01 0.00000000000E+00  1.
        4    1    4    4  804    0 -4.84581934772E+01  2.42051810145E+01  2.92279710995E+02  2.97259385701E+02  1.27499999999E+00 0.00000000000E+00  1.
       -4    1    4    4    0  804  3.00994262745E+01 -2.50736480303E+01  2.05833259450E+02  2.09531905944E+02  1.27499999999E+00 0.00000000000E+00  1.
        2    1    5    5  803    0  1.76574161419E+01 -6.57254001866E+00  2.27262321804E+02  2.28041981966E+02  2.69739830470E-06 0.00000000000E+00  1.
       -2    1    5    5    0  803  7.01351060852E-01  7.44100703443E+00  4.84234391504E+01  4.89968360014E+01  2.52318507296E-06 0.00000000000E+00  1.
</event>
<event>
 9   1   1.0000000E+00   6.2500061E+01   7.8125000E-03   1.3828936E-01
        5   -1    0    0  501    0  0.00000000000E+00  0.00000000000E+00  1.43509545981E+01  1.43509545981E+01  0.00000000000E+00 0.00000000000E+00  1.
       -5   -1    0    0    0  501  0.00000000000E+00  0.00000000000E+00 -2.72194966459E+02  2.72194966459E+02  0.00000000000E+00 0.00000000000E+00  1.
       32    2    1    2    0    0 -1.77635683940E-15 -7.54951656745E-15 -2.57844011861E+02  2.86545921057E+02  1.25000121688E+02 0.00000000000E+00  1.
       23    2    3    3    0    0  1.58359880909E+01 -3.95345717305E+00 -2.55969464085E+01  3.57791814651E+01  1.89350948886E+01 0.00000000000E+00  1.
       23    2    3    3    0    0 -1.58359880909E+01  3.95345717305E+00 -2.32247065453E+02  2.50766739592E+02  9.31603452756E+01 0.00000000000E+00  1.
        5    1    4    4  804    0  1.15720404101E+00 -3.75054386405E+00 -3.26300349632E-01  6.17046776078E+00  4.75000000000E+00 0.00000000000E+00  1.
       -5    1    4    4    0  804  1.46787840499E+01 -2.02913308995E-01 -2.52706460588E+01  2.96087137043E+01  4.75000000000E+00 0.00000000000E+00  1.
        3    1    5    5  803    0 -2.71534619233E+01  4.45596965425E+01 -1.37358016738E+02  1.46935706391E+02  0.00000000000E+00 0.00000000000E+00  1.
       -3    1    5    5    0  803  1.13174738324E+01 -4.06062393694E+01 -9.48890487143E+01  1.03831033201E+02  2.69739830470E-06 0.00000000000E+00  1.
</event>
<event>
 9   1   1.0000000E+00   6.2494665E+01   7.8125000E-03   1.3829138E-01
       -3   -1    0    0    0  502  0.00000000000E+00  0.00000000000E+00  2.71754007992E+01  2.71754007992E+01  0.00000000000E+00 0.00000000000E+00  1.
        3   -1    0    0  502    0  0.00000000000E+00  0.00000000000E+00 -1.43717593462E+02  1.43717593462E+02  0.00000000000E+00 0.00000000000E+00  1.
       32    2    1    2    0    0 -7.10542735760E-15  2.66453525910E-15 -1.16542192663E+02  1.70892994261E+02  1.24989330812E+02 0.00000000000E+00  1.
       23    2    3    3    0    0  9.75147775765E+00  4.45330585242E+00 -6.14555296962E+01  1.10494713865E+02  9.11996513724E+01 0.00000000000E+00  1.
       23    2    3    3    0    0 -9.75147775765E+00 -4.45330585242E+00 -5.50866629667E+01  6.03982803960E+01  2.23268579634E+01 0.00000000000E+00  1.
        2    1    4    4  804    0 -2.89475120724E+01 -2.67273038247E+01 -1.40956854745E+01  4.18448990191E+01  0.00000000000E+00 0.00000000000E+00  1.
       -2    1    4    4    0  804  3.86989898301E+01  3.11806096771E+01 -4.73598442216E+01  6.86498149461E+01  0.00000000000E+00 0.00000000000E+00  1.
        4    1    5    5  803    0  3.93643871700E+00  4.25512000961E+00 -2.93815119135E+01  2.99749973043E+01  1.27500000000E+00 0.00000000000E+00  1.
       -4    1    5    5    0  803 -1.36879164746E+01 -8.70842586203E+00 -2.57051510531E+01  3.04232830917E+01  1.27500000000E+00 0.00000000000E+00  1.
</event>
<event>
 9   1   1.0000000E+00   6.2499644E+01   7.8125000E-03   1.3828952E-01
       -2   -1    0    0    0  502  0.00000000000E+00  0.00000000000E+00  1.56931391019E+00  1.56931391019E+00  0.00000000000E+00 0.00000000000E+00  1.
        2   -1    0    0  502    0  0.00000000000E+00  0.00000000000E+00 -2.48911672129E+03  2.48911672129E+03  0.00000000000E+00 0.00000000000E+00  1.
       32    2    1    2    0    0  1.77635683940E-15  0.00000000000E+00 -2.48754740738E+03  2.49068603520E+03  1.24999287915E+02 0.00000000000E+00  1.
       23    2    3    3    0    0  6.26663880393E+00 -9.92118377167E+00 -4.20493902569E+02  4.21633211078E+02  2.86660415230E+01 0.00000000000E+00  1.
       23    2    3    3    0    0 -6.26663880393E+00  9.92118377167E+00 -2.06705350481E+03  2.06905282412E+03  9.01759203420E+01 0.00000000000E+00  1.
        1    1    4    4  803    0 -8.12186145271E+00 -6.42000963104E-01 -2.77259738249E+02  2.77379413895E+02  0.00000000000E+00 0.00000000000E+00  1.
       -1    1    4    4    0  803  1.43885002566E+01 -9.27918280857E+00 -1.43234164320E+02  1.44253797183E+02  4.26496119976E-06 0.00000000000E+00  1.
        5    1    5    5  804    0  4.52524892147E-01  5.66389369005E+00 -2.04643576642E+03  2.04644916699E+03  4.75000000020E+00 0.00000000000E+00  1.
       -5    1    5    5    0  804 -6.71916369607E+00  4.25729008162E+00 -2.06177383844E+01  2.26036571311E+01  4.75000000019E+00 0.00000000000E+00  1.
</event>
<event>
 9   1   1.0000000E+00   6.2500040E+01   7.8125000E-03   1.3828937E-01
        3   -1    0    0  501    0  0.00000000000E+00  0.00000000000E+00  8.67567023410E+02  8.67567023410E+02  0.00000000000E+00 0.00000000000E+00  1.
       -3   -1    0    0    0  501  0.00000000000E+00  0.00000000000E+00 -4.50253968157E+00  4.50253968157E+00  0.00000000000E+00 0.00000000000E+00  1.
       32    2    1    2    0    0  0.00000000000E+00 -3.55271367880E-15  8.63064483728E+02  8.72069563092E+02  1.25000079189E+02 0.00000000000E+00  1.
       23    2    3    3    0    0 -1.68097469615E+01  1.43422548394E+01  7.94657077620E+02  8.00131972456E+02  9.07911585314E+01 0.00000000000E+00  1.
       23    2    3    3    0    0  1.68097469615E+01 -1.43422548394E+01  6.84074061081E+01  7.19375906355E+01  2.67878129400E+00 0.00000000000E+00  1.
       12    1    4    4    0    0 -5.27860210922E+00  2.22428631258E+01  4.62211340174E+01  5.15655100830E+01  7.47889859264E-06 0.00000000000E+00  1.
      -12    1    4    4    0    0 -1.15311448523E+01 -7.90060828644E+00  7.48435943603E+02  7.48566462373E+02  1.07895932188E-05 0.00000000000E+00  1.
       14    1    5    5    0    0  1.22491282345E+01 -9.55475343789E+00  4.45513658676E+01  4.71821858954E+01  0.00000000000E+00 0.00000000000E+00  1.
      -14    1    5    5    0    0  4.56061872699E+00 -4.78750140150E+00  2.38560402405E+01  2.47554048401E+01  0.00000000000E+00 0.00000000000E+00  1.
</event>
<event>
 9   1   1.0000000E+00   6.2500676E+01   7.8125000E-03   1.3828913E-01
       -2   -1    0    0    0  502  0.00000000000E+00  0.00000000000E+00  1.99058095449E+00  1.99058095449E+00  0.00000000000E+00 0.00000000000E+00  1.
        2   -1    0    0  502    0  0.00000000000E+00  0.00000000000E+00 -1.96240923202E+03  1.96240923202E+03  0.00000000000E+00 0.00000000000E+00  1.
       32    2    1    2    0    0 -7.10542735760E-15  0.00000000000E+00 -1.96041865106E+03  1.96439981297E+03  1.25001351067E+02 0.00000000000E+00  1.
       23    2    3    3    0    0 -2.06221047361E+01  1.43647233708E+01 -5.79188227076E+02  5.79923978028E+02  1.48728419217E+01 0.00000000000E+00  1.
       23    2    3    3    0    0  2.06221047361E+01 -1.43647233708E+01 -1.38123042399E+03  1.38447583494E+03  9.13467947765E+01 0.00000000000E+00  1.
        5    1    4    4  803    0 -6.63029830840E+00  6.06531095989E+00 -1.22335478240E+02  1.22756998126E+02  4.75000000000E+00 0.00000000000E+00  1.
       -5    1    4    4    0  803 -1.39918064277E+01  8.29941241087E+00 -4.56852748836E+02  4.57166979902E+02  4.74999999998E+00 0.00000000000E+00  1.
       11    1    5    5    0    0 -3.33628276186E+01 -2.18354036584E+01 -5.24147242635E+02  5.25661673590E+02  5.10998597706E-04 0.00000000000E+00  1.
      -11    1    5    5    0    0  5.39849323547E+01  7.47068028764E+00 -8.57083181353E+02  8.58814161354E+02  5.10884675378E-04 0.00000000000E+00  1.
</event>
<event>
 9   1   1.0000000E+00   6.2500318E+01   7.8125000E-03   1.3828927E-01
       -2   -1    0    0    0  502  0.00000000000E+00  0.00000000000E+00  6.23443173209E+02  6.23443173209E+02  0.00000000000E+00 0.00000000000E+00  1.
        2   -1    0    0  502    0  0.00000000000E+00  0.00000000000E+00 -6.26567085723E+00  6.26567085723E+00  0.00000000000E+00 0.00000000000E+00  1.
       32    2    1    2    0    0 -3.55271367880E-15 -8.88178419700E-15  6.17177502352E+02  6.29708844066E+02  1.25000635543E+02 0.00000000000E+00  1.
       23    2    3    3    0    0  2.64096084359E+01  1.30805328298E+01  4.59492637393E+02  4.69163325412E+02  9.00676098063E+01 0.00000000000E+00  1.
       23    2    3    3    0    0 -2.64096084359E+01 -1.30805328298E+01  1.57684864958E+02  1.60545518654E+02  6.46368053872E+00 0.00000000000E+00  1.
        4    1    4    4  804    0 -8.85511936946E+00 -3.42669464128E+01  1.90698250030E+02  1.93958977480E+02  1.27500000000E+00 0.00000000000E+00  1.
       -4    1    4    4    0  804  3.52647278054E+01  4.73474792426E+01  2.68794387363E+02  2.75204347932E+02  1.27499999999E+00 0.00000000000E+00  1.
       15    1    5    5    0    0 -1.59495901076E+01 -1.07294494511E+01  1.01117652149E+02  1.02943902707E+02  1.77680000000E+00 0.00000000000E+00  1.
      -15    1    5    5    0    0 -1.04600183283E+01 -2.35108337866E+00  5.65672128088E+01  5.76016159467E+01  1.77680000000E+00 0.00000000000E+00  1.
</event>
<event>
 9   1   1.0000000E+00   6.2501057E+01   7.8125000E-03   1.3828899E-01
       -2   -1    0    0    0  502  0.00000000000E+00  0.00000000000E+00  7.11627739714E+00  7.11627739714E+00  0.00000000000E+00 0.00000000000E+00  1.
        2   -1    0    0  502    0  0.00000000000E+00  0.00000000000E+00 -5.48936171207E+02  5.48936171207E+02  0.00000000000E+00 0.00000000000E+00  1.
       32    2    1    2    0    0 -1.77635683940E-15 -1.42108547152E-14 -5.41819893810E+02  5.56052448604E+02  1.25002113064E+02 0.00000000000E+00  1.
       23    2    3    3    0    0 -1.22819856035E+01 -2.54534417627E+01 -1.03098065735E+02  1.07102618915E+02  6.56010307473E+00 0.00000000000E+00  1.
       23    2    3    3    0    0  1.22819856035E+01  2.54534417627E+01 -4.38721828075E+02  4.48949829689E+02  9.09966058712E+01 0.00000000000E+00  1.
        3    1    5    5  804    0 -1.14538981262E+01  4.28084476364E+01 -3.86391989674E+02  3.88924831727E+02  9.34406182397E-06 0.00000000000E+00  1.
       -3    1    4    4    0  803 -6.02063563425E-01 -6.83289481861E+00 -1.98569296543E+01  2.10082981613E+01  7.16843432349E-06 0.00000000000E+00  1.
        3    1    4    4  803    0 -1.16799220400E+01 -1.86205469441E+01 -8.32411360803E+01  8.60943208539E+01  0.00000000000E+00 0.00000000000E+00  1.
       -3    1    5    5    0  804  2.37358837296E+01 -1.73550058737E+01 -5.23298384004E+01  6.00249981618E+01  0.00000000000E+00 0.00000000000E+00  1.
</event>
<event>
 9   1   1.0000000E+00   6.2502132E+01   7.8125000E-03   1.3828859E-01
       -2   -1    0    0    0  502  0.00000000000E+00  0.00000000000E+00  3.73196736352E+02  3.73196736352E+02  0.00000000000E+00 0.00000000000E+00  1.
        2   -1    0    0  502    0  0.00000000000E+00  0.00000000000E+00 -1.04677135777E+01  1.04677135777E+01  0.00000000000E+00 0.00000000000E+00  1.
       32    2    1    2    0    0 -3.55271367880E-15 -5.32907051820E-15  3.62729022774E+02  3.83664449929E+02  1.25004264636E+02 0.00000000000E+00  1.
       23    2    3    3    0    0  3.92949735338E+00  3.39988958351E+00  7.44629068268E+01  8.55609877838E+01  4.18205444585E+01 0.00000000000E+00  1.
       23    2    3    3    0    0 -3.92949735338E+00 -3.39988958351E+00  2.88266115947E+02  2.98103462146E+02  7.57715008518E+01 0.00000000000E+00  1.
        3    1    4    4  803    0  1.75064525493E+01 -9.05522856779E+00  5.64591477964E+01  5.98005721305E+01  0.00000000000E+00 0.00000000000E+00  1.
       -3    1    4    4    0  803 -1.35769551960E+01  1.24551181513E+01  1.80037590304E+01  2.57604158533E+01  0.00000000000E+00 0.00000000000E+00  1.
        1    1    5    5  804    0 -1.54231964870E+01  2.80655122138E+01  2.17077271710E+02  2.19426730046E+02  3.81469726562E-06 0.00000000000E+00  1.
       -1    1    5    5    0  804  1.14936991336E+01 -3.14654017973E+01  7.11888442376E+01  7.86767321999E+01  1.90734863281E-06 0.00000000000E+00  1.
</event>
<event>
 9   1   1.0000000E+00   6.2499505E+01   7.8125000E-03   1.3828957E-01
       -2   -1    0    0    0  502  0.00000000000E+00  0.00000000000E+00  6.31135651660E+01  6.31135651660E+01  0.00000000000E+00 0.00000000000E+00  1.
        2   -1    0    0  502    0  0.00000000000E+00  0.00000000000E+00 -6.18914191382E+01  6.18914191382E+01  0.00000000000E+00 0.00000000000E+00  1.
       32    2    1    2    0    0 -8.88178419700E-16  3.55271367880E-15  1.22214602777E+00  1.25004984304E+02  1.24999009836E+02 0.00000000000E+00  1.
       23    2    3    3    0    0 -5.61209793247E-02  4.67907791425E+00  6.72228778761E+00  3.40426702009E+01  3.30426591184E+01 0.00000000000E+00  1.
       23    2    3    3    0    0  5.61209793247E-02 -4.67907791425E+00 -5.50014175984E+00  9.09623141033E+01  9.06752122025E+01 0.00000000000E+00  1.
        1    1    4    4  803    0  8.07242197501E+00  1.67905204086E+01  5.39736243023E+00  1.93963164889E+01  0.00000000000E+00 0.00000000000E+00  1.
       -1    1    4    4    0  803 -8.12854295433E+00 -1.21114424943E+01  1.32492535737E+00  1.46463537120E+01  0.00000000000E+00 0.00000000000E+00  1.
       13    1    5    5    0    0  5.07384033101E+00 -4.72698413549E+01 -6.98103379990E+00  4.80513033577E+01  1.05660000001E-01 0.00000000000E+00  1.
      -13    1    5    5    0    0 -5.01771935168E+00  4.25907634406E+01  1.48089204006E+00  4.29110107457E+01  1.05660000001E-01 0.00000000000E+00  1.
</event>
<event>
 9   1   1.0000000E+00   6.2502024E+01   7.8125000E-03   1.3828863E-01
        1   -1    0    0  501    0  0.00000000000E+00  0.00000000000E+00  1.37053340741E+01  1.37053340741E+01  0.00000000000E+00 0.00000000000E+00  1.
       -1   -1    0    0    0  501  0.00000000000E+00  0.00000000000E+00 -2.85035226358E+02  2.85035226358E+02  0.00000000000E+00 0.00000000000E+00  1.
       32    2    1    2    0    0  0.00000000000E+00  1.77635683940E-15 -2.71329892284E+02  2.98740560432E+02  1.25004047936E+02 0.00000000000E+00  1.
       23    2    3    3    0    0 -7.97256821374E-01  1.47727961763E+00 -1.48103351948E+02  1.71566267374E+02  8.65884707612E+01 0.00000000000E+00  1.
       23    2    3    3    0    0  7.97256821374E-01 -1.47727961763E+00 -1.23226540336E+02  1.27174293059E+02  3.13959009788E+01 0.00000000000E+00  1.
       15    1    4    4    0    0  1.30761486450E+01  2.71965252915E+01 -1.36935052110E+02  1.40231958433E+02  1.77680000000E+00 0.00000000000E+00  1.
      -15    1    4    4    0    0 -1.38734054663E+01 -2.57192456739E+01 -1.11682998377E+01  3.13343089404E+01  1.77680000000E+00 0.00000000000E+00  1.
        4    1    5    5  804    0 -1.12357123694E+01 -9.17724834238E+00 -3.69972669758E+01  3.97603635328E+01  1.27500000000E+00 0.00000000000E+00  1.
       -4    1    5    5    0  804  1.20329691908E+01  7.69996872475E+00 -8.62292733602E+01  8.74139295258E+01  1.27500000000E+00 0.00000000000E+00  1.
</event>
<event>
 9   1   1.0000000E+00   6.2500969E+01   7.8125000E-03   1.3828902E-01
        1   -1    0    0  501    0  0.00000000000E+00  0.00000000000E+00  6.31189087454E+02  6.31189087454E+02  0.00000000000E+00 0.00000000000E+00  1.
       -1   -1    0    0    0  501  0.00000000000E+00  0.00000000000E+00 -6.18890786505E+00  6.18890786505E+00  0.00000000000E+00 0.00000000000E+00  1.
       32    2    1    2    0    0  3.55271367880E-15 -8.88178419700E-16  6.25000179589E+02  6.37377995319E+02  1.25001937708E+02 0.00000000000E+00  1.
       23    2    3    3    0    0 -1.44570202138E+00 -6.62545395848E+00  1.35126017918E+02  1.38852132619E+02  3.12231856153E+01 0.00000000000E+00  1.
       23    2    3    3    0    0  1.44570202138E+00  6.62545395848E+00  4.89874161670E+02  4.98525862700E+02  9.22244805546E+01 0.00000000000E+00  1.
        3    1    4    4  803    0  1.17417096518E+01 -7.59487045006E+00  3.25414272576E+01  3.54188409995E+01  1.71926082395E-06 0.00000000000E+00  1.
       -3    1    4    4    0  803 -1.31874116731E+01  9.69416491583E-01  1.02584590661E+02  1.03433291820E+02  1.34869915235E-06 0.00000000000E+00  1.
        5    1    5    5  804    0 -3.62803148668E+01 -7.43541502979E+00  3.72118979754E+02  3.73987492086E+02  4.75000000000E+00 0.00000000000E+00  1.
       -5    1    5    5    0  804  3.77260168882E+01  1.40608689883E+01  1.17755181917E+02  1.24538370614E+02  4.75000000000E+00 0.00000000000E+00  1.
</event>
<event>
 9   1   1.0000000E+00   6.2497264E+01   7.8125000E-03   1.3829041E-01
        1   -1    0    0  501    0  0.00000000000E+00  0.00000000000E+00  2.40710827247E+00  2.40710827247E+00  0.00000000000E+00 0.00000000000E+00  1.
       -1   -1    0    0    0  501  0.00000000000E+00  0.00000000000E+00 -1.62265569721E+03  1.62265569721E+03  0.00000000000E+00 0.00000000000E+00  1.
       32    2    1    2    0    0  1.77635683940E-15 -3.55271367880E-15 -1.62024858894E+03  1.62506280548E+03  1.24994527114E+02 0.00000000000E+00  1.
       23    2    3    3    0    0 -1.14786819983E+01  1.36655203683E+01 -9.68912481636E+01  9.94496996576E+01  1.35581047327E+01 0.00000000000E+00  1.
       23    2    3    3    0    0  1.14786819983E+01 -1.36655203683E+01 -1.52335734078E+03  1.52561310583E+03  8.09892238963E+01 0.00000000000E+00  1.
        3    1    4    4  803    0 -1.13200742779E+01  2.97148015013E+00 -4.88748771973E+01  5.02566154550E+01  0.00000000000E+00 0.00000000000E+00  1.
       -3    1    4    4    0  803 -1.58607720379E-01  1.06940402181E+01 -4.80163709662E+01  4.91930842026E+01  0.00000000000E+00 0.00000000000E+00  1.
        3    1    5    5  804    0 -3.30877426607E+00 -4.34172696077E+01 -1.13577538084E+03  1.13660974966E+03  0.00000000000E+00 0.00000000000E+00  1.
       -3    1    5    5    0  804  1.47874562643E+01  2.97517492395E+01 -3.87581959931E+02  3.89003356167E+02  1.07895932188E-05 0.00000000000E+00  1.
</event>
<event>
 9   1   1.0000000E+00   6.2500416E+01   7.8125000E-03   1.3828923E-01
       -2   -1    0    0    0  502  0.00000000000E+00  0.00000000000E+00  1.60894360993E+00  1.60894360993E+00  0.00000000000E+00 0.00000000000E+00  1.
        2   -1    0    0  502    0  0.00000000000E+00  0.00000000000E+00 -2.42786753266E+03  2.42786753266E+03  0.00000000000E+00 0.00000000000E+00  1.
       32    2    1    2    0    0 -3.55271367880E-15  0.00000000000E+00 -2.42625858905E+03  2.42947647627E+03  1.25000831236E+02 0.00000000000E+00  1.
       23    2    3    3    0    0  1.85561929244E+01  6.30797195720E+00 -3.98038341801E+02  3.99125737129E+02  2.19706551929E+01 0.00000000000E+00  1.
       23    2    3    3    0    0 -1.85561929244E+01 -6.30797195720E+00 -2.02822024725E+03  2.03035073915E+03  9.08990086304E+01 0.00000000000E+00  1.
        4    1    4    4  803    0  4.26512785525E+00  1.28796308147E+01 -1.93974987703E+02  1.94453073220E+02  1.27500000000E+00 0.00000000000E+00  1.
       -4    1    4    4    0  803  1.42910650692E+01 -6.57165885748E+00 -2.04063354098E+02  2.04672663909E+02  1.27500000000E+00 0.00000000000E+00  1.
       14    1    5    5    0    0  3.48586535563E+01 -8.10238500328E+00 -1.10970063411E+03  1.11027756517E+03  1.52587890625E-05 0.00000000000E+00  1.
      -14    1    5    5    0    0 -5.34148464808E+01  1.79441304608E+00 -9.18519613145E+02  9.20073173978E+02  1.52587890625E-05 0.00000000000E+00  1.
</event>
<event>
 9   1   1.0000000E+00   6.2498649E+01   7.8125000E-03   1.3828989E-01
       -2   -1    0    0    0  502  0.00000000000E+00  0.00000000000E+00  4.85061830053E+00  4.85061830053E+00  0.00000000000E+00 0.00000000000E+00  1.
        2   -1    0    0  502    0  0.00000000000E+00  0.00000000000E+00 -8.05274898335E+02  8.05274898335E+02  0.00000000000E+00 0.00000000000E+00  1.
       32    2    1    2    0    0 -1.06581410364E-14  0.00000000000E+00 -8.00424280034E+02  8.10125516635E+02  1.24997298512E+02 0.00000000000E+00  1.
       23    2    3    3    0    0 -2.34046951735E+01 -5.32434866470E+00 -6.02295600373E+02  6.09193035350E+02  8.82045103489E+01 0.00000000000E+00  1.
       23    2    3    3    0    0  2.34046951735E+01  5.32434866470E+00 -1.98128679661E+02  2.00932481285E+02  2.32972076896E+01 0.00000000000E+00  1.
        2    1    4    4  804    0 -3.46860497143E+01 -4.09090449706E+01 -3.84211539571E+02  3.87937081525E+02  5.39479660939E-06 0.00000000000E+00  1.
       -2    1    4    4    0  804  1.12813545408E+01  3.55846963059E+01 -2.18084060802E+02  2.21255953925E+02  3.81469726562E-06 0.00000000000E+00  1.
        4    1    5    5  803    0  2.17692810734E+01  9.02103519335E+00 -1.92206325025E+02  1.93649626075E+02  1.27500000000E+00 0.00000000000E+00  1.
       -4    1    5    5    0  803  1.63541410009E+00 -3.69668652865E+00 -5.92235463637E+00  7.28285520993E+00  1.27500000000E+00 0.00000000000E+00  1.
</event>
<event>
 9   1   1.0000000E+00   6.2536098E+01   7.8125000E-03   1.3827591E-01
       -2   -1    0    0    0  502  0.00000000000E+00  0.00000000000E+00  2.95541827282E+01  2.95541827282E+01  0.00000000000E+00 0.00000000000E+00  1.
        2   -1    0    0  502    0  0.00000000000E+00  0.00000000000E+00 -1.32325215719E+02  1.32325215719E+02  0.00000000000E+00 0.00000000000E+00  1.
       32    2    1    2    0    0  0.00000000000E+00  1.77635683940E-15 -1.02771032991E+02  1.61879398447E+02  1.25072196829E+02 0.00000000000E+00  1.
       23    2    3    3    0    0  1.13452677725E+01 -1.09048566490E+01 -6.51725634783E+01  1.12072105040E+02  8.98056941310E+01 0.00000000000E+00  1.
       23    2    3    3    0    0 -1.13452677725E+01  1.09048566490E+01 -3.75984695127E+01  4.98072934076E+01  2.86267456678E+01 0.00000000000E+00  1.
        4    1    4    4  804    0  3.72276933895E+01  2.54872233948E+01 -4.24038008037E+01  6.19290534328E+01  1.27500000000E+00 0.00000000000E+00  1.
       -4    1    4    4    0  804 -2.58824256169E+01 -3.63920800438E+01 -2.27687626746E+01  5.01430516070E+01  1.27500000000E+00 0.00000000000E+00  1.
        2    1    5    5  803    0 -2.10054464951E+01  8.83106278902E+00 -2.63137740918E+01  3.48084927333E+01  0.00000000000E+00 0.00000000000E+00  1.
       -2    1    5    5    0  803  9.66017872261E+00  2.07379385996E+00 -1.12846954209E+01  1.49988008743E+01  0.00000000000E+00 0.00000000000E+00  1.
</event>
<event>
 9   1   1.0000000E+00   6.2499941E+01   7.8125000E-03   1.3828941E-01
       -2   -1    0    0    0  502  0.00000000000E+00  0.00000000000E+00  9.47281324221E+00  9.47281324221E+00  0.00000000000E+00 0.00000000000E+00  1.
        2   -1    0    0  502    0  0.00000000000E+00  0.00000000000E+00 -4.12363527237E+02  4.12363527237E+02  0.00000000000E+00 0.00000000000E+00  1.
       32    2    1    2    0    0 -8.88178419700E-16 -4.44089209850E-15 -4.02890713995E+02  4.21836340479E+02  1.24999882903E+02 0.00000000000E+00  1.
       23    2    3    3    0    0  2.27757174127E+00  1.95549020369E+00 -2.17930241886E+02  2.36813109316E+02  9.26166677262E+01 0.00000000000E+00  1.
       23    2    3    3    0    0 -2.27757174127E+00 -1.95549020369E+00 -1.84960472109E+02  1.85023231163E+02  3.76942332169E+00 0.00000000000E+00  1.
       11    1    4    4    0    0 -2.28063706911E+00 -3.49010044651E+01 -3.26467308811E+01  4.78444401744E+01  5.10998375227E-04 0.00000000000E+00  1.
      -11    1    4    4    0    0  4.55820881038E+00  3.68564946688E+01 -1.85283511004E+02  1.88968669142E+02  5.10998597706E-04 0.00000000000E+00  1.
        3    1    5    5  803    0 -7.64599021755E-01  9.14404033149E-02 -1.31448305034E+02  1.31450560652E+02  1.90734863281E-06 0.00000000000E+00  1.
       -3    1    5    5    0  803 -1.51297271952E+00 -2.04693060701E+00 -5.35121670751E+01  5.35726706113E+01  0.00000000000E+00 0.00000000000E+00  1.
</event>
<event>
 9   1   1.0000000E+00   6.2498809E+01   7.8125000E-03   1.3828983E-01
       -2   -1    0    0    0  502  0.00000000000E+00  0.00000000000E+00  5.44013017741E+00  5.44013017741E+00  0.00000000000E+00 0.00000000000E+00  1.
        2   -1    0    0  502    0  0.00000000000E+00  0.00000000000E+00 -7.18016121346E+02  7.18016121346E+02  0.00000000000E+00 0.00000000000E+00  1.
       32    2    1    2    0    0  3.55271367880E-15  1.77635683940E-15 -7.12575991169E+02  7.23456251524E+02  1.24997618691E+02 0.00000000000E+00  1.
       23    2    3    3    0    0 -2.03092907665E+01  1.26053204475E+01 -6.13323633926E+02  6.19959114319E+02  8.72471323332E+01 0.00000000000E+00  1.
       23    2    3    3    0    0  2.03092907665E+01 -1.26053204475E+01 -9.92523572428E+01  1.03497137204E+02  1.70078098596E+01 0.00000000000E+00  1.
        1    1    4    4  803    0 -1.87617249250E+01  8.94432643166E+00 -6.15208979322E+02  6.15559982178E+02  1.07895932188E-05 0.00000000000E+00  1.
       -1    1    4    4    0  803 -1.54756584149E+00  3.66099401580E+00  1.88534539574E+00  4.39913234154E+00  1.36415227338E-05 0.00000000000E+00  1.
        3    1    5    5  804    0  7.60707412546E+00 -1.41517830997E+01 -4.58656935883E+01  4.85983784708E+01  0.00000000000E+00 0.00000000000E+00  1.
       -3    1    5    5    0  804  1.27022166410E+01  1.54646265221E+00 -5.33866636545E+01  5.48987587335E+01  0.00000000000E+00 0.00000000000E+00  1.
</event>
<event>
 9   1   1.0000000E+00   6.2497609E+01   7.8125000E-03   1.3829028E-01
       -3   -1    0    0    0  502  0.00000000000E+00  0.00000000000E+00  2.40875276505E+01  2.40875276505E+01  0.00000000000E+00 0.00000000000E+00  1.
        3   -1    0    0  502    0  0.00000000000E+00  0.00000000000E+00 -1.62156581510E+02  1.62156581510E+02  0.00000000000E+00 0.00000000000E+00  1.
       32    2    1    2    0    0  0.00000000000E+00  8.88178419700E-16 -1.38069053860E+02  1.86244109161E+02  1.24995218162E+02 0.00000000000E+00  1.
       23    2    3    3    0    0  4.51510495920E+00 -2.82939905342E+00 -7.16638925408E+01  1.17589371230E+02  9.30760713636E+01 0.00000000000E+00  1.
       23    2    3    3    0    0 -4.51510495920E+00  2.82939905342E+00 -6.64051613190E+01  6.86547379304E+01  1.65962621906E+01 0.00000000000E+00  1.
       14    1    4    4    0    0  3.67621088283E+01 -2.06319266384E+01 -6.38727650315E+00  4.26371475590E+01  1.32745846816E-06 0.00000000000E+00  1.
      -14    1    4    4    0    0 -3.22470038691E+01  1.78025275850E+01 -6.52766160377E+01  7.49522238714E+01  1.65181236989E-06 0.00000000000E+00  1.
        4    1    5    5  803    0 -8.12275207364E+00  7.59611978438E+00 -3.89007219606E+01  4.04792777985E+01  1.27500000000E+00 0.00000000000E+00  1.
       -4    1    5    5    0  803  3.60764711444E+00 -4.76672073096E+00 -2.75044393584E+01  2.81754601320E+01  1.27500000000E+00 0.00000000000E+00  1.
</event>
<event>
 9   1   1.0000000E+00   6.2501156E+01   7.8125000E-03   1.3828895E-01
       -2   -1    0    0    0  502  0.00000000000E+00  0.00000000000E+00  4.65060087470E+01  4.65060087470E+01  0.00000000000E+00 0.00000000000E+00  1.
        2   -1    0    0  502    0  0.00000000000E+00  0.00000000000E+00 -8.39976296720E+01  8.39976296720E+01  0.00000000000E+00 0.00000000000E+00  1.
       32    2    1    2    0    0  6.66133814775E-15 -7.10542735760E-15 -3.74916209251E+01  1.30503638419E+02  1.25002311983E+02 0.00000000000E+00  1.
       23    2    3    3    0    0 -1.17783393209E+00 -1.67824560028E+01 -3.20325139477E+01  4.06352813873E+01  1.84961082760E+01 0.00000000000E+00  1.
       23    2    3    3    0    0  1.17783393209E+00  1.67824560028E+01 -5.45910697736E+00  8.98683570317E+01  8.81106215182E+01 0.00000000000E+00  1.
        5    1    4    4  803    0  5.92931887171E-01  2.17527053603E+00 -5.22339442139E+00  7.41145865597E+00  4.75000000000E+00 0.00000000000E+00  1.
       -5    1    4    4    0  803 -1.77076581926E+00 -1.89577265388E+01 -2.68091195263E+01  3.32238227313E+01  4.75000000000E+00 0.00000000000E+00  1.
        5    1    5    5  804    0 -3.55289142216E+01  4.68390704341E+00  2.19109582997E+01  4.22716846668E+01  4.75000000000E+00 0.00000000000E+00  1.
       -5    1    5    5    0  804  3.67067481537E+01  1.20985489594E+01 -2.73700652771E+01  4.75966723649E+01  4.75000000000E+00 0.00000000000E+00  1.
</event>
<event>
 9   1   1.0000000E+00   6.2494269E+01   7.8125000E-03   1.3829153E-01
       -2   -1    0    0    0  502  0.00000000000E+00  0.00000000000E+00  1.66467416358E+00  1.66467416358E+00  0.00000000000E+00 0.00000000000E+00  1.
        2   -1    0    0  502    0  0.00000000000E+00  0.00000000000E+00 -2.34612500072E+03  2.34612500072E+03  0.00000000000E+00 0.00000000000E+00  1.
       32    2    1    2    0    0  4.44089209850E-16  0.00000000000E+00 -2.34446032656E+03  2.34778967488E+03  1.24988538246E+02 0.00000000000E+00  1.
       23    2    3    3    0    0 -1.70167826968E+00  5.56895476853E+00 -1.22307701908E+03  1.22607039523E+03  8.54242968831E+01 0.00000000000E+00  1.
       23    2    3    3    0    0  1.70167826968E+00 -5.56895476853E+00 -1.12138330748E+03  1.12171927965E+03  2.68274316309E+01 0.00000000000E+00  1.
        3    1    4    4  803    0  3.53777390553E+00 -1.20176157089E+01 -2.60804899873E+01  2.89332142962E+01  4.82760828288E-06 0.00000000000E+00  1.
       -3    1    4    4    0  803 -5.23945217521E+00  1.75865704774E+01 -1.19699652909E+03  1.19713718094E+03  1.52587890625E-05 0.00000000000E+00  1.
        5    1    5    5  804    0 -1.10539698099E+01 -6.42289838559E+00 -6.24034561843E+02  6.24183579363E+02  4.74999999998E+00 0.00000000000E+00  1.
       -5    1    5    5    0  804  1.27556480796E+01  8.53943617060E-01 -4.97348745632E+02  4.97535700286E+02  4.74999999999E+00 0.00000000000E+00  1.
</event>
<event>
 9   1   1.0000000E+00   6.2499149E+01   7.8125000E-03   1.3828970E-01
       -2   -1    0    0    0  502  0.00000000000E+00  0.00000000000E+00  2.45786977481E+00  2.45786977481E+00  0.00000000000E+00 0.00000000000E+00  1.
        2   -1    0    0  502    0  0.00000000000E+00  0.00000000000E+00 -1.58923946191E+03  1.58923946191E+03  0.00000000000E+00 0.00000000000E+00  1.
       32    2    1    2    0    0  1.77635683940E-15  0.00000000000E+00 -1.58678159214E+03  1.59169733169E+03  1.24998298202E+02 0.00000000000E+00  1.
       23    2    3    3    0    0 -4.05314945199E+00  5.46860161528E+00 -5.97374871419E+02  5.97540410704E+02  1.23073879158E+01 0.00000000000E+00  1.
       23    2    3    3    0    0  4.05314945199E+00 -5.46860161528E+00 -9.89406720716E+02  9.94156920981E+02  9.68297005656E+01 0.00000000000E+00  1.
        2    1    4    4  803    0 -1.76357243986E-01  5.85881856063E+00 -5.40695573940E+02  5.40727343987E+02  0.00000000000E+00 0.00000000000E+00  1.
       -2    1    4    4    0  803 -3.87679220800E+00 -3.90216945356E-01 -5.66792974790E+01  5.68130668171E+01  7.00804636798E-06 0.00000000000E+00  1.
       14    1    5    5    0    0  1.90626851232E+01 -3.79756577538E+01 -2.29073924124E+02  2.32981542745E+02  8.09219491409E-06 0.00000000000E+00  1.
      -14    1    5    5    0    0 -1.50095356712E+01  3.25070561385E+01 -7.60332796592E+02  7.61175378236E+02  1.07895932188E-05 0.00000000000E+00  1.
</event>
<event>
 9   1   1.0000000E+00   6.2499915E+01   7.8125000E-03   1.3828942E-01
       -2   -1    0    0    0  502  0.00000000000E+00  0.00000000000E+00  1.74014439986E+02  1.74014439986E+02  0.00000000000E+00 0.00000000000E+00  1.
        2   -1    0    0  502    0  0.00000000000E+00  0.00000000000E+00 -2.24477883465E+01  2.24477883465E+01  0.00000000000E+00 0.00000000000E+00  1.
       32    2    1    2    0    0  3.55271367880E-15  1.77635683940E-15  1.51566651639E+02  1.96462228332E+02  1.24999829089E+02 0.00000000000E+00  1.
       23    2    3    3    0    0 -1.52298335418E+01  1.93183827096E+00  1.34861060730E+02  1.61089666041E+02  8.67565269886E+01 0.00000000000E+00  1.
       23    2    3    3    0    0  1.52298335418E+01 -1.93183827096E+00  1.67055909098E+01  3.53725622919E+01  2.71378253850E+01 0.00000000000E+00  1.
        5    1    4    4  803    0 -2.96236001678E+01 -3.58201866957E+01  8.21167573026E+01  9.44794569825E+01  4.75000000000E+00 0.00000000000E+00  1.
       -5    1    4    4    0  803  1.43937666259E+01  3.77520249666E+01  5.27443034270E+01  6.66102090581E+01  4.75000000000E+00 0.00000000000E+00  1.
       13    1    5    5    0    0  1.16428490346E+01 -1.42135170741E+01  1.02944955527E+01  2.10610494510E+01  1.05659999998E-01 0.00000000000E+00  1.
      -13    1    5    5    0    0  3.58698450728E+00  1.22816788032E+01  6.41109535713E+00  1.43115128408E+01  1.05659999999E-01 0.00000000000E+00  1.
</event>
<event>
 9   1   1.0000000E+00   6.2498768E+01   7.8125000E-03   1.3828985E-01
       -2   -1    0    0    0  502  0.00000000000E+00  0.00000000000E+00  4.48250444242E+02  4.48250444242E+02  0.00000000000E+00 0.00000000000E+00  1.
        2   -1    0    0  502    0  0.00000000000E+00  0.00000000000E+00 -8.71409283619E+00  8.71409283619E+00  0.00000000000E+00 0.00000000000E+00  1.
       32    2    1    2    0    0  8.88178419700E-15  1.77635683940E-15  4.39536351406E+02  4.56964537078E+02  1.24997535736E+02 0.00000000000E+00  1.
       23    2    3    3    0    0 -1.11949591726E+01  4.44080363589E+00  3.54496165894E+02  3.65746239696E+02  8.92061229411E+01 0.00000000000E+00  1.
       23    2    3    3    0    0  1.11949591726E+01 -4.44080363589E+00  8.50401855113E+01  9.12182973820E+01  3.07229031451E+01 0.00000000000E+00  1.
        2    1    4    4  803    0  2.82133572359E+01 -1.02885056750E+01  4.97604475681E+01  5.81201258546E+01  1.16800772800E-06 0.00000000000E+00  1.
       -2    1    4    4    0  803 -3.94083164086E+01  1.47293093109E+01  3.04735718326E+02  3.07626113942E+02  0.00000000000E+00 0.00000000000E+00  1.
        5    1    5    5  804    0  1.92289989955E+01 -6.11009960244E+00  3.85315068580E+01  4.37530254984E+01  4.75000000000E+00 0.00000000000E+00  1.
       -5    1    5    5    0  804 -8.03403982292E+00  1.66929596655E+00  4.65086786533E+01  4.74652718835E+01  4.75000000000E+00 0.00000000000E+00  1.
</event>
<event>
 9   1   1.0000000E+00   6.2497070E+01   7.8125000E-03   1.3829048E-01
       -2   -1    0    0    0  502  0.00000000000E+00  0.00000000000E+00  1.57285588646E+00  1.57285588646E+00  0.00000000000E+00 0.00000000000E+00  1.
        2   -1    0    0  502    0  0.00000000000E+00  0.00000000000E+00 -2.48330685765E+03  2.48330685765E+03  0.00000000000E+00 0.00000000000E+00  1.
       32    2    1    2    0    0  0.00000000000E+00  8.88178419700E-16 -2.48173400176E+03  2.48487971353E+03  1.24994140806E+02 0.00000000000E+00  1.
       23    2    3    3    0    0 -1.45431745219E+00 -1.31139665290E+00 -1.88831420135E+02  1.90333567669E+02  2.37850152621E+01 0.00000000000E+00  1.
       23    2    3    3    0    0  1.45431745219E+00  1.31139665290E+00 -2.29290258163E+03  2.29454614586E+03  8.68097452790E+01 0.00000000000E+00  1.
        2    1    4    4  803    0 -9.01129397368E+00  7.09990497322E+00 -1.23416576514E+02  1.23948632216E+02  2.69739830470E-06 0.00000000000E+00  1.
       -2    1    4    4    0  803  7.55697652149E+00 -8.41130162612E+00 -6.54148436205E+01  6.63849354529E+01  2.33601545599E-06 0.00000000000E+00  1.
        1    1    5    5  804    0  1.01247213734E+01 -9.44822653992E+00 -2.23405643591E+03  2.23409935719E+03  4.31583728752E-05 0.00000000000E+00  1.
       -1    1    5    5    0  804 -8.67040392122E+00  1.07596231928E+01 -5.88461457131E+01  6.04467886715E+01  4.57216969504E-05 0.00000000000E+00  1.
</event>
<event>
 9   1   1.0000000E+00   6.2497270E+01   7.8125000E-03   1.3829041E-01
       -2   -1    0    0    0  502  0.00000000000E+00  0.00000000000E+00  1.78425411789E+01  1.78425411789E+01  0.00000000000E+00 0.00000000000E+00  1.
        2   -1    0    0  502    0  0.00000000000E+00  0.00000000000E+00 -2.18909894706E+02  2.18909894706E+02  0.00000000000E+00 0.00000000000E+00  1.
       32    2    1    2    0    0  1.77635683940E-15  1.77635683940E-15 -2.01067353527E+02  2.36752435885E+02  1.24994540853E+02 0.00000000000E+00  1.
       23    2    3    3    0    0 -1.20055343130E+01  5.54608336555E-02 -2.01492599904E+02  2.21107020012E+02  9.02491581816E+01 0.00000000000E+00  1.
       23    2    3    3    0    0  1.20055343130E+01 -5.54608336555E-02  4.25246376595E-01  1.56454158731E+01  1.00230870152E+01 0.00000000000E+00  1.
       15    1    4    4    0    0  8.65402183610E+00 -4.26448047513E+01 -9.90049277124E+01  1.08160085964E+02  1.77680000000E+00 0.00000000000E+00  1.
      -15    1    4    4    0    0 -2.06595561491E+01  4.27002655849E+01 -1.02487672191E+02  1.12946934048E+02  1.77680000000E+00 0.00000000000E+00  1.
        3    1    5    5  804    0  6.82870752247E+00 -2.90959423616E+00 -3.83870823051E+00  8.35659415824E+00  0.00000000000E+00 0.00000000000E+00  1.
       -3    1    5    5    0  804  5.17682679057E+00  2.85413340251E+00  4.26395460711E+00  7.28882171481E+00  0.00000000000E+00 0.00000000000E+00  1.
</event>
<event>
 9   1   1.0000000E+00   6.2499614E+01   7.8125000E-03   1.3828953E-01
        1   -1    0    0  501    0  0.00000000000E+00  0.00000000000E+00  8.02169069269E+02  8.02169069269E+02  0.00000000000E+00 0.00000000000E+00  1.
       -1   -1    0    0    0  501  0.00000000000E+00  0.00000000000E+00 -4.86954921157E+00  4.86954921157E+00  0.00000000000E+00 0.00000000000E+00  1.
       32    2    1    2    0    0 -3.55271367880E-15  1.77635683940E-15  7.97299520058E+02  8.07038618481E+02  1.24999228139E+02 0.00000000000E+00  1.
       23    2    3    3    0    0 -1.45306454918E+01  5.07601951756E+00  3.37931115372E+02  3.38548330687E+02  1.34397857836E+01 0.00000000000E+00  1.
       23    2    3    3    0    0  1.45306454918E+01 -5.07601951756E+00  4.59368404686E+02  4.68490287794E+02  9.07023312877E+01 0.00000000000E+00  1.
        5    1    4    4  803    0 -4.35775107478E+00 -2.45092376049E+00  1.07112973474E+02  1.07334750236E+02  4.75000000000E+00 0.00000000000E+00  1.
       -5    1    4    4    0  803 -1.01728944170E+01  7.52694327804E+00  2.30818141898E+02  2.31213580451E+02  4.75000000000E+00 0.00000000000E+00  1.
        4    1    5    5  804    0  3.86219774921E+01 -2.91352180968E+01  1.59174901076E+02  1.66369446824E+02  1.27500000001E+00 0.00000000000E+00  1.
       -4    1    5    5    0  804 -2.40913320003E+01  2.40591985793E+01  3.00193503610E+02  3.02120840970E+02  1.27500000001E+00 0.00000000000E+00  1.
</event>
<event>
 9   1   1.0000000E+00   6.2499263E+01   7.8125000E-03   1.3828966E-01
       -2   -1    0    0    0  502  0.00000000000E+00  0.00000000000E+00  2.33162591828E+00  2.33162591828E+00  0.00000000000E+00 0.00000000000E+00  1.
        2   -1    0    0  502    0  0.00000000000E+00  0.00000000000E+00 -1.67529356024E+03  1.67529356024E+03  0.00000000000E+00 0.00000000000E+00  1.
       32    2    1    2    0    0  3.55271367880E-15 -1.77635683940E-15 -1.67296193432E+03  1.67762518615E+03  1.24998526164E+02 0.00000000000E+00  1.
       23    2    3    3    0    0  9.11709816267E+00  1.45682703387E+01 -1.47541452875E+03  1.47829142919E+03  9.05657880883E+01 0.00000000000E+00  1.
       23    2    3    3    0    0 -9.11709816267E+00 -1.45682703387E+01 -1.97547405565E+02  1.99333756968E+02  2.03374836660E+01 0.00000000000E+00  1.
       12    1    4    4    0    0  4.70810484218E+01  1.67210880201E+01 -6.10310510667E+02  6.12352136712E+02  1.07895932188E-05 0.00000000000E+00  1.
      -12    1    4    4    0    0 -3.79639502591E+01 -2.15281768145E+00 -8.65104018086E+02  8.65939292475E+02  1.07895932188E-05 0.00000000000E+00  1.
       13    1    5    5    0    0 -9.80809540578E-01  4.20620572213E-01 -2.12059215816E-02  1.07262423400E+00  1.05659999976E-01 0.00000000000E+00  1.
      -13    1    5    5    0    0 -8.13628862210E+00 -1.49888909109E+01 -1.97526199643E+02  1.98261132734E+02  1.05659999952E-01 0.00000000000E+00  1.
</event>
<event>
 9   1   1.0000000E+00   6.2500306E+01   7.8125000E-03   1.3828927E-01
       -2   -1    0    0    0  502  0.00000000000E+00  0.00000000000E+00  4.89676901208E+00  4.89676901208E+00  0.00000000000E+00 0.00000000000E+00  1.
        2   -1    0    0  502    0  0.00000000000E+00  0.00000000000E+00 -7.97727684529E+02  7.97727684529E+02  0.00000000000E+00 0.00000000000E+00  1.
       32    2    1    2    0    0  0.00000000000E+00  1.77635683940E-15 -7.92830915517E+02  8.02624453541E+02  1.25000611289E+02 0.00000000000E+00  1.
       23    2    3    3    0    0  9.13197515281E+00  7.10216618524E+00 -7.36987952510E+02  7.42840167803E+02  9.23387189770E+01 0.00000000000E+00  1.
       23    2    3    3    0    0 -9.13197515281E+00 -7.10216618524E+00 -5.58429630071E+01  5.97842857381E+01  1.79413090124E+01 0.00000000000E+00  1.
        1    1    4    4  804    0 -1.49301055975E+00 -2.13428324250E+01 -6.55972533572E+02  6.56321346885E+02  1.07895932188E-05 0.00000000000E+00  1.
       -1    1    4    4    0  804  1.06249857126E+01  2.84449986102E+01 -8.10154189380E+01  8.65188209179E+01  8.58306884766E-06 0.00000000000E+00  1.
        3    1    5    5  803    0 -6.31914894096E-01  4.73898924806E+00 -5.10533398673E+00  6.99441005672E+00  0.00000000000E+00 0.00000000000E+00  1.
       -3    1    5    5    0  803 -8.50006025871E+00 -1.18411554333E+01 -5.07376290204E+01  5.27898758814E+01  0.00000000000E+00 0.00000000000E+00  1.
</event>
<event>
 9   1   1.0000000E+00   6.2504827E+01   7.8125000E-03   1.3828758E-01
       -2   -1    0    0    0  502  0.00000000000E+00  0.00000000000E+00  9.19415216754E+01  9.19415216754E+01  0.00000000000E+00 0.00000000000E+00  1.
        2   -1    0    0  502    0  0.00000000000E+00  0.00000000000E+00 -4.24928071879E+01  4.24928071879E+01  0.00000000000E+00 0.00000000000E+00  1.
       32    2    1    2    0    0  1.77635683940E-15 -8.88178419700E-15  4.94487144874E+01  1.34434328863E+02  1.25009653277E+02 0.00000000000E+00  1.
       23    2    3    3    0    0  1.46731136545E+01  5.30547397712E+00  5.32989150854E-01  2.95417433060E+01  2.50795175728E+01 0.00000000000E+00  1.
       23    2    3    3    0    0 -1.46731136545E+01 -5.30547397712E+00  4.89157253366E+01  1.04892585557E+02  9.14672509768E+01 0.00000000000E+00  1.
        3    1    4    4  804    0  2.00002572546E+01 -2.07842978974E+00 -1.66009947706E+00  2.01763746731E+01  0.00000000000E+00 0.00000000000E+00  1.
       -3    1    4    4    0  804 -5.32714360008E+00  7.38390376686E+00  2.19308862791E+00  9.36536883294E+00  0.00000000000E+00 0.00000000000E+00  1.
       16    1    5    5    0    0  6.40383498417E+00 -4.62735993017E+01  2.42885881907E+01  5.26515965728E+01  0.00000000000E+00 0.00000000000E+00  1.
      -16    1    5    5    0    0 -2.10769486387E+01  4.09681253246E+01  2.46271371459E+01  5.22409890845E+01  1.11828226085E-06 0.00000000000E+00  1.
</event>
<event>
 9   1   1.0000000E+00   6.2500686E+01   7.8125000E-03   1.3828913E-01
       -2   -1    0    0    0  502  0.00000000000E+00  0.00000000000E+00  1.61378654272E+02  1.61378654272E+02  0.00000000000E+00 0.00000000000E+00  1.
        2   -1    0    0  502    0  0.00000000000E+00  0.00000000000E+00 -2.42060254151E+01  2.42060254151E+01  0.00000000000E+00 0.00000000000E+00  1.
       32    2    1    2    0    0  7.10542735760E-15  0.00000000000E+00  1.37172628857E+02  1.85584679687E+02  1.25001372901E+02 0.00000000000E+00  1.
       23    2    3    3    0    0 -2.54059058297E+01  1.39681133993E+01  3.13656940557E+01  4.42749914430E+01  1.16576095627E+01 0.00000000000E+00  1.
       23    2    3    3    0    0  2.54059058297E+01 -1.39681133993E+01  1.05806934801E+02  1.41309688244E+02  8.90659996668E+01 0.00000000000E+00  1.
       16    1    4    4    0    0 -1.49207751408E+01  2.70740717111E+00  1.09223063203E+01  1.86884017440E+01  0.00000000000E+00 0.00000000000E+00  1.
      -16    1    4    4    0    0 -1.04851306890E+01  1.12607062282E+01  2.04433877355E+01  2.55865897990E+01  0.00000000000E+00 0.00000000000E+00  1.
        4    1    5    5  804    0  3.83385839616E+01 -4.37967195899E+01  8.37616398295E+01  1.02008027130E+02  1.27500000000E+00 0.00000000000E+00  1.
       -4    1    5    5    0  804 -1.29326781318E+01  2.98286061906E+01  2.20452949715E+01  3.93016611140E+01  1.27500000000E+00 0.00000000000E+00  1.
</event>
<event>
 9   1   1.0000000E+00   6.2494693E+01   7.8125000E-03   1.3829137E-01
       -2   -1    0    0    0  502  0.00000000000E+00  0.00000000000E+00  4.40438495802E+00  4.40438495802E+00  0.00000000000E+00 0.00000000000E+00  1.
        2   -1    0    0  502    0  0.00000000000E+00  0.00000000000E+00 -8.86749625826E+02  8.86749625826E+02  0.00000000000E+00 0.00000000000E+00  1.
       32    2    1    2    0    0 -3.55271367880E-15 -7.10542735760E-15 -8.82345240868E+02  8.91154010784E+02  1.24989386966E+02 0.00000000000E+00  1.
       23    2    3    3    0    0  3.95041234879E+00 -1.81413089417E+01 -5.53006548929E+02  5.60531418111E+02  8.96354543858E+01 0.00000000000E+00  1.
       23    2    3    3    0    0 -3.95041234879E+00  1.81413089417E+01 -3.29338691939E+02  3.30622592674E+02  2.24190082324E+01 0.00000000000E+00  1.
        2    1    4    4  803    0 -5.29500548175E+00 -3.97806054431E+01 -1.13331876354E+02  1.20227483856E+02  7.00804636798E-06 0.00000000000E+00  1.
       -2    1    4    4    0  803  9.24541783054E+00  2.16392965014E+01 -4.39674672575E+02  4.40303934454E+02  5.39479660939E-06 0.00000000000E+00  1.
        2    1    5    5  804    0 -4.41868221856E+00  1.06923008108E+01 -3.03682607326E+02  3.03902905715E+02  5.39479660939E-06 0.00000000000E+00  1.
       -2    1    5    5    0  804  4.68269869770E-01  7.44900813096E+00 -2.56560846133E+01  2.67196871582E+01  3.72421726032E-06 0.00000000000E+00  1.
</event>
<event>
 9   1   1.0000000E+00   6.2498024E+01   7.8125000E-03   1.3829012E-01
       -2   -1    0    0    0  502  0.00000000000E+00  0.00000000000E+00  1.40711857165E+00  1.40711857165E+00  0.00000000000E+00 0.00000000000E+00  1.
        2   -1    0    0  502    0  0.00000000000E+00  0.00000000000E+00 -2.77588758325E+03  2.77588758325E+03  0.00000000000E+00 0.00000000000E+00  1.
       32    2    1    2    0    0 -1.77635683940E-15  1.42108547152E-14 -2.77448046468E+03  2.77729470182E+03  1.24996047476E+02 0.00000000000E+00  1.
       23    2    3    3    0    0  2.76254072393E+01 -5.02512358148E+00 -6.51657322195E+02  6.52461122035E+02  1.61194045948E+01 0.00000000000E+00  1.
       23    2    3    3    0    0 -2.76254072393E+01  5.02512358148E+00 -2.12282314248E+03  2.12483357978E+03  8.80410843552E+01 0.00000000000E+00  1.
        2    1    5    5  804    0 -3.65215531925E+01  3.65238919340E+01 -8.35888558516E+02  8.37482836215E+02  1.07895932188E-05 0.00000000000E+00  1.
       -2    1    4    4    0  803  2.71471035102E+01 -9.01598611722E-01 -6.08132018020E+02  6.08738309597E+02  1.07895932188E-05 0.00000000000E+00  1.
        2    1    4    4  803    0  4.78303729107E-01 -4.12352496976E+00 -4.35253041752E+01  4.37228126373E+01  1.88154408044E-05 0.00000000000E+00  1.
       -2    1    5    5    0  804  8.89614595319E+00 -3.14987683525E+01 -1.28693458396E+03  1.28735074377E+03  1.52587890625E-05 0.00000000000E+00  1.
</event>
<event>
 9   1   1.0000000E+00   6.2501287E+01   7.8125000E-03   1.3828891E-01
        1   -1    0    0  501    0  0.00000000000E+00  0.00000000000E+00  1.26319711361E+01  1.26319711361E+01  0.00000000000E+00 0.00000000000E+00  1.
       -1   -1    0    0    0  501  0.00000000000E+00  0.00000000000E+00 -3.09247927105E+02  3.09247927105E+02  0.00000000000E+00 0.00000000000E+00  1.
       32    2    1    2    0    0 -1.77635683940E-15  3.55271367880E-15 -2.96615955968E+02  3.21879898241E+02  1.25002574199E+02 0.00000000000E+00  1.
       23    2    3    3    0    0  1.40607432674E+01 -8.88463383628E+00 -1.35565905057E+02  1.58807508329E+02  8.10251125765E+01 0.00000000000E+00  1.
       23    2    3    3    0    0 -1.40607432674E+01  8.88463383628E+00 -1.61050050912E+02  1.63072389912E+02  1.94639213253E+01 0.00000000000E+00  1.
       14    1    4    4    0    0  3.11543887079E+00  8.63332969910E+00  8.95189880111E+00  1.28209528974E+01  2.57061226998E-06 0.00000000000E+00  1.
      -14    1    4    4    0    0  1.09453043966E+01 -1.75179635354E+01 -1.44517803858E+02  1.45986555431E+02  1.90734863281E-06 0.00000000000E+00  1.
        3    1    5    5  803    0 -8.42485172945E+00  1.50446572670E+01 -1.10653410536E+02  1.11988825891E+02  3.01578298585E-06 0.00000000000E+00  1.
       -3    1    5    5    0  803 -5.63589153797E+00 -6.16002343071E+00 -5.03966403761E+01  5.10835642209E+01  1.90734863281E-06 0.00000000000E+00  1.
</event>
<event>
 9   1   1.0000000E+00   6.2498916E+01   7.8125000E-03   1.3828979E-01
        1   -1    0    0  501    0  0.00000000000E+00  0.00000000000E+00  6.21744245967E+01  6.21744245967E+01  0.00000000000E+00 0.00000000000E+00  1.
       -1   -1    0    0    0  501  0.00000000000E+00  0.00000000000E+00 -6.28251003868E+01  6.28251003868E+01  0.00000000000E+00 0.00000000000E+00  1.
       32    2    1    2    0    0  7.99360577730E-15  0.00000000000E+00 -6.50675790108E-01  1.24999524984E+02  1.24997831450E+02 0.00000000000E+00  1.
       23    2    3    3    0    0 -4.87271346925E+00  1.43418333451E+01 -9.06409269675E+00  9.30745437198E+01  9.13853456085E+01 0.00000000000E+00  1.
       23    2    3    3    0    0  4.87271346925E+00 -1.43418333451E+01  8.41341690664E+00  3.19249812638E+01  2.68139389944E+01 0.00000000000E+00  1.
        4    1    4    4  803    0 -2.62175282763E+01  2.04631838999E+01 -4.18408007891E+01  5.34638094407E+01  1.27500000000E+00 0.00000000000E+00  1.
       -4    1    4    4    0  803  2.13448148070E+01 -6.12135055483E+00  3.27767080923E+01  3.96107342791E+01  1.27500000000E+00 0.00000000000E+00  1.
        2    1    5    5  804    0  5.78431421123E+00 -2.21698925197E+01  6.05293640631E+00  2.36981109873E+01  0.00000000000E+00 0.00000000000E+00  1.
       -2    1    5    5    0  804 -9.11600741976E-01  7.82805917457E+00  2.36048050034E+00  8.22687027647E+00  0.00000000000E+00 0.00000000000E+00  1.
</event>
<event>
 9   1   1.0000000E+00   6.2499514E+01   7.8125000E-03   1.3828957E-01
        1   -1    0    0  501    0  0.00000000000E+00  0.00000000000E+00  9.60404094017E+02  9.60404094017E+02  0.00000000000E+00 0.00000000000E+00  1.
       -1   -1    0    0    0  501  0.00000000000E+00  0.00000000000E+00 -4.06723512115E+00  4.06723512115E+00  0.00000000000E+00 0.00000000000E+00  1.
       32    2    1    2    0    0 -3.55271367880E-15  3.55271367880E-15  9.56336858896E+02  9.64471329139E+02  1.24999028183E+02 0.00000000000E+00  1.
       23    2    3    3    0    0 -1.68295895395E+01 -5.62721408132E+00  3.67191868295E+02  3.68107207359E+02  1.89247812586E+01 0.00000000000E+00  1.
       23    2    3    3    0    0  1.68295895395E+01  5.62721408132E+00  5.89144990601E+02  5.96364121779E+02  9.07934203140E+01 0.00000000000E+00  1.
       16    1    4    4    0    0 -1.08394660235E+01  5.44574037531E+00  1.24660246638E+02  1.25249060690E+02  2.69739830470E-06 0.00000000000E+00  1.
      -16    1    4    4    0    0 -5.99012351596E+00 -1.10729544566E+01  2.42531621657E+02  2.42858146669E+02  2.69739830470E-06 0.00000000000E+00  1.
        4    1    5    5  804    0  3.01913806466E+01  4.31334577705E+01  3.39823541004E+02  3.43880326989E+02  1.27499999999E+00 0.00000000000E+00  1.
       -4    1    5    5    0  804 -1.33617911071E+01 -3.75062436892E+01  2.49321449597E+02  2.52483794790E+02  1.27500000000E+00 0.00000000000E+00  1.
</event>
<event>
 9   1   1.0000000E+00   6.2502036E+01   7.8125000E-03   1.3828863E-01
        1   -1    0    0  501    0  0.00000000000E+00  0.00000000000E+00  6.66424582923E+02  6.66424582923E+02  0.00000000000E+00 0.00000000000E+00  1.
       -1   -1    0    0    0  501  0.00000000000E+00  0.00000000000E+00 -5.86188536012E+00  5.86188536012E+00  0.00000000000E+00 0.00000000000E+00  1.
       32    2    1    2    0    0  3.55271367880E-15  0.00000000000E+00  6.60562697563E+02  6.72286468283E+02  1.25004072034E+02 0.00000000000E+00  1.
       23    2    3    3    0    0 -2.45065265247E+00 -9.44432028779E+00  3.27215578585E+02  3.27447784364E+02  7.53762113314E+00 0.00000000000E+00  1.
       23    2    3    3    0    0  2.45065265247E+00  9.44432028779E+00  3.33347118978E+02  3.44838683919E+02  8.77394740798E+01 0.00000000000E+00  1.
       12    1    4    4    0    0 -4.77435988806E+00 -4.10326394091E+00  1.39714827224E+02  1.39856584619E+02  3.81469726562E-06 0.00000000000E+00  1.
      -12    1    4    4    0    0  2.32370723559E+00 -5.34105634688E+00  1.87500751361E+02  1.87591199845E+02  0.00000000000E+00 0.00000000000E+00  1.
        1    1    5    5  804    0 -3.94304820288E+01  8.33511045561E+00  1.00988486141E+02  1.08733211635E+02  1.90734863281E-06 0.00000000000E+00  1.
       -1    1    5    5    0  804  4.18811346813E+01  1.10920983218E+00  2.32358632838E+02  2.36105472285E+02  0.00000000000E+00 0.00000000000E+00  1.
</event>
<event>
 9   1   1.0000000E+00   6.2500850E+01   7.8125000E-03   1.3828907E-01
        1   -1    0    0  501    0  0.00000000000E+00  0.00000000000E+00  1.75665997820E+02  1.75665997820E+02  0.00000000000E+00 0.00000000000E+00  1.
       -1   -1    0    0    0  501  0.00000000000E+00  0.00000000000E+00 -2.22374066342E+01  2.22374066342E+01  0.00000000000E+00 0.00000000000E+00  1.
       32    2    1    2    0    0  1.77635683940E-15  7.10542735760E-15  1.53428591186E+02  1.97903404454E+02  1.25001699594E+02 0.00000000000E+00  1.
       23    2    3    3    0    0  5.42223806399E+00 -2.76028920542E+01  4.35899383115E+01  5.28499059018E+01  1.00851136064E+01 0.00000000000E+00  1.
       23    2    3    3    0    0 -5.42223806399E+00  2.76028920542E+01  1.09838652875E+02  1.45053498553E+02  9.04691519893E+01 0.00000000000E+00  1.
        3    1    4    4  804    0 -1.20583723393E+00 -1.67886790280E+01  2.88766575950E+01  3.34241700091E+01  0.00000000000E+00 0.00000000000E+00  1.
       -3    1    4    4    0  804  6.62807529791E+00 -1.08142130263E+01  1.47132807165E+01  1.94257359928E+01  0.00000000000E+00 0.00000000000E+00  1.
        5    1    5    5  803    0 -3.16521603152E+01  2.98341761079E+01  1.09914729952E+02  1.18303624954E+02  4.75000000000E+00 0.00000000000E+00  1.
       -5    1    5    5    0  803  2.62299222512E+01 -2.23128405375E+00 -7.60770779091E-02  2.67498735989E+01  4.75000000000E+00 0.00000000000E+00  1.
</event>
<event>
 9   1   1.0000000E+00   6.2500969E+01   7.8125000E-03   1.3828902E-01
        1   -1    0    0  501    0  0.00000000000E+00  0.00000000000E+00  6.35456721728E+01  6.35456721728E+01  0.00000000000E+00 0.00000000000E+00  1.
       -1   -1    0    0    0  501  0.00000000000E+00  0.00000000000E+00 -6.14734409096E+01  6.14734409096E+01  0.00000000000E+00 0.00000000000E+00  1.
       32    2    1    2    0    0  8.88178419700E-16 -3.55271367880E-15  2.07223126324E+00  1.25019113082E+02  1.25001937959E+02 0.00000000000E+00  1.
       23    2    3    3    0    0  4.47097041414E+00 -2.55485909341E-01 -7.39805777916E+00  9.06461730223E+01  9.02327134425E+01 0.00000000000E+00  1.
       23    2    3    3    0    0 -4.47097041414E+00  2.55485909341E-01  9.47028904239E+00  3.43729400600E+01  3.27377119593E+01 0.00000000000E+00  1.
        3    1    4    4  804    0 -6.12406765052E+00  4.39032569587E+01 -8.88433373966E+00  4.52098613376E+01  0.00000000000E+00 0.00000000000E+00  1.
       -3    1    4    4    0  804  1.05950380647E+01 -4.41587428680E+01  1.48627596050E+00  4.54363116847E+01  1.62470497733E-06 0.00000000000E+00  1.
       14    1    5    5    0    0 -1.07721702583E+00  1.06437813799E+01 -8.28002118579E+00  1.35280904834E+01  0.00000000000E+00 0.00000000000E+00  1.
      -14    1    5    5    0    0 -3.39375338831E+00 -1.03882954706E+01  1.77503102282E+01  2.08448497766E+01  0.00000000000E+00 0.00000000000E+00  1.
</event>
<event>
 9   1   1.0000000E+00   6.2500146E+01   7.8125000E-03   1.3828933E-01
        1   -1    0    0  501    0  0.00000000000E+00  0.00000000000E+00  5.73797055180E+02  5.73797055180E+02  0.00000000000E+00 0.00000000000E+00  1.
       -1   -1    0    0    0  501  0.00000000000E+00  0.00000000000E+00 -6.80775234922E+00  6.80775234922E+00  0.00000000000E+00 0.00000000000E+00  1.
       32    2    1    2    0    0  1.77635683940E-15  7.10542735760E-15  5.66989302831E+02  5.80604807530E+02  1.25000292006E+02 0.00000000000E+00  1.
       23    2    3    3    0    0  7.89349340258E+00  1.67496631526E+01  1.92961355646E+02  1.95310890461E+02  2.38621186452E+01 0.00000000000E+00  1.
       23    2    3    3    0    0 -7.89349340258E+00 -1.67496631526E+01  3.74027947186E+02  3.85293917069E+02  9.06180931186E+01 0.00000000000E+00  1.
        2    1    4    4  803    0  1.01923257556E+01  5.65158788125E+00  1.60599342572E+02  1.61021653254E+02  3.30362473978E-06 0.00000000000E+00  1.
       -2    1    4    4    0  803 -2.29883235300E+00  1.10980752713E+01  3.23620130734E+01  3.42892374067E+01  2.47771855483E-06 0.00000000000E+00  1.
        3    1    5    5  804    0  2.86124168510E+01 -2.61072712239E+01  8.02485160922E+01  8.91071509129E+01  5.95569419708E-06 0.00000000000E+00  1.
       -3    1    5    5    0  804 -3.65059102536E+01  9.35760807135E+00  2.93779431093E+02  2.96186766156E+02  5.39479660939E-06 0.00000000000E+00  1.
</event>
<event>
 9   1   1.0000000E+00   6.2488194E+01   7.8125000E-03   1.3829379E-01
        1   -1    0    0  501    0  0.00000000000E+00  0.00000000000E+00  1.65940666111E+02  1.65940666111E+02  0.00000000000E+00 0.00000000000E+00  1.
       -1   -1    0    0    0  501  0.00000000000E+00  0.00000000000E+00 -2.35311482116E+01  2.35311482116E+01  0.00000000000E+00 0.00000000000E+00  1.
       32    2    1    2    0    0 -3.55271367880E-15 -3.55271367880E-15  1.42409517899E+02  1.89471814322E+02  1.24976388307E+02 0.00000000000E+00  1.
       23    2    3    3    0    0  2.22014275438E+01 -1.82513238358E+01  9.09537757723E+01  1.29325656890E+02  8.73299604717E+01 0.00000000000E+00  1.
       23    2    3    3    0    0 -2.22014275438E+01  1.82513238358E+01  5.14557421266E+01  6.01461574325E+01  1.19938588179E+01 0.00000000000E+00  1.
       13    1    4    4    0    0  4.16527690574E+01 -1.28164568143E+01  8.45761308853E+00  4.43932102760E+01  1.05660000011E-01 0.00000000000E+00  1.
      -13    1    4    4    0    0 -1.94513415135E+01 -5.43486702147E+00  8.24961626838E+01  8.49324466137E+01  1.05660000017E-01 0.00000000000E+00  1.
       14    1    5    5    0    0 -8.60037767381E+00  1.39416649695E+01  3.27701139668E+01  3.66362782996E+01  0.00000000000E+00 0.00000000000E+00  1.
      -14    1    5    5    0    0 -1.36010498700E+01  4.30965886630E+00  1.86856281599E+01  2.35098791328E+01  0.00000000000E+00 0.00000000000E+00  1.
</event>
<event>
 9   1   1.0000000E+00   6.2499682E+01   7.8125000E-03   1.3828950E-01
        1   -1    0    0  501    0  0.00000000000E+00  0.00000000000E+00  8.68647136242E+00  8.68647136242E+00  0.00000000000E+00 0.00000000000E+00  1.
       -1   -1    0    0    0  501  0.00000000000E+00  0.00000000000E+00 -4.49688961393E+02  4.49688961393E+02  0.00000000000E+00 0.00000000000E+00  1.
       32    2    1    2    0    0 -3.55271367880E-15  3.55271367880E-15 -4.41002490030E+02  4.58375432755E+02  1.24999364560E+02 0.00000000000E+00  1.
       23    2    3    3    0    0  2.36545788136E+01 -4.28661397754E+00 -1.17876186275E+02  1.22108836397E+02  2.09250681526E+01 0.00000000000E+00  1.
       23    2    3    3    0    0 -2.36545788136E+01  4.28661397754E+00 -3.23126303755E+02  3.36266596358E+02  8.99260890378E+01 0.00000000000E+00  1.
       13    1    4    4    0    0  2.34822195192E+01  1.55898220431E+00 -1.08763302383E+02  1.11280331453E+02  1.05659999987E-01 0.00000000000E+00  1.
      -13    1    4    4    0    0  1.72359294478E-01 -5.84559618185E+00 -9.11288389242E+00  1.08285049439E+01  1.05660000009E-01 0.00000000000E+00  1.
        3    1    5    5  803    0 -6.50553589605E-01  3.24930863446E+01 -4.35970932818E+01  5.43776647420E+01  4.54873657902E-06 0.00000000000E+00  1.
       -3    1    5    5    0  803 -2.30040252240E+01 -2.82064723670E+01 -2.79529210473E+02  2.81888931616E+02  5.39479660939E-06 0.00000000000E+00  1.
</event>
</LesHouchesEvents>
