<LesHouchesEvents version="1.0">
<!--
Output from the JHUGenerator v7.4.0 described in arXiv:1001.3396 [hep-ph], arXiv:1208.4018 [hep-ph], arXiv:1309.4819 [hep-ph], arXiv:1606.03107 [hep-ph]
   
   Command line: ./JHUGen Seed=765543533 PDFSet=3 Process=110 VegasNc0=100000 VegasNc2=100 DataFile=compare_to_reference/tqH_110 TopDK=1 DecayMode1=11 ghg2=0.383432074687728,0.918260989345657 ghg3=6294.49296087723,2253.12941717723 ghg4=0.335495485382528,0.17285803562226 ghz1=0.154934976270359,0.453918144016304 ghz2=0.469297059144414,0.745302300947002 ghz3=3947.40921062637,3597.4885961919 ghz4=0.177791270766536,0.920170534486048 ghzgs2=0.0240331049939919,0.232175381101053 ghzgs3=0.331962910170583,0.0450183240308457 ghzgs4=0.808286540247172,0.133184346613754 ghgsgs2=0.530394804029869,0.211218112389125 ghgsgs3=0.914978695198138,0.055650585081425 ghgsgs4=0.694524307167701,0.511424456076726 ghz1_prime=0.143354267833606,0.0910761280837012 ghz1_prime2=7416.7007267243,4861.35525489789 ghz1_prime3=4431.44656075298,4436.48625894176 ghz1_prime4=2441.69123517064,6946.16318931911 ghz1_prime5=78314042.889773,69465359.939181 ghz1_prime6=51233058.8130761,29537873.5850789 ghz1_prime7=47832192.9001564,59559649.9633293 g
   
   Input Parameter:
    Collider: P-P, sqrt(s)=13000.00
    Resonance: spin=0, mass= 125.00 width=   0.00407
    DecayMode1:11
    W boson: mass=80.399, width=2.0850
    Top quark mass=173.2000, width=2.0000
    Top quark decay= 1
    Random seed:   765543533
    To reproduce results using this seed, JHUGen should be compiled with the same compiler:
      GNU Fortran (GCC) 6.3.0
    
    WidthScheme:   2
    PDFSet:   3
    Unweighted: T
    
    
    LHE output: compare_to_reference/tqH_110.lhe
    Histogram output: compare_to_reference/tqH_110.dat
    Log file: compare_to_reference/tqH_110.log
    
-->
<init>
2212 2212   6500.0000000000000000    6500.0000000000000000 0 0  263000  263000  3  1
 3.4599565E+10  4.8254023E+08  1.0000000E+00 110
</init>
<event>
 9 110   1.0000000E+00   3.1250000E+01   7.8125000E-03   1.5660620E-01
        2   -1    0    0  502    0  0.00000000000E+00  0.00000000000E+00  2.56836924339E+03  2.56836924339E+03  0.00000000000E+00 0.00000000000E+00  1.
        5   -1    0    0  501    0  0.00000000000E+00  0.00000000000E+00 -3.74682678070E+02  3.74682678070E+02  0.00000000000E+00 0.00000000000E+00  1.
       25    1    1    2    0    0 -8.37345354025E+00  1.86423094364E+02 -1.16571747106E+02  2.53056628168E+02  1.25000000000E+02 0.00000000000E+00  1.
        6    2    1    2  501    0  8.06630329692E+01  5.86353643251E+01 -1.28033913892E+02  2.38353310377E+02  1.74570864189E+02 0.00000000000E+00  1.
        1    1    1    2  502    0 -7.22895794290E+01 -2.45058458689E+02  2.43829222632E+03  2.45164198292E+03  3.05175781250E-05 0.00000000000E+00  1.
        5    1    4    4  501    0  3.40702338882E+00 -3.19457210292E+01  1.40403110724E+01  3.53812059638E+01  4.75000000000E+00 0.00000000000E+00  1.
       24    2    4    4    0    0  7.72560095804E+01  9.05810853543E+01 -1.42074224964E+02  2.02972104413E+02  8.26992486691E+01 0.00000000000E+00  1.
       -1    1    7    7    0  703  4.29085086847E+01  2.63792882869E+01 -1.14543675114E+02  1.25128975368E+02  1.90734863281E-06 0.00000000000E+00  1.
        2    1    7    7  703    0  3.43475008957E+01  6.42017970674E+01 -2.75305498505E+01  7.78431290451E+01  1.93692169300E-06 0.00000000000E+00  1.
</event>
<event>
 9 110   1.0000000E+00   3.1250000E+01   7.8125000E-03   1.5660620E-01
        2   -1    0    0  502    0  0.00000000000E+00  0.00000000000E+00  2.24023721025E+03  2.24023721025E+03  0.00000000000E+00 0.00000000000E+00  1.
        5   -1    0    0  501    0  0.00000000000E+00  0.00000000000E+00 -2.85595197554E+02  2.85595197554E+02  0.00000000000E+00 0.00000000000E+00  1.
       25    1    1    2    0    0  3.82396818189E+02  5.72042846997E+01  1.32477344358E+03  1.38569453112E+03  1.25000000000E+02 0.00000000000E+00  1.
        6    2    1    2  501    0 -2.82052583297E+02 -2.73135305143E+02 -3.79283758983E+01  4.31161198062E+02  1.74082918048E+02 0.00000000000E+00  1.
        1    1    1    2  502    0 -1.00344234892E+02  2.15931020444E+02  6.67796945011E+02  7.08976678624E+02  7.62939453125E-06 0.00000000000E+00  1.
        5    1    4    4  501    0 -3.88879507549E+00 -6.01168850505E+01  2.64703178118E+01  6.59727430108E+01  4.75000000000E+00 0.00000000000E+00  1.
       24    2    4    4    0    0 -2.78163788221E+02 -2.13018420093E+02 -6.43986937101E+01  3.65188455052E+02  8.03957435125E+01 0.00000000000E+00  1.
       -3    1    7    7    0  703  5.51491681876E+00 -3.07545203957E+00  5.77752965874E-01  6.34086045069E+00  6.03501627457E-06 0.00000000000E+00  1.
        4    1    7    7  703    0 -2.83678705040E+02 -2.09942968053E+02 -6.49764466759E+01  3.58847594601E+02  5.22348935609E-06 0.00000000000E+00  1.
</event>
<event>
 9 110   1.0000000E+00   3.1250000E+01   7.8125000E-03   1.5660620E-01
        2   -1    0    0  502    0  0.00000000000E+00  0.00000000000E+00  1.67408793015E+03  1.67408793015E+03  0.00000000000E+00 0.00000000000E+00  1.
        5   -1    0    0  501    0  0.00000000000E+00  0.00000000000E+00 -2.50178750020E+02  2.50178750020E+02  0.00000000000E+00 0.00000000000E+00  1.
       25    1    1    2    0    0 -7.52581286653E+00  2.80766618404E+02  1.52603808736E+03  1.55669643024E+03  1.25000000000E+02 0.00000000000E+00  1.
        6    2    1    2  501    0  1.37551552609E+01 -2.63095528477E+02 -1.24361825319E+02  3.38494920646E+02  1.72349894998E+02 0.00000000000E+00  1.
        1    1    1    2  502    0 -6.22934239441E+00 -1.76710899273E+01  2.22329180896E+01  2.90753292787E+01  1.03924249257E-06 0.00000000000E+00  1.
        5    1    4    4  501    0 -3.84793896553E+01 -1.87047641532E+02 -6.72463804487E+01  2.02514497788E+02  4.75000000000E+00 0.00000000000E+00  1.
       24    2    4    4    0    0  5.22345449162E+01 -7.60478869450E+01 -5.71154448700E+01  1.35980422858E+02  8.19559184353E+01 0.00000000000E+00  1.
      -13    1    7    7    0    0  5.10757592335E+00 -1.99916342778E+01  2.06271609451E+01  2.91760810528E+01  1.05660000002E-01 0.00000000000E+00  1.
       14    1    7    7    0    0  4.71269689929E+01 -5.60562526672E+01 -7.77426058151E+01  1.06804341805E+02  2.33601545599E-06 0.00000000000E+00  1.
</event>
<event>
 9 110   1.0000000E+00   3.1250000E+01   7.8125000E-03   1.5660620E-01
        5   -1    0    0  501    0  0.00000000000E+00  0.00000000000E+00  2.63442161910E+02  2.63442161910E+02  0.00000000000E+00 0.00000000000E+00  1.
        2   -1    0    0  502    0  0.00000000000E+00  0.00000000000E+00 -2.66585006058E+03  2.66585006058E+03  0.00000000000E+00 0.00000000000E+00  1.
       25    1    1    2    0    0 -3.99159082281E+01 -4.55175854190E+02 -9.67205351282E+02  1.07698167557E+03  1.25000000000E+02 0.00000000000E+00  1.
        6    2    1    2  501    0  2.28446281847E+02  3.61478766374E+02 -6.60209920131E+01  4.67037657694E+02  1.75814675408E+02 0.00000000000E+00  1.
        1    1    1    2  502    0 -1.88530373618E+02  9.36970878165E+01 -1.36918155538E+03  1.38527288923E+03  0.00000000000E+00 0.00000000000E+00  1.
        5    1    4    4  501    0  6.38328563173E+01  1.53998291944E+02 -8.49168847752E+01  1.87145791530E+02  4.75000000000E+00 0.00000000000E+00  1.
       24    2    4    4    0    0  1.64613425529E+02  2.07480474430E+02  1.88958927620E+01  2.79891866164E+02  8.85249956081E+01 0.00000000000E+00  1.
       -3    1    7    7    0  703  6.51840551970E+01  2.77902265809E+01  2.29567674341E+01  7.44867163752E+01  3.42195036278E-06 0.00000000000E+00  1.
        4    1    7    7  703    0  9.94293703323E+01  1.79690247849E+02 -4.06087467208E+00  2.05405149789E+02  3.33519812430E-06 0.00000000000E+00  1.
</event>
<event>
 9 110   1.0000000E+00   3.1250000E+01   7.8125000E-03   1.5660620E-01
        5   -1    0    0  501    0  0.00000000000E+00  0.00000000000E+00  5.48421605450E+02  5.48421605450E+02  0.00000000000E+00 0.00000000000E+00  1.
        2   -1    0    0  502    0  0.00000000000E+00  0.00000000000E+00 -2.95169886307E+03  2.95169886307E+03  0.00000000000E+00 0.00000000000E+00  1.
       25    1    1    2    0    0 -6.45231141820E+02  7.41795726439E+02 -1.13150157462E+03  1.50416253759E+03  1.25000000000E+02 0.00000000000E+00  1.
        6    2    1    2  501    0  7.48674605207E+02 -7.58413104189E+02 -4.53850670922E+02  1.17135013764E+03  1.74288876203E+02 0.00000000000E+00  1.
        1    1    1    2  502    0 -1.03443463388E+02  1.66173777503E+01 -8.17925012077E+02  8.24607793282E+02  0.00000000000E+00 0.00000000000E+00  1.
        5    1    4    4  501    0  1.22136143336E+01 -4.74653624053E+01 -1.54902197723E+00  4.92655556393E+01  4.75000000002E+00 0.00000000000E+00  1.
       24    2    4    4    0    0  7.36460990874E+02 -7.10947741784E+02 -4.52301648945E+02  1.12208458200E+03  8.17040078731E+01 0.00000000000E+00  1.
       -1    1    7    7    0  703  1.23926156526E+01 -1.77287405964E+01 -2.31187503670E+01  3.16600976686E+01  8.44957597097E-06 0.00000000000E+00  1.
        2    1    7    7  703    0  7.24068375221E+02 -6.93219001188E+02 -4.29182898578E+02  1.09042448433E+03  2.01854805837E-05 0.00000000000E+00  1.
</event>
<event>
 9 110   1.0000000E+00   3.1250000E+01   7.8125000E-03   1.5660620E-01
        5   -1    0    0  501    0  0.00000000000E+00  0.00000000000E+00  2.72084063337E+01  2.72084063337E+01  0.00000000000E+00 0.00000000000E+00  1.
        2   -1    0    0  502    0  0.00000000000E+00  0.00000000000E+00 -2.24469099584E+03  2.24469099584E+03  0.00000000000E+00 0.00000000000E+00  1.
       25    1    1    2    0    0 -1.45901447086E+02  1.68787911013E+01 -7.17635685726E+02  7.43100331905E+02  1.25000000000E+02 0.00000000000E+00  1.
        6    2    1    2  501    0  3.63665676947E+01  1.11036633802E+01 -7.55836498388E+02  7.76248480012E+02  1.72705158695E+02 0.00000000000E+00  1.
        1    1    1    2  502    0  1.09534879391E+02 -2.79824544815E+01 -7.44010405397E+02  7.52550590260E+02  1.07895932188E-05 0.00000000000E+00  1.
        5    1    4    4  501    0 -1.36248197258E+01  6.01982754399E+01 -3.86813127324E+02  3.91735147834E+02  4.75000000000E+00 0.00000000000E+00  1.
       24    2    4    4    0    0  4.99913874205E+01 -4.90946120596E+01 -3.69023371064E+02  3.84513332178E+02  8.22364547021E+01 0.00000000000E+00  1.
       -3    1    7    7    0  703 -9.94252006934E+00 -4.69214815817E+01 -1.55735448618E+02  1.62954009142E+02  1.90734863281E-06 0.00000000000E+00  1.
        4    1    7    7  703    0  5.99339074898E+01 -2.17313047790E+00 -2.13287922446E+02  2.21559323036E+02  2.69739830470E-06 0.00000000000E+00  1.
</event>
<event>
 9 110   1.0000000E+00   3.1250000E+01   7.8125000E-03   1.5660620E-01
        2   -1    0    0  502    0  0.00000000000E+00  0.00000000000E+00  1.95429252891E+03  1.95429252891E+03  0.00000000000E+00 0.00000000000E+00  1.
        5   -1    0    0  501    0  0.00000000000E+00  0.00000000000E+00 -1.99549010255E+02  1.99549010255E+02  0.00000000000E+00 0.00000000000E+00  1.
       25    1    1    2    0    0  3.24066572287E+02 -2.60592552892E+01  4.84908811321E+01  3.51673987683E+02  1.25000000000E+02 0.00000000000E+00  1.
        6    2    1    2  501    0 -1.15513623924E+02  4.38621034524E+01  1.47508531632E+03  1.49031886371E+03  1.72934506911E+02 0.00000000000E+00  1.
        1    1    1    2  502    0 -2.08552948362E+02 -1.78028481632E+01  2.31167321208E+02  3.11848687777E+02  4.67203091199E-06 0.00000000000E+00  1.
        5    1    4    4  501    0 -1.36336520812E+01  4.99753897329E+01  1.49081782998E+02  1.57896664214E+02  4.75000000004E+00 0.00000000000E+00  1.
       24    2    4    4    0    0 -1.01879971843E+02 -6.11328628054E+00  1.32600353332E+03  1.33242219949E+03  8.15269673185E+01 0.00000000000E+00  1.
       -1    1    7    7    0  703  1.14919306187E+01  6.71791520319E+00  7.05509897652E+01  7.17958007886E+01  1.72454274369E-05 0.00000000000E+00  1.
        2    1    7    7  703    0 -1.13371902462E+02 -1.28312014837E+01  1.25545254355E+03  1.26062639870E+03  2.64289979182E-05 0.00000000000E+00  1.
</event>
<event>
 9 110   1.0000000E+00   3.1250000E+01   7.8125000E-03   1.5660620E-01
        5   -1    0    0  501    0  0.00000000000E+00  0.00000000000E+00  1.53809946577E+02  1.53809946577E+02  0.00000000000E+00 0.00000000000E+00  1.
        2   -1    0    0  502    0  0.00000000000E+00  0.00000000000E+00 -7.61121187538E+02  7.61121187538E+02  0.00000000000E+00 0.00000000000E+00  1.
       25    1    1    2    0    0 -5.02206105447E+01 -1.31532431457E+02 -1.04437058555E+02  2.15302088815E+02  1.25000000000E+02 0.00000000000E+00  1.
        6    2    1    2  501    0  1.50372373317E+02  1.06523218507E+02 -7.86150182287E+01  2.62992268668E+02  1.70368910163E+02 0.00000000000E+00  1.
        1    1    1    2  502    0 -1.00151762772E+02  2.50092129495E+01 -4.24259164178E+02  4.36636776632E+02  1.07895932188E-05 0.00000000000E+00  1.
        5    1    4    4  501    0  5.65964589424E+01  1.01538251400E+02 -7.53896312505E+01  1.38633815003E+02  4.75000000000E+00 0.00000000000E+00  1.
       24    2    4    4    0    0  9.37759143744E+01  4.98496710697E+00 -3.22538697818E+00  1.24358453665E+02  8.14607258933E+01 0.00000000000E+00  1.
       -1    1    7    7    0  703  2.51295351070E+00  2.76188155347E+01 -1.13816932029E+01  2.99776057591E+01  8.08516738787E-07 0.00000000000E+00  1.
        2    1    7    7  703    0  9.12629608637E+01 -2.26338484277E+01  8.15630622467E+00  9.43808479062E+01  1.19209289551E-06 0.00000000000E+00  1.
</event>
<event>
 9 110   1.0000000E+00   3.1250000E+01   7.8125000E-03   1.5660620E-01
        2   -1    0    0  502    0  0.00000000000E+00  0.00000000000E+00  1.53279484981E+03  1.53279484981E+03  0.00000000000E+00 0.00000000000E+00  1.
        5   -1    0    0  501    0  0.00000000000E+00  0.00000000000E+00 -2.11874634694E+02  2.11874634694E+02  0.00000000000E+00 0.00000000000E+00  1.
       25    1    1    2    0    0 -2.61834240267E+02  1.99761871103E+02  1.01644412850E+03  1.07575352237E+03  1.25000000000E+02 0.00000000000E+00  1.
        6    2    1    2  501    0  2.64649372963E+02 -1.82412507933E+02  2.06932756886E+00  3.65998855832E+02  1.75035044188E+02 0.00000000000E+00  1.
        1    1    1    2  502    0 -2.81513269598E+00 -1.73493631695E+01  3.02406759045E+02  3.02917106303E+02  0.00000000000E+00 0.00000000000E+00  1.
        5    1    4    4  501    0  7.79040916241E+01 -6.63219449071E+01  6.81912404748E+01  1.23045746150E+02  4.75000000000E+00 0.00000000000E+00  1.
       24    2    4    4    0    0  1.86745281338E+02 -1.16090563026E+02 -6.61219129059E+01  2.42953109683E+02  7.93932441218E+01 0.00000000000E+00  1.
      -13    1    7    7    0    0  2.14697961539E+00 -1.58697489737E+01 -2.37938475980E+01  2.86812970681E+01  1.05659999945E-01 0.00000000000E+00  1.
       14    1    7    7    0    0  1.84598301723E+02 -1.00220814053E+02 -4.23280653079E+01  2.14271812615E+02  2.33601545599E-06 0.00000000000E+00  1.
</event>
<event>
 9 110   1.0000000E+00   3.1250000E+01   7.8125000E-03   1.5660620E-01
        2   -1    0    0  502    0  0.00000000000E+00  0.00000000000E+00  7.95936578480E+02  7.95936578480E+02  0.00000000000E+00 0.00000000000E+00  1.
        5   -1    0    0  501    0  0.00000000000E+00  0.00000000000E+00 -1.13940335434E+02  1.13940335434E+02  0.00000000000E+00 0.00000000000E+00  1.
       25    1    1    2    0    0 -1.62104643434E+02 -2.46301165372E+01  4.11903405749E+02  4.60623461985E+02  1.25000000000E+02 0.00000000000E+00  1.
        6    2    1    2  501    0  8.03573697138E+01  9.11564758239E+00  2.93128829578E+01  1.94502000670E+02  1.74445926462E+02 0.00000000000E+00  1.
        1    1    1    2  502    0  8.17472737199E+01  1.55144689549E+01  2.40779954338E+02  2.54751451259E+02  0.00000000000E+00 0.00000000000E+00  1.
        5    1    4    4  501    0  9.24887451057E+01 -2.46174529181E+01 -1.27169210885E+01  9.66667964783E+01  4.75000000000E+00 0.00000000000E+00  1.
       24    2    4    4    0    0 -1.21313753919E+01  3.37331005005E+01  4.20298040463E+01  9.78352041913E+01  8.07473244926E+01 0.00000000000E+00  1.
       -3    1    7    7    0  703 -3.25911557733E+01  4.82624137085E+01  1.33872268136E+01  5.97550152989E+01  6.30796268240E-07 0.00000000000E+00  1.
        4    1    7    7  703    0  2.04597803814E+01 -1.45293132080E+01  2.86425772327E+01  3.80801888925E+01  0.00000000000E+00 0.00000000000E+00  1.
</event>
<event>
 9 110   1.0000000E+00   3.1250000E+01   7.8125000E-03   1.5660620E-01
        5   -1    0    0  501    0  0.00000000000E+00  0.00000000000E+00  3.02740450603E+02  3.02740450603E+02  0.00000000000E+00 0.00000000000E+00  1.
        2   -1    0    0  502    0  0.00000000000E+00  0.00000000000E+00 -5.17487011241E+02  5.17487011241E+02  0.00000000000E+00 0.00000000000E+00  1.
       25    1    1    2    0    0  9.31995625674E+01 -9.83920069571E+01  4.82339646351E+00  1.84432672402E+02  1.25000000000E+02 0.00000000000E+00  1.
        6    2    1    2  501    0 -1.50951222431E+02  1.12330098588E+02  1.25556644847E+02  2.85592139556E+02  1.74338970138E+02 0.00000000000E+00  1.
        1    1    1    2  502    0  5.77516598638E+01 -1.39380916307E+01 -3.45126601948E+02  3.50202649886E+02  6.60724947956E-06 0.00000000000E+00  1.
        5    1    4    4  501    0 -7.29745967519E+01  1.03606758689E+02  1.18469611565E+02  1.73543261412E+02  4.75000000000E+00 0.00000000000E+00  1.
       24    2    4    4    0    0 -7.79766256793E+01  8.72333989842E+00  7.08703328234E+00  1.12048878144E+02  7.96760581436E+01 0.00000000000E+00  1.
       -3    1    7    7    0  703 -8.14984881427E+01 -1.72772399175E+01  1.49877485136E+01  8.46471452219E+01  1.44041132612E-06 0.00000000000E+00  1.
        4    1    7    7  703    0  3.52186246334E+00  2.60005798159E+01 -7.90071523126E+00  2.74017329222E+01  1.23598822077E-06 0.00000000000E+00  1.
</event>
<event>
 9 110   1.0000000E+00   3.1250000E+01   7.8125000E-03   1.5660620E-01
        2   -1    0    0  502    0  0.00000000000E+00  0.00000000000E+00  5.14729228723E+02  5.14729228723E+02  0.00000000000E+00 0.00000000000E+00  1.
        5   -1    0    0  501    0  0.00000000000E+00  0.00000000000E+00 -6.23230620361E+02  6.23230620361E+02  0.00000000000E+00 0.00000000000E+00  1.
       25    1    1    2    0    0 -4.01950244766E+02 -5.39020251402E+00  2.15512621249E+02  4.72931013435E+02  1.25000000000E+02 0.00000000000E+00  1.
        6    2    1    2  501    0  3.95570167074E+02 -1.13599126560E+02 -3.13402790911E+02  5.45397051175E+02  1.72789222596E+02 0.00000000000E+00  1.
        1    1    1    2  502    0  6.38007769217E+00  1.18989329074E+02 -1.06112219755E+01  1.19631784475E+02  5.24249873812E-06 0.00000000000E+00  1.
        5    1    4    4  501    0  3.12778341146E+02 -7.28928993433E+01 -2.03900456453E+02  3.80449239856E+02  4.75000000000E+00 0.00000000000E+00  1.
       24    2    4    4    0    0  8.27918259279E+01 -4.07062272166E+01 -1.09502334457E+02  1.64947811319E+02  8.18873362168E+01 0.00000000000E+00  1.
       -1    1    7    7    0  703  3.04925605931E+01  9.40390463794E+00  2.01447739325E+00  3.19732355750E+01  2.40754073007E-06 0.00000000000E+00  1.
        2    1    7    7  703    0  5.22992653348E+01 -5.01101318545E+01 -1.11516811850E+02  1.32974575744E+02  2.33601545599E-06 0.00000000000E+00  1.
</event>
<event>
 9 110   1.0000000E+00   3.1250000E+01   7.8125000E-03   1.5660620E-01
        5   -1    0    0  501    0  0.00000000000E+00  0.00000000000E+00  5.30856058288E+01  5.30856058288E+01  0.00000000000E+00 0.00000000000E+00  1.
        2   -1    0    0  502    0  0.00000000000E+00  0.00000000000E+00 -1.74512051637E+03  1.74512051637E+03  0.00000000000E+00 0.00000000000E+00  1.
       25    1    1    2    0    0  3.28355031257E+01  3.34946896672E+01 -3.00700361390E+02  3.29007251959E+02  1.25000000000E+02 0.00000000000E+00  1.
        6    2    1    2  501    0 -1.58655777271E+02 -1.33207307032E+02 -5.56937844028E+02  6.19498211791E+02  1.75164008842E+02 0.00000000000E+00  1.
        1    1    1    2  502    0  1.25820274146E+02  9.97126173652E+01 -8.34396705122E+02  8.49700658448E+02  0.00000000000E+00 0.00000000000E+00  1.
        5    1    4    4  501    0 -1.07968647657E+02 -3.32385262224E+00 -1.72286078633E+02  2.03404356551E+02  4.75000000000E+00 0.00000000000E+00  1.
       24    2    4    4    0    0 -5.06871296142E+01 -1.29883454410E+02 -3.84651765394E+02  4.16093855240E+02  7.57510323971E+01 0.00000000000E+00  1.
       -1    1    7    7    0  703 -2.19700097221E+01 -6.79351483048E+01 -2.94334699095E+02  3.02870897898E+02  6.60724947956E-06 0.00000000000E+00  1.
        2    1    7    7  703    0 -2.87171198922E+01 -6.19483061054E+01 -9.03170662996E+01  1.13222957342E+02  1.34869915235E-06 0.00000000000E+00  1.
</event>
<event>
 9 110   1.0000000E+00   3.1250000E+01   7.8125000E-03   1.5660620E-01
        5   -1    0    0  501    0  0.00000000000E+00  0.00000000000E+00  5.62902321021E+02  5.62902321021E+02  0.00000000000E+00 0.00000000000E+00  1.
        2   -1    0    0  502    0  0.00000000000E+00  0.00000000000E+00 -4.53988447139E+02  4.53988447139E+02  0.00000000000E+00 0.00000000000E+00  1.
       25    1    1    2    0    0  2.70755468086E+02  1.06214156669E+02  3.21373475401E+02  4.51105177610E+02  1.25000000000E+02 0.00000000000E+00  1.
        6    2    1    2  501    0 -1.59449312855E+02 -1.38544910438E+02  5.13943243069E+01  2.77596014048E+02  1.72625012284E+02 0.00000000000E+00  1.
        1    1    1    2  502    0 -1.11306155230E+02  3.23307537686E+01 -2.63853925826E+02  2.88189576503E+02  3.81469726562E-06 0.00000000000E+00  1.
        5    1    4    4  501    0 -3.17100566710E+00  2.89891944440E+01  7.55055788679E+00  3.04959357269E+01  4.75000000000E+00 0.00000000000E+00  1.
       24    2    4    4    0    0 -1.56278307188E+02 -1.67534104882E+02  4.38437664201E+01  2.47100078321E+02  8.15204713929E+01 0.00000000000E+00  1.
      -11    1    7    7    0    0  6.22542043750E+00 -2.87845217055E+01  6.94981205678E+00  3.02589563158E+01  5.10994314953E-04 0.00000000000E+00  1.
       12    1    7    7    0    0 -1.62503727626E+02 -1.38749583176E+02  3.68939543633E+01  2.16841122005E+02  4.31794411570E-06 0.00000000000E+00  1.
</event>
<event>
 9 110   1.0000000E+00   3.1250000E+01   7.8125000E-03   1.5660620E-01
        5   -1    0    0  501    0  0.00000000000E+00  0.00000000000E+00  1.61468267074E+02  1.61468267074E+02  0.00000000000E+00 0.00000000000E+00  1.
        2   -1    0    0  502    0  0.00000000000E+00  0.00000000000E+00 -1.42455228064E+03  1.42455228064E+03  0.00000000000E+00 0.00000000000E+00  1.
       25    1    1    2    0    0  3.15963366621E+01  4.04928554168E+02 -8.11406034769E+02  9.15953173328E+02  1.25000000000E+02 0.00000000000E+00  1.
        6    2    1    2  501    0  5.32068800132E+01 -2.01631110306E+02 -2.06934257654E+02  3.40794045255E+02  1.72721502906E+02 0.00000000000E+00  1.
        1    1    1    2  502    0 -8.48032166753E+01 -2.03297443861E+02 -2.44743721147E+02  3.29273329135E+02  7.13664510112E-06 0.00000000000E+00  1.
        5    1    4    4  501    0 -3.94889234601E+01 -9.24379990164E+01 -1.15200437036E+02  1.52963596752E+02  4.75000000000E+00 0.00000000000E+00  1.
       24    2    4    4    0    0  9.26958034733E+01 -1.09193111290E+02 -9.17338206186E+01  1.87830448502E+02  7.96839758328E+01 0.00000000000E+00  1.
      -15    1    7    7    0    0  6.08325502254E+01 -2.80577632944E+01 -7.21859628705E+01  9.84977537905E+01  1.77680000000E+00 0.00000000000E+00  1.
       16    1    7    7    0    0  3.18632532480E+01 -8.11353479957E+01 -1.95478577481E+01  8.93326947118E+01  1.76815950563E-06 0.00000000000E+00  1.
</event>
<event>
 9 110   1.0000000E+00   3.1250000E+01   7.8125000E-03   1.5660620E-01
        5   -1    0    0  501    0  0.00000000000E+00  0.00000000000E+00  2.03671357614E+02  2.03671357614E+02  0.00000000000E+00 0.00000000000E+00  1.
        2   -1    0    0  502    0  0.00000000000E+00  0.00000000000E+00 -2.82874169845E+03  2.82874169845E+03  0.00000000000E+00 0.00000000000E+00  1.
       25    1    1    2    0    0  6.32095753736E+02  1.23006510656E+02 -6.47161262397E+02  9.21476176090E+02  1.25000000000E+02 0.00000000000E+00  1.
        6    2    1    2  501    0 -4.76364236782E+02 -2.15411893699E+01 -1.06842885092E+03  1.18265793426E+03  1.72489625997E+02 0.00000000000E+00  1.
        1    1    1    2  502    0 -1.55731516953E+02 -1.01465321286E+02 -9.09480227521E+02  9.28278945710E+02  1.86881236479E-05 0.00000000000E+00  1.
        5    1    4    4  501    0 -1.06646278254E+02  5.61016629640E+01 -2.61186812661E+02  2.87683747996E+02  4.74999999999E+00 0.00000000000E+00  1.
       24    2    4    4    0    0 -3.69717958528E+02 -7.76428523338E+01 -8.07242038254E+02  8.94974186265E+02  8.13591075342E+01 0.00000000000E+00  1.
      -11    1    7    7    0    0 -3.67209754807E+01  7.00465566315E+00 -4.25519913452E+01  5.66406851028E+01  5.11197233512E-04 0.00000000000E+00  1.
       12    1    7    7    0    0 -3.32996983048E+02 -8.46475079970E+01 -7.64690046909E+02  8.38333501162E+02  1.52587890625E-05 0.00000000000E+00  1.
</event>
<event>
 9 110   1.0000000E+00   3.1250000E+01   7.8125000E-03   1.5660620E-01
        5   -1    0    0  501    0  0.00000000000E+00  0.00000000000E+00  3.17139132004E+01  3.17139132004E+01  0.00000000000E+00 0.00000000000E+00  1.
        2   -1    0    0  502    0  0.00000000000E+00  0.00000000000E+00 -1.75104957973E+03  1.75104957973E+03  0.00000000000E+00 0.00000000000E+00  1.
       25    1    1    2    0    0 -7.78885923952E+01 -5.99074731705E+01 -3.11720681784E+02  3.49929023688E+02  1.25000000000E+02 0.00000000000E+00  1.
        6    2    1    2  501    0  9.61429870801E+01  8.36117078359E+00 -8.70806621714E+02  8.93248087988E+02  1.73995951481E+02 0.00000000000E+00  1.
        1    1    1    2  502    0 -1.82543946849E+01  5.15463023869E+01 -5.36808363028E+02  5.39586381251E+02  1.07895932188E-05 0.00000000000E+00  1.
        5    1    4    4  501    0  1.39235477076E+01 -1.31783427828E+01 -5.73669883091E+02  5.74009783161E+02  4.74999999999E+00 0.00000000000E+00  1.
       24    2    4    4    0    0  8.22194393725E+01  2.15395135664E+01 -2.97136738623E+02  3.19238304827E+02  7.99929182726E+01 0.00000000000E+00  1.
       -1    1    7    7    0  703 -1.24768729202E+00  6.50639433503E+00 -1.44263894222E+02  1.44415930793E+02  1.90734863281E-06 0.00000000000E+00  1.
        2    1    7    7  703    0  8.34671266645E+01  1.50331192313E+01 -1.52872844402E+02  1.74822374034E+02  0.00000000000E+00 0.00000000000E+00  1.
</event>
<event>
 9 110   1.0000000E+00   3.1250000E+01   7.8125000E-03   1.5660620E-01
        2   -1    0    0  502    0  0.00000000000E+00  0.00000000000E+00  1.25644722498E+03  1.25644722498E+03  0.00000000000E+00 0.00000000000E+00  1.
        5   -1    0    0  501    0  0.00000000000E+00  0.00000000000E+00 -1.57627150221E+02  1.57627150221E+02  0.00000000000E+00 0.00000000000E+00  1.
       25    1    1    2    0    0 -2.17974270144E+02 -3.31178387683E+01  2.34042179104E+02  3.44978717154E+02  1.25000000000E+02 0.00000000000E+00  1.
        6    2    1    2  501    0  2.28157102106E+02  1.03778313658E+02  1.30880262771E+02  3.31733922988E+02  1.73470893381E+02 0.00000000000E+00  1.
        1    1    1    2  502    0 -1.01828319621E+01 -7.06604748892E+01  7.33897632881E+02  7.37361735057E+02  1.07895932188E-05 0.00000000000E+00  1.
        5    1    4    4  501    0  1.58598088809E+02  2.55696583139E+01  2.46997291688E+01  1.62603198988E+02  4.75000000000E+00 0.00000000000E+00  1.
       24    2    4    4    0    0  6.95590132977E+01  7.82086553437E+01  1.06180533602E+02  1.69130724000E+02  7.98488946884E+01 0.00000000000E+00  1.
       -3    1    7    7    0  703  5.21322058300E+01  9.06865520618E+01  1.04133996192E+02  1.47599819690E+02  1.90734863281E-06 0.00000000000E+00  1.
        4    1    7    7  703    0  1.74268074676E+01 -1.24778967181E+01  2.04653741012E+00  2.15309043097E+01  2.09741453051E-06 0.00000000000E+00  1.
</event>
<event>
 9 110   1.0000000E+00   3.1250000E+01   7.8125000E-03   1.5660620E-01
        5   -1    0    0  501    0  0.00000000000E+00  0.00000000000E+00  5.93555588228E+01  5.93555588228E+01  0.00000000000E+00 0.00000000000E+00  1.
        2   -1    0    0  502    0  0.00000000000E+00  0.00000000000E+00 -2.55425777183E+03  2.55425777183E+03  0.00000000000E+00 0.00000000000E+00  1.
       25    1    1    2    0    0  1.58514183064E+02  1.02052267591E+02 -1.39585876118E+03  1.41406792366E+03  1.25000000000E+02 0.00000000000E+00  1.
        6    2    1    2  501    0 -1.58245815115E+02  4.07564656525E+01 -2.77701542854E+02  3.65880643588E+02  1.73342640325E+02 0.00000000000E+00  1.
        1    1    1    2  502    0 -2.68367949073E-01 -1.42808733244E+02 -8.21341908971E+02  8.33664763406E+02  0.00000000000E+00 0.00000000000E+00  1.
        5    1    4    4  501    0 -4.49368595962E+01  1.24633572425E+01  8.08954951315E+00  4.75674251505E+01  4.75000000000E+00 0.00000000000E+00  1.
       24    2    4    4    0    0 -1.13308955519E+02  2.82931084101E+01 -2.85791092367E+02  3.18313218437E+02  7.75070136913E+01 0.00000000000E+00  1.
      -13    1    7    7    0    0 -7.00048096539E+01  4.82002627638E+01 -1.29367359735E+02  1.54789740080E+02  1.05660000090E-01 0.00000000000E+00  1.
       14    1    7    7    0    0 -4.33041458647E+01 -1.99071543537E+01 -1.56423732632E+02  1.63523478358E+02  1.90734863281E-06 0.00000000000E+00  1.
</event>
<event>
 9 110   1.0000000E+00   3.1250000E+01   7.8125000E-03   1.5660620E-01
        2   -1    0    0  502    0  0.00000000000E+00  0.00000000000E+00  1.38295844289E+03  1.38295844289E+03  0.00000000000E+00 0.00000000000E+00  1.
        5   -1    0    0  501    0  0.00000000000E+00  0.00000000000E+00 -6.41740813198E+02  6.41740813198E+02  0.00000000000E+00 0.00000000000E+00  1.
       25    1    1    2    0    0 -4.23217864989E+02 -5.89635515580E+02  7.62770764579E+02  1.06029601611E+03  1.25000000000E+02 0.00000000000E+00  1.
        6    2    1    2  501    0  5.65897068723E+02  5.66223015437E+02 -3.05246322359E+01  8.19537826214E+02  1.72807696076E+02 0.00000000000E+00  1.
        1    1    1    2  502    0 -1.42679203734E+02  2.34125001435E+01  8.97149734975E+00  1.44865413767E+02  3.35272815476E-06 0.00000000000E+00  1.
        5    1    4    4  501    0  2.24621247617E+02  2.88094759292E+02  3.66299808028E+01  3.67175180542E+02  4.75000000000E+00 0.00000000000E+00  1.
       24    2    4    4    0    0  3.41275821107E+02  2.78128256144E+02 -6.71546130387E+01  4.52362645672E+02  7.93581010935E+01 0.00000000000E+00  1.
       -1    1    7    7    0  703  2.22765701967E+02  2.27732097418E+02 -4.75849026167E+01  3.22103693124E+02  4.57366134959E-06 0.00000000000E+00  1.
        2    1    7    7  703    0  1.18510119140E+02  5.03961587266E+01 -1.95697104221E+01  1.30258952548E+02  4.73847554072E-06 0.00000000000E+00  1.
</event>
<event>
 9 110   1.0000000E+00   3.1250000E+01   7.8125000E-03   1.5660620E-01
        2   -1    0    0  502    0  0.00000000000E+00  0.00000000000E+00  1.32434319197E+03  1.32434319197E+03  0.00000000000E+00 0.00000000000E+00  1.
        5   -1    0    0  501    0  0.00000000000E+00  0.00000000000E+00 -4.51428092529E+02  4.51428092529E+02  0.00000000000E+00 0.00000000000E+00  1.
       25    1    1    2    0    0 -1.44806065956E+02  2.05436262149E+02 -3.08473332102E+02  4.17077512174E+02  1.25000000000E+02 0.00000000000E+00  1.
        6    2    1    2  501    0  3.02061711329E+02 -2.20290451597E+02  4.49865920246E+02  6.10312071934E+02  1.74161759390E+02 0.00000000000E+00  1.
        1    1    1    2  502    0 -1.57255645373E+02  1.48541894481E+01  7.31522511299E+02  7.48381700393E+02  1.52587890625E-05 0.00000000000E+00  1.
        5    1    4    4  501    0  8.46614939675E+01  9.74793109880E+00  1.02943774774E+02  1.33725741674E+02  4.75000000000E+00 0.00000000000E+00  1.
       24    2    4    4    0    0  2.17400217361E+02 -2.30038382696E+02  3.46922145473E+02  4.76586330260E+02  8.12344948261E+01 0.00000000000E+00  1.
       -3    1    7    7    0  703  6.60943141570E+01 -1.27806471573E+02  1.62726600780E+02  2.17216249717E+02  1.90734863281E-06 0.00000000000E+00  1.
        4    1    7    7  703    0  1.51305903204E+02 -1.02231911123E+02  1.84195544693E+02  2.59370080543E+02  5.39479660939E-06 0.00000000000E+00  1.
</event>
<event>
 9 110   1.0000000E+00   3.1250000E+01   7.8125000E-03   1.5660620E-01
        5   -1    0    0  501    0  0.00000000000E+00  0.00000000000E+00  1.07296471250E+03  1.07296471250E+03  0.00000000000E+00 0.00000000000E+00  1.
        2   -1    0    0  502    0  0.00000000000E+00  0.00000000000E+00 -1.19351985299E+03  1.19351985299E+03  0.00000000000E+00 0.00000000000E+00  1.
       25    1    1    2    0    0 -4.37651661017E+02  4.30130594333E+02 -5.37374816087E+01  6.28541185207E+02  1.25000000000E+02 0.00000000000E+00  1.
        6    2    1    2  501    0  4.68085393268E+01 -1.66754885178E+02  6.98295299781E+02  7.39320573166E+02  1.70236168676E+02 0.00000000000E+00  1.
        1    1    1    2  502    0  3.90843121690E+02 -2.63375709155E+02 -7.65112958663E+02  8.98622807111E+02  0.00000000000E+00 0.00000000000E+00  1.
        5    1    4    4  501    0 -1.16370098397E+01 -1.19448358045E+02  2.47265467193E+02  2.74892895514E+02  4.75000000000E+00 0.00000000000E+00  1.
       24    2    4    4    0    0  5.84455491665E+01 -4.73065271328E+01  4.51029832588E+02  4.64427677652E+02  8.13103201222E+01 0.00000000000E+00  1.
       -1    1    7    7    0  703  7.87632682739E+01 -3.74309761458E+01  3.31276059047E+02  3.42561757501E+02  3.81469726562E-06 0.00000000000E+00  1.
        2    1    7    7  703    0 -2.03177191074E+01 -9.87555098700E+00  1.19753773541E+02  1.21865920151E+02  1.90734863281E-06 0.00000000000E+00  1.
</event>
<event>
 9 110   1.0000000E+00   3.1250000E+01   7.8125000E-03   1.5660620E-01
       -3   -1    0    0    0  502  0.00000000000E+00  0.00000000000E+00  4.58668616908E+02  4.58668616908E+02  0.00000000000E+00 0.00000000000E+00  1.
        5   -1    0    0  501    0  0.00000000000E+00  0.00000000000E+00 -5.92192938506E+02  5.92192938506E+02  0.00000000000E+00 0.00000000000E+00  1.
       25    1    1    2    0    0  1.52996694021E+02 -1.28829918679E+02 -3.04086082602E+02  3.84835655781E+02  1.25000000000E+02 0.00000000000E+00  1.
        6    2    1    2  501    0  5.71307626257E+00 -3.90117390715E+00 -1.83269467924E+02  2.56144364691E+02  1.78813811802E+02 0.00000000000E+00  1.
       -4    1    1    2    0  502 -1.58709770283E+02  1.32731092586E+02  3.53831228928E+02  4.09881534943E+02  9.34406182397E-06 0.00000000000E+00  1.
        5    1    4    4  501    0 -1.82104531114E+01  3.53342093645E+01  1.05292261877E+01  4.13950970291E+01  4.75000000000E+00 0.00000000000E+00  1.
       24    2    4    4    0    0  2.39235293739E+01 -3.92353832717E+01 -1.93798694112E+02  2.14749267661E+02  8.02967219973E+01 0.00000000000E+00  1.
       -3    1    7    7    0  703 -1.97828165439E+01 -3.96191927248E+01 -1.30641291648E+02  1.37942695878E+02  0.00000000000E+00 0.00000000000E+00  1.
        4    1    7    7  703    0  4.37063459178E+01  3.83809453101E-01 -6.31574024637E+01  7.68065717836E+01  1.78416127528E-06 0.00000000000E+00  1.
</event>
<event>
 9 110   1.0000000E+00   3.1250000E+01   7.8125000E-03   1.5660620E-01
        5   -1    0    0  501    0  0.00000000000E+00  0.00000000000E+00  1.69952565842E+02  1.69952565842E+02  0.00000000000E+00 0.00000000000E+00  1.
        2   -1    0    0  502    0  0.00000000000E+00  0.00000000000E+00 -6.31853404828E+02  6.31853404828E+02  0.00000000000E+00 0.00000000000E+00  1.
       25    1    1    2    0    0 -5.27854815207E+01  8.94415208580E+01  2.26043189662E+01  1.64079395259E+02  1.25000000000E+02 0.00000000000E+00  1.
        6    2    1    2  501    0  3.84491444396E+00 -1.18525962234E+02 -8.12906868162E+01  2.30512880197E+02  1.80179979696E+02 0.00000000000E+00  1.
        1    1    1    2  502    0  4.89405670768E+01  2.90844413757E+01 -4.03214471136E+02  4.07213695214E+02  9.34406182397E-06 0.00000000000E+00  1.
        5    1    4    4  501    0 -1.69298275279E+01 -6.66689168069E+01  3.77145985214E+01  7.85895474600E+01  4.75000000000E+00 0.00000000000E+00  1.
       24    2    4    4    0    0  2.07747419719E+01 -5.18570454268E+01 -1.19005285338E+02  1.51923332737E+02  7.61426163674E+01 0.00000000000E+00  1.
      -11    1    7    7    0    0 -7.27246807431E+00  1.02203232985E+01 -6.15317152376E+01  6.27972593395E+01  5.10999487625E-04 0.00000000000E+00  1.
       12    1    7    7    0    0  2.80472100462E+01 -6.20773687253E+01 -5.74735701001E+01  8.91260733976E+01  1.16800772800E-06 0.00000000000E+00  1.
</event>
<event>
 9 110   1.0000000E+00   3.1250000E+01   7.8125000E-03   1.5660620E-01
        5   -1    0    0  501    0  0.00000000000E+00  0.00000000000E+00  8.83076815214E+01  8.83076815214E+01  0.00000000000E+00 0.00000000000E+00  1.
        2   -1    0    0  502    0  0.00000000000E+00  0.00000000000E+00 -3.89805075363E+03  3.89805075363E+03  0.00000000000E+00 0.00000000000E+00  1.
       25    1    1    2    0    0 -6.67206512259E+01  3.77222649287E+02 -9.54556514557E+02  1.03612340574E+03  1.25000000000E+02 0.00000000000E+00  1.
        6    2    1    2  501    0  9.64943021395E+01 -1.81206507817E+02 -3.67598193648E+02  4.54758187959E+02  1.71841871271E+02 0.00000000000E+00  1.
        1    1    1    2  502    0 -2.97736509136E+01 -1.96016141470E+02 -2.48758836390E+03  2.49547684145E+03  0.00000000000E+00 0.00000000000E+00  1.
        5    1    4    4  501    0  3.70119655496E+01  1.92499383980E+01 -3.97848462611E+01  5.78432555635E+01  4.75000000000E+00 0.00000000000E+00  1.
       24    2    4    4    0    0  5.94823365899E+01 -2.00456446215E+02 -3.27813347387E+02  3.96914932396E+02  7.97429472637E+01 0.00000000000E+00  1.
       -3    1    7    7    0  703  7.68480894829E+00  2.25888630270E+00  1.37530104484E-02  8.00993414739E+00  8.63226188984E-06 0.00000000000E+00  1.
        4    1    7    7  703    0  5.17975276416E+01 -2.02715332518E+02 -3.27827100398E+02  3.88904998249E+02  6.60724947956E-06 0.00000000000E+00  1.
</event>
<event>
 9 110   1.0000000E+00   3.1250000E+01   7.8125000E-03   1.5660620E-01
        2   -1    0    0  502    0  0.00000000000E+00  0.00000000000E+00  8.65280298948E+02  8.65280298948E+02  0.00000000000E+00 0.00000000000E+00  1.
        5   -1    0    0  501    0  0.00000000000E+00  0.00000000000E+00 -2.37882220826E+02  2.37882220826E+02  0.00000000000E+00 0.00000000000E+00  1.
       25    1    1    2    0    0  2.64625679432E+01  1.01758248693E+02  5.40113915778E+02  5.64272142407E+02  1.25000000000E+02 0.00000000000E+00  1.
        6    2    1    2  501    0  2.50174576870E+01 -6.16067742611E+01 -1.82929185685E+02  2.60901911075E+02  1.73739610922E+02 0.00000000000E+00  1.
        1    1    1    2  502    0 -5.14800256302E+01 -4.01514744323E+01  2.70213348029E+02  2.77988466292E+02  3.81469726562E-06 0.00000000000E+00  1.
        5    1    4    4  501    0  1.64251664704E+01 -9.84959816406E+01 -8.82358154533E+01  1.33339289490E+02  4.75000000000E+00 0.00000000000E+00  1.
       24    2    4    4    0    0  8.59229121664E+00  3.68892073796E+01 -9.46933702321E+01  1.27562621586E+02  7.66207998550E+01 0.00000000000E+00  1.
      -13    1    7    7    0    0 -7.54482241511E+00 -1.79277935855E+01 -3.23174254565E+00  1.97176431664E+01  1.05660000013E-01 0.00000000000E+00  1.
       14    1    7    7    0    0  1.61371136318E+01  5.48170009651E+01 -9.14616276864E+01  1.07844978419E+02  2.69739830470E-06 0.00000000000E+00  1.
</event>
<event>
 9 110   1.0000000E+00   3.1250000E+01   7.8125000E-03   1.5660620E-01
        2   -1    0    0  502    0  0.00000000000E+00  0.00000000000E+00  3.37405011778E+03  3.37405011778E+03  0.00000000000E+00 0.00000000000E+00  1.
        5   -1    0    0  501    0  0.00000000000E+00  0.00000000000E+00 -4.16580162624E+01  4.16580162624E+01  0.00000000000E+00 0.00000000000E+00  1.
       25    1    1    2    0    0 -7.50658217947E+01  8.17502478006E+01  2.18023246074E+03  2.18663132774E+03  1.25000000000E+02 0.00000000000E+00  1.
        6    2    1    2  501    0  3.94803883432E+01 -7.29990976708E+01  2.02593283615E+02  2.78803596973E+02  1.72626295200E+02 0.00000000000E+00  1.
        1    1    1    2  502    0  3.55854334515E+01 -8.75115012986E+00  9.49566357160E+02  9.50273209321E+02  1.86881236479E-05 0.00000000000E+00  1.
        5    1    4    4  501    0  3.25218787055E+00 -4.27937519561E+01  1.76217437146E+02  1.81430508975E+02  4.75000000000E+00 0.00000000000E+00  1.
       24    2    4    4    0    0  3.62282004727E+01 -3.02053457146E+01  2.63758464685E+01  9.73730879978E+01  8.09999232720E+01 0.00000000000E+00  1.
      -11    1    7    7    0    0  3.03116952784E+01  2.39731642399E+01  5.61302198113E+00  3.90514723198E+01  5.10999223430E-04 0.00000000000E+00  1.
       12    1    7    7    0    0  5.91650519430E+00 -5.41785099545E+01  2.07628244874E+01  5.83216156780E+01  1.14341533740E-06 0.00000000000E+00  1.
</event>
<event>
 9 110   1.0000000E+00   3.1250000E+01   7.8125000E-03   1.5660620E-01
        2   -1    0    0  502    0  0.00000000000E+00  0.00000000000E+00  1.49934118924E+03  1.49934118924E+03  0.00000000000E+00 0.00000000000E+00  1.
        5   -1    0    0  501    0  0.00000000000E+00  0.00000000000E+00 -4.89187800172E+01  4.89187800172E+01  0.00000000000E+00 0.00000000000E+00  1.
       25    1    1    2    0    0  5.84610220829E+01 -6.26496565687E+01  2.37781763847E+02  2.81971342142E+02  1.25000000000E+02 0.00000000000E+00  1.
        6    2    1    2  501    0 -8.82137720084E+01  2.45904044228E+01  3.36143088928E+02  3.88460797036E+02  1.71823330891E+02 0.00000000000E+00  1.
        1    1    1    2  502    0  2.97527499255E+01  3.80592521459E+01  8.76497556450E+02  8.77827830081E+02  1.07895932188E-05 0.00000000000E+00  1.
        5    1    4    4  501    0 -4.42519353698E+01  5.77943367480E+01  2.46608296703E+02  2.57170436962E+02  4.75000000000E+00 0.00000000000E+00  1.
       24    2    4    4    0    0 -4.39618366386E+01 -3.32039323252E+01  8.95347922246E+01  1.31290360075E+02  7.86481749777E+01 0.00000000000E+00  1.
       -3    1    7    7    0  703  2.19467557915E+01 -1.50028364286E+01  1.67257389390E+01  3.14085264495E+01  1.14341533740E-06 0.00000000000E+00  1.
        2    1    7    7  703    0 -6.59085924301E+01 -1.82010958966E+01  7.28090532856E+01  9.98818336251E+01  1.34869915235E-06 0.00000000000E+00  1.
</event>
<event>
 9 110   1.0000000E+00   3.1250000E+01   7.8125000E-03   1.5660620E-01
        5   -1    0    0  501    0  0.00000000000E+00  0.00000000000E+00  4.48674323109E+02  4.48674323109E+02  0.00000000000E+00 0.00000000000E+00  1.
        2   -1    0    0  502    0  0.00000000000E+00  0.00000000000E+00 -1.54538471597E+03  1.54538471597E+03  0.00000000000E+00 0.00000000000E+00  1.
       25    1    1    2    0    0  3.94079471520E+01 -1.66180318167E+02 -2.08343264147E+01  2.12668647436E+02  1.25000000000E+02 0.00000000000E+00  1.
        6    2    1    2  501    0  1.57379321272E+02 -1.20389248497E+01  2.99578740589E+02  3.80546626697E+02  1.73652315857E+02 0.00000000000E+00  1.
        1    1    1    2  502    0 -1.96787268424E+02  1.78219243017E+02 -1.37545480704E+03  1.40084376495E+03  0.00000000000E+00 0.00000000000E+00  1.
        5    1    4    4  501    0  3.50343244775E+01  3.53496650391E+01  1.75359759872E+02  1.82347499551E+02  4.75000000000E+00 0.00000000000E+00  1.
       24    2    4    4    0    0  1.22344996794E+02 -4.73885898888E+01  1.24218980716E+02  1.98199127146E+02  8.14773719451E+01 0.00000000000E+00  1.
       -3    1    7    7    0  703  5.27308498165E+01 -2.87601242471E+01  6.82413045243E+00  6.04504427239E+01  9.68460846500E-07 0.00000000000E+00  1.
        4    1    7    7  703    0  6.96141469777E+01 -1.86284656417E+01  1.17394850264E+02  1.37748684422E+02  1.34869915235E-06 0.00000000000E+00  1.
</event>
<event>
 9 110   1.0000000E+00   3.1250000E+01   7.8125000E-03   1.5660620E-01
        2   -1    0    0  502    0  0.00000000000E+00  0.00000000000E+00  1.69295765280E+03  1.69295765280E+03  0.00000000000E+00 0.00000000000E+00  1.
        5   -1    0    0  501    0  0.00000000000E+00  0.00000000000E+00 -3.08435375118E+02  3.08435375118E+02  0.00000000000E+00 0.00000000000E+00  1.
       25    1    1    2    0    0 -1.96490290761E+02 -6.30471336701E+01 -1.04526399382E+02  2.62933724719E+02  1.25000000000E+02 0.00000000000E+00  1.
        6    2    1    2  501    0  1.89167060470E+02 -4.57793367073E+01  1.69330294578E+01  2.62308460539E+02  1.75040214087E+02 0.00000000000E+00  1.
        1    1    1    2  502    0  7.32323029044E+00  1.08826470377E+02  1.47211564760E+03  1.47615084266E+03  2.15791864376E-05 0.00000000000E+00  1.
        5    1    4    4  501    0  1.15150996704E+02 -7.98056085237E+01  3.93715650351E+01  1.45606901715E+02  4.75000000000E+00 0.00000000000E+00  1.
       24    2    4    4    0    0  7.40160637659E+01  3.40262718164E+01 -2.24385355773E+01  1.16701558824E+02  8.04959693644E+01 0.00000000000E+00  1.
       -3    1    7    7    0  703  2.60107824885E+01 -1.58020817045E+01 -3.49978170641E+01  4.63801012408E+01  9.53674316406E-07 0.00000000000E+00  1.
        4    1    7    7  703    0  4.80052812774E+01  4.98283535209E+01  1.25592814868E+01  7.03214575829E+01  1.25027757665E-06 0.00000000000E+00  1.
</event>
<event>
 9 110   1.0000000E+00   3.1250000E+01   7.8125000E-03   1.5660620E-01
        5   -1    0    0  501    0  0.00000000000E+00  0.00000000000E+00  1.96408390147E+02  1.96408390147E+02  0.00000000000E+00 0.00000000000E+00  1.
        2   -1    0    0  502    0  0.00000000000E+00  0.00000000000E+00 -3.90933917722E+02  3.90933917722E+02  0.00000000000E+00 0.00000000000E+00  1.
       25    1    1    2    0    0  6.06006030332E+01 -1.07620468568E+02 -1.18488935779E+02  2.11941563278E+02  1.25000000000E+02 0.00000000000E+00  1.
        6    2    1    2  501    0 -1.25905711492E+02 -4.64711979926E+00  1.72076203261E+01  2.15515624324E+02  1.74002983370E+02 0.00000000000E+00  1.
        1    1    1    2  502    0  6.53051084584E+01  1.12267588367E+02 -9.32442121220E+01  1.59885120267E+02  2.69739830470E-06 0.00000000000E+00  1.
        5    1    4    4  501    0 -1.04039253406E+01 -5.99474114403E+00  6.45993043779E+01  6.58772434911E+01  4.75000000000E+00 0.00000000000E+00  1.
       24    2    4    4    0    0 -1.15501786151E+02  1.34762134477E+00 -4.73916840518E+01  1.49638380833E+02  8.24814804281E+01 0.00000000000E+00  1.
       -3    1    7    7    0  703 -4.89890419899E+01 -1.12746373015E+01 -6.25655427764E+01  8.02588987233E+01  9.53674316406E-07 0.00000000000E+00  1.
        4    1    7    7  703    0 -6.65127441611E+01  1.26222586463E+01  1.51738587246E+01  6.93794821094E+01  1.57247852782E-06 0.00000000000E+00  1.
</event>
<event>
 9 110   1.0000000E+00   3.1250000E+01   7.8125000E-03   1.5660620E-01
        2   -1    0    0  502    0  0.00000000000E+00  0.00000000000E+00  3.54931620103E+03  3.54931620103E+03  0.00000000000E+00 0.00000000000E+00  1.
        5   -1    0    0  501    0  0.00000000000E+00  0.00000000000E+00 -5.48851180058E+02  5.48851180058E+02  0.00000000000E+00 0.00000000000E+00  1.
       25    1    1    2    0    0 -7.79463333802E+02  6.25954523657E+02  1.57713772805E+03  1.87146214700E+03  1.25000000000E+02 0.00000000000E+00  1.
        6    2    1    2  501    0 -6.17502202867E+01 -3.62912133649E+02 -1.41921220732E+02  4.30366053412E+02  1.71915678693E+02 0.00000000000E+00  1.
        1    1    1    2  502    0  8.41213554088E+02 -2.63042390008E+02  1.56524851365E+03  1.79633918067E+03  3.05175781250E-05 0.00000000000E+00  1.
        5    1    4    4  501    0  1.90989018828E+00 -1.17833442841E+02 -1.13125382468E+02  1.63426688735E+02  4.75000000000E+00 0.00000000000E+00  1.
       24    2    4    4    0    0 -6.36601104750E+01 -2.45078690808E+02 -2.87958382638E+01  2.66939364677E+02  7.94433745461E+01 0.00000000000E+00  1.
       -3    1    7    7    0  703  1.81425146483E+01 -6.58091443673E+01 -4.80714701171E+00  6.84332008788E+01  1.07453801497E-06 0.00000000000E+00  1.
        4    1    7    7  703    0 -8.18026251233E+01 -1.79269546441E+02 -2.39886912521E+01  1.98506163799E+02  1.65181236989E-06 0.00000000000E+00  1.
</event>
<event>
 9 110   1.0000000E+00   3.1250000E+01   7.8125000E-03   1.5660620E-01
        5   -1    0    0  501    0  0.00000000000E+00  0.00000000000E+00  1.02551080036E+03  1.02551080036E+03  0.00000000000E+00 0.00000000000E+00  1.
        2   -1    0    0  502    0  0.00000000000E+00  0.00000000000E+00 -8.64698723962E+02  8.64698723962E+02  0.00000000000E+00 0.00000000000E+00  1.
       25    1    1    2    0    0 -7.62802998487E+01  3.31427725198E+01 -7.33332937288E+02  7.48544804555E+02  1.25000000000E+02 0.00000000000E+00  1.
        6    2    1    2  501    0  7.35675529682E+01 -8.66406938968E+01  1.00080065637E+03  1.02231308507E+03  1.74937975924E+02 0.00000000000E+00  1.
        1    1    1    2  502    0  2.71274688043E+00  5.34979213769E+01 -1.06655642688E+02  1.19351634696E+02  1.73243542906E-05 0.00000000000E+00  1.
        5    1    4    4  501    0  2.59180415017E+01 -1.63132068750E+01  6.68496264814E+02  6.69214228901E+02  4.75000000002E+00 0.00000000000E+00  1.
       24    2    4    4    0    0  4.76495114665E+01 -7.03274870218E+01  3.32304391560E+02  3.53098856170E+02  8.38818347709E+01 0.00000000000E+00  1.
      -13    1    7    7    0    0  6.97839469505E+01 -6.16617562284E+01  2.89859608172E+02  3.04451268755E+02  1.05660000159E-01 0.00000000000E+00  1.
       14    1    7    7    0    0 -2.21344354840E+01 -8.66573079339E+00  4.24447833883E+01  4.86475874145E+01  3.30362473978E-06 0.00000000000E+00  1.
</event>
<event>
 9 110   1.0000000E+00   3.1250000E+01   7.8125000E-03   1.5660620E-01
        2   -1    0    0  502    0  0.00000000000E+00  0.00000000000E+00  6.03656980417E+02  6.03656980417E+02  0.00000000000E+00 0.00000000000E+00  1.
        5   -1    0    0  501    0  0.00000000000E+00  0.00000000000E+00 -6.05957126819E+02  6.05957126819E+02  0.00000000000E+00 0.00000000000E+00  1.
       25    1    1    2    0    0  3.72992408645E+01  4.09674410855E+02 -3.92061200005E+01  4.31725000578E+02  1.25000000000E+02 0.00000000000E+00  1.
        6    2    1    2  501    0  9.06483164155E+01 -2.85597544513E+02 -2.59148104798E+02  4.32326285291E+02  1.73104598529E+02 0.00000000000E+00  1.
        1    1    1    2  502    0 -1.27947557280E+02 -1.24076866342E+02  2.96054078397E+02  3.45562821367E+02  1.07895932188E-05 0.00000000000E+00  1.
        5    1    4    4  501    0 -1.64112234008E+01 -1.18232004679E+02 -1.49196043252E+02  1.91128639942E+02  4.75000000000E+00 0.00000000000E+00  1.
       24    2    4    4    0    0  1.07059539816E+02 -1.67365539834E+02 -1.09952061546E+02  2.41197645349E+02  8.13257603348E+01 0.00000000000E+00  1.
      -15    1    7    7    0    0 -2.73279034096E-01  6.14002844035E+00  3.96594083528E+00  7.52730600067E+00  1.77680000000E+00 0.00000000000E+00  1.
       16    1    7    7    0    0  1.07332818850E+02 -1.73505568274E+02 -1.13918002381E+02  2.33670339348E+02  3.56832255056E-06 0.00000000000E+00  1.
</event>
<event>
 9 110   1.0000000E+00   3.1250000E+01   7.8125000E-03   1.5660620E-01
        2   -1    0    0  502    0  0.00000000000E+00  0.00000000000E+00  7.24657277502E+02  7.24657277502E+02  0.00000000000E+00 0.00000000000E+00  1.
        5   -1    0    0  501    0  0.00000000000E+00  0.00000000000E+00 -1.26920789912E+02  1.26920789912E+02  0.00000000000E+00 0.00000000000E+00  1.
       25    1    1    2    0    0 -1.05819180529E+02 -2.47747386368E+01 -2.32877789142E+00  1.65655998529E+02  1.25000000000E+02 0.00000000000E+00  1.
        6    2    1    2  501    0  1.56130814875E+02  2.39916917948E+01  3.01254454235E+02  3.82904289489E+02  1.75809601796E+02 0.00000000000E+00  1.
        1    1    1    2  502    0 -5.03116343463E+01  7.83046842027E-01  2.98810811246E+02  3.03017779396E+02  3.81469726562E-06 0.00000000000E+00  1.
        5    1    4    4  501    0  5.32936054815E+01  3.97783565348E+01  2.16133125816E+02  2.26182706255E+02  4.75000000000E+00 0.00000000000E+00  1.
       24    2    4    4    0    0  1.02837209393E+02 -1.57866647400E+01  8.51213284198E+01  1.56721583234E+02  8.05686271450E+01 0.00000000000E+00  1.
       -3    1    7    7    0  703  1.53698843749E+01 -3.78144478991E+01  1.98870400937E+01  4.54055082485E+01  4.12953092472E-07 0.00000000000E+00  1.
        4    1    7    7  703    0  8.74673250185E+01  2.20277831591E+01  6.52342883260E+01  1.11316074986E+02  1.65181236989E-06 0.00000000000E+00  1.
</event>
<event>
 9 110   1.0000000E+00   3.1250000E+01   7.8125000E-03   1.5660620E-01
        5   -1    0    0  501    0  0.00000000000E+00  0.00000000000E+00  4.41094881796E+02  4.41094881796E+02  0.00000000000E+00 0.00000000000E+00  1.
        2   -1    0    0  502    0  0.00000000000E+00  0.00000000000E+00 -1.70139773649E+03  1.70139773649E+03  0.00000000000E+00 0.00000000000E+00  1.
       25    1    1    2    0    0  1.48105685244E+02 -3.28309504930E+02 -1.95905514747E+02  4.28633171532E+02  1.25000000000E+02 0.00000000000E+00  1.
        6    2    1    2  501    0 -4.94887180281E+00  1.42601874651E+02  2.74501548682E+02  3.54583377977E+02  1.73258436224E+02 0.00000000000E+00  1.
        1    1    1    2  502    0 -1.43156813441E+02  1.85707630279E+02 -1.33889888863E+03  1.35927606878E+03  1.52587890625E-05 0.00000000000E+00  1.
        5    1    4    4  501    0  3.61735035807E+01  1.18267017169E+02  1.09970547777E+02  1.65564771584E+02  4.75000000000E+00 0.00000000000E+00  1.
       24    2    4    4    0    0 -4.11223753835E+01  2.43348574821E+01  1.64531000905E+02  1.89018606393E+02  7.98395156432E+01 0.00000000000E+00  1.
      -11    1    7    7    0    0 -6.32270037621E+01  9.37399427460E+00  9.46256434761E+01  1.14190797251E+02  5.11003937192E-04 0.00000000000E+00  1.
       12    1    7    7    0    0  2.21046283787E+01  1.49608632076E+01  6.99053574290E+01  7.48278091417E+01  9.53674316406E-07 0.00000000000E+00  1.
</event>
<event>
 9 110   1.0000000E+00   3.1250000E+01   7.8125000E-03   1.5660620E-01
        2   -1    0    0  502    0  0.00000000000E+00  0.00000000000E+00  1.38760516969E+03  1.38760516969E+03  0.00000000000E+00 0.00000000000E+00  1.
        5   -1    0    0  501    0  0.00000000000E+00  0.00000000000E+00 -7.80513926655E+02  7.80513926655E+02  0.00000000000E+00 0.00000000000E+00  1.
       25    1    1    2    0    0  5.93106047316E+02  4.84813104691E+02  1.60878658286E+02  7.92669838290E+02  1.25000000000E+02 0.00000000000E+00  1.
        6    2    1    2  501    0 -5.51633608888E+02 -4.31450098916E+02 -1.81633567347E+02  7.43976088209E+02  1.73380623858E+02 0.00000000000E+00  1.
        1    1    1    2  502    0 -4.14724384280E+01 -5.33630057745E+01  6.27846152091E+02  6.31473169842E+02  7.62939453125E-06 0.00000000000E+00  1.
        5    1    4    4  501    0 -3.24345397786E+02 -2.32400331704E+02 -4.04688372894E+01  4.01086200875E+02  4.75000000000E+00 0.00000000000E+00  1.
       24    2    4    4    0    0 -2.27288211103E+02 -1.99049767212E+02 -1.41164730057E+02  3.42889887333E+02  7.97825362471E+01 0.00000000000E+00  1.
       -3    1    7    7    0  703  6.29827604467E+00 -3.96269492739E+00 -7.26015844821E+00  1.03962076218E+01  4.23654452417E-06 0.00000000000E+00  1.
        4    1    7    7  703    0 -2.33586487147E+02 -1.95087072285E+02 -1.33904571609E+02  3.32493679712E+02  3.30362473978E-06 0.00000000000E+00  1.
</event>
<event>
 9 110   1.0000000E+00   3.1250000E+01   7.8125000E-03   1.5660620E-01
        5   -1    0    0  501    0  0.00000000000E+00  0.00000000000E+00  1.24060192773E+02  1.24060192773E+02  0.00000000000E+00 0.00000000000E+00  1.
        2   -1    0    0  502    0  0.00000000000E+00  0.00000000000E+00 -6.99492556950E+02  6.99492556950E+02  0.00000000000E+00 0.00000000000E+00  1.
       25    1    1    2    0    0 -1.15459398517E+02 -5.80441000554E+01 -8.92665347180E+01  2.00732420096E+02  1.25000000000E+02 0.00000000000E+00  1.
        6    2    1    2  501    0 -3.86133066044E+01  3.62136686619E+00 -9.66632092068E+01  2.00431263084E+02  1.71244893245E+02 0.00000000000E+00  1.
        1    1    1    2  502    0  1.54072705121E+02  5.44227331892E+01 -3.89502620253E+02  4.22389066543E+02  5.39479660939E-06 0.00000000000E+00  1.
        5    1    4    4  501    0 -2.67877115523E+01 -5.72318456552E+01 -6.49054021397E+00  6.37005122396E+01  4.75000000000E+00 0.00000000000E+00  1.
       24    2    4    4    0    0 -1.18255950520E+01  6.08532125214E+01 -9.01726689928E+01  1.36730750844E+02  8.19831069224E+01 0.00000000000E+00  1.
       -1    1    7    7    0  703  3.27367774530E+01  2.76719970312E+01 -2.02089270639E+01  4.73902600834E+01  1.41050333574E-06 0.00000000000E+00  1.
        2    1    7    7  703    0 -4.45623725051E+01  3.31812154903E+01 -6.99637419289E+01  8.93404907609E+01  1.65181236989E-06 0.00000000000E+00  1.
</event>
<event>
 9 110   1.0000000E+00   3.1250000E+01   7.8125000E-03   1.5660620E-01
        5   -1    0    0  501    0  0.00000000000E+00  0.00000000000E+00  4.41438668317E+02  4.41438668317E+02  0.00000000000E+00 0.00000000000E+00  1.
       -3   -1    0    0    0  502  0.00000000000E+00  0.00000000000E+00 -4.34801878141E+02  4.34801878141E+02  0.00000000000E+00 0.00000000000E+00  1.
       25    1    1    2    0    0  8.68411787225E+01  2.46000437366E+02 -1.50713907882E+02  3.26185970782E+02  1.25000000000E+02 0.00000000000E+00  1.
        6    2    1    2  501    0 -1.10359502858E+02 -5.39573674706E+00  2.21674193060E+02  2.99892137370E+02  1.69078420685E+02 0.00000000000E+00  1.
       -4    1    1    2    0  502  2.35183241353E+01 -2.40604700619E+02 -6.43234950020E+01  2.50162438306E+02  3.43852164790E-06 0.00000000000E+00  1.
        5    1    4    4  501    0 -6.49127585737E+01  4.00771604148E+01  1.63935756030E+02  1.80879350999E+02  4.75000000000E+00 0.00000000000E+00  1.
       24    2    4    4    0    0 -4.54467442842E+01 -4.54728971619E+01  5.77384370299E+01  1.19012786371E+02  8.18359656069E+01 0.00000000000E+00  1.
       -1    1    7    7    0  703 -5.37740170847E+01 -5.37367316391E+01  6.90620713700E+01  1.02707599245E+02  1.34869915235E-06 0.00000000000E+00  1.
        2    1    7    7  703    0  8.32727280052E+00  8.26383447719E+00 -1.13236343401E+01  1.63051871264E+01  8.59630411974E-07 0.00000000000E+00  1.
</event>
<event>
 9 110   1.0000000E+00   3.1250000E+01   7.8125000E-03   1.5660620E-01
        5   -1    0    0  501    0  0.00000000000E+00  0.00000000000E+00  9.82027440733E+01  9.82027440733E+01  0.00000000000E+00 0.00000000000E+00  1.
        2   -1    0    0  502    0  0.00000000000E+00  0.00000000000E+00 -2.75074103809E+03  2.75074103809E+03  0.00000000000E+00 0.00000000000E+00  1.
       25    1    1    2    0    0 -1.46823364723E+02  8.23985522346E+01 -1.28012477949E+02  2.45680313313E+02  1.25000000000E+02 0.00000000000E+00  1.
        6    2    1    2  501    0  1.53062052270E+02 -1.48765792131E+02 -4.52706876786E+02  5.30372432418E+02  1.75476915936E+02 0.00000000000E+00  1.
        1    1    1    2  502    0 -6.23868754677E+00  6.63672398966E+01 -2.07181893928E+03  2.07289103643E+03  5.28579958365E-05 0.00000000000E+00  1.
        5    1    4    4  501    0  7.05179485078E+01 -6.97498338890E+01 -6.64234436986E+01  1.19467387860E+02  4.75000000000E+00 0.00000000000E+00  1.
       24    2    4    4    0    0  8.25441037623E+01 -7.90159582423E+01 -3.86283433088E+02  4.10905044559E+02  8.10617927441E+01 0.00000000000E+00  1.
      -13    1    7    7    0    0  2.72394716662E+01 -6.18696959190E+00 -2.14371536705E+02  2.16183797549E+02  1.05660000055E-01 0.00000000000E+00  1.
       14    1    7    7    0    0  5.53046320960E+01 -7.28289886504E+01 -1.71911896382E+02  1.94721247009E+02  3.30362473978E-06 0.00000000000E+00  1.
</event>
<event>
 9 110   1.0000000E+00   3.1250000E+01   7.8125000E-03   1.5660620E-01
        2   -1    0    0  502    0  0.00000000000E+00  0.00000000000E+00  2.77323381907E+03  2.77323381907E+03  0.00000000000E+00 0.00000000000E+00  1.
        5   -1    0    0  501    0  0.00000000000E+00  0.00000000000E+00 -2.19574781101E+02  2.19574781101E+02  0.00000000000E+00 0.00000000000E+00  1.
       25    1    1    2    0    0  3.90291405279E+02 -1.62031109310E+02  1.38097460729E+03  1.44958522599E+03  1.25000000000E+02 0.00000000000E+00  1.
        6    2    1    2  501    0 -4.07475369283E+02  9.15839771463E+01  9.34331178082E+01  4.61538816014E+02  1.72813569323E+02 0.00000000000E+00  1.
        1    1    1    2  502    0  1.71839640043E+01  7.04471321636E+01  1.07925131288E+03  1.08168455817E+03  0.00000000000E+00 0.00000000000E+00  1.
        5    1    4    4  501    0 -1.86255755656E+02 -9.80343653736E+00  8.69927620259E+01  2.05858244984E+02  4.75000000000E+00 0.00000000000E+00  1.
       24    2    4    4    0    0 -2.21219613627E+02  1.01387413684E+02  6.44035578225E+00  2.55680571030E+02  7.81892007440E+01 0.00000000000E+00  1.
       -1    1    7    7    0  703 -3.55323160800E+01 -1.26023647106E+01 -1.34902201478E-02  3.77009981870E+01  3.50598865284E-06 0.00000000000E+00  1.
        4    1    7    7  703    0 -1.85687297547E+02  1.13989778394E+02  6.45384600240E+00  2.17979572843E+02  3.73279292866E-06 0.00000000000E+00  1.
</event>
<event>
 9 110   1.0000000E+00   3.1250000E+01   7.8125000E-03   1.5660620E-01
        2   -1    0    0  502    0  0.00000000000E+00  0.00000000000E+00  6.41253351484E+02  6.41253351484E+02  0.00000000000E+00 0.00000000000E+00  1.
        5   -1    0    0  501    0  0.00000000000E+00  0.00000000000E+00 -1.63723757239E+02  1.63723757239E+02  0.00000000000E+00 0.00000000000E+00  1.
       25    1    1    2    0    0 -1.33929950650E+02 -6.03217639843E+01  5.06577167155E+02  5.42052924699E+02  1.25000000000E+02 0.00000000000E+00  1.
        6    2    1    2  501    0  9.67767216632E+01  8.26032287683E+01 -9.28222490001E+00  2.15305961893E+02  1.73440105710E+02 0.00000000000E+00  1.
        1    1    1    2  502    0  3.71532289865E+01 -2.22814647840E+01 -1.97653480102E+01  4.76182221319E+01  1.16800772800E-06 0.00000000000E+00  1.
        5    1    4    4  501    0  5.80508407402E+01  8.15841550005E+01 -5.52946871827E+01  1.14481174821E+02  4.75000000000E+00 0.00000000000E+00  1.
       24    2    4    4    0    0  3.87258809230E+01  1.01907376780E+00  4.60124622826E+01  1.00824787072E+02  8.09182219168E+01 0.00000000000E+00  1.
       -3    1    7    7    0  703  6.16004314019E+01  2.71368795490E+00  4.75070383579E+01  7.78389102233E+01  1.78416127528E-06 0.00000000000E+00  1.
        4    1    7    7  703    0 -2.28745504789E+01 -1.69461418710E+00 -1.49457607530E+00  2.29858768486E+01  1.50715503794E-06 0.00000000000E+00  1.
</event>
<event>
 9 110   1.0000000E+00   3.1250000E+01   7.8125000E-03   1.5660620E-01
        2   -1    0    0  502    0  0.00000000000E+00  0.00000000000E+00  2.12861155360E+03  2.12861155360E+03  0.00000000000E+00 0.00000000000E+00  1.
        5   -1    0    0  501    0  0.00000000000E+00  0.00000000000E+00 -2.80787547889E+02  2.80787547889E+02  0.00000000000E+00 0.00000000000E+00  1.
       25    1    1    2    0    0  5.18439457507E+01  7.81037321425E+01  3.24228786144E+01  1.59575157037E+02  1.25000000000E+02 0.00000000000E+00  1.
        6    2    1    2  501    0  3.52844152634E+01 -7.47421093783E+01 -1.73381308153E+02  2.59131043336E+02  1.73943803365E+02 0.00000000000E+00  1.
        1    1    1    2  502    0 -8.71283610141E+01 -3.36162276413E+00  1.98878243525E+03  1.99069290112E+03  6.10351562500E-05 0.00000000000E+00  1.
        5    1    4    4  501    0  3.57811968471E+01 -9.97948612860E+01 -8.15499560212E+01  1.33836714746E+02  4.75000000000E+00 0.00000000000E+00  1.
       24    2    4    4    0    0 -4.96781583768E-01  2.50527519077E+01 -9.18313521316E+01  1.25294328591E+02  8.14725989064E+01 0.00000000000E+00  1.
       -1    1    7    7    0  703 -2.31933611055E+01  4.33058209681E+00  4.63972577502E+00  2.40460598838E+01  1.11031150879E-06 0.00000000000E+00  1.
        2    1    7    7  703    0  2.26965795218E+01  2.07221698109E+01 -9.64710779066E+01  1.01248268707E+02  1.34869915235E-06 0.00000000000E+00  1.
</event>
<event>
 9 110   1.0000000E+00   3.1250000E+01   7.8125000E-03   1.5660620E-01
        5   -1    0    0  501    0  0.00000000000E+00  0.00000000000E+00  5.76303006420E+02  5.76303006420E+02  0.00000000000E+00 0.00000000000E+00  1.
        2   -1    0    0  502    0  0.00000000000E+00  0.00000000000E+00 -4.69460060132E+02  4.69460060132E+02  0.00000000000E+00 0.00000000000E+00  1.
       25    1    1    2    0    0 -4.25599669277E+02 -2.25253636404E-01  2.76103291944E+02  5.22487470711E+02  1.25000000000E+02 0.00000000000E+00  1.
        6    2    1    2  501    0  3.94607521102E+02  3.17737017206E+01 -1.03599450292E+02  4.44110129852E+02  1.72558098928E+02 0.00000000000E+00  1.
        1    1    1    2  502    0  3.09921481753E+01 -3.15484480842E+01 -6.56608953644E+01  7.91654659880E+01  2.13248059988E-06 0.00000000000E+00  1.
        5    1    4    4  501    0  2.69337185482E+02  1.33607373656E+01 -1.09121682141E+02  2.90948677260E+02  4.74999999999E+00 0.00000000000E+00  1.
       24    2    4    4    0    0  1.25270335620E+02  1.84129643550E+01  5.52223184962E+00  1.53161452592E+02  8.60014027377E+01 0.00000000000E+00  1.
       -3    1    7    7    0  703  1.15264495727E+02  3.87953234313E+01 -1.50200054865E+01  1.22542162786E+02  2.60083964220E-06 0.00000000000E+00  1.
        4    1    7    7  703    0  1.00058398925E+01 -2.03823590762E+01  2.05422373361E+01  3.06192898063E+01  2.27436828951E-06 0.00000000000E+00  1.
</event>
<event>
 9 110   1.0000000E+00   3.1250000E+01   7.8125000E-03   1.5660620E-01
        2   -1    0    0  502    0  0.00000000000E+00  0.00000000000E+00  2.74110800998E+03  2.74110800998E+03  0.00000000000E+00 0.00000000000E+00  1.
        5   -1    0    0  501    0  0.00000000000E+00  0.00000000000E+00 -1.77203326935E+02  1.77203326935E+02  0.00000000000E+00 0.00000000000E+00  1.
       25    1    1    2    0    0  4.93352363262E+01 -8.05668955960E+00  2.01976577677E+02  2.42731155232E+02  1.25000000000E+02 0.00000000000E+00  1.
        6    2    1    2  501    0 -3.12379804916E+01 -1.00568786200E+02 -8.88220677471E+01  2.22357114843E+02  1.74537774190E+02 0.00000000000E+00  1.
        1    1    1    2  502    0 -1.80972558346E+01  1.08625475760E+02  2.45075017311E+03  2.45322306684E+03  4.31583728752E-05 0.00000000000E+00  1.
        5    1    4    4  501    0  4.44164212274E+01 -7.97341388111E+01 -3.48849535707E+01  9.78257320557E+01  4.75000000000E+00 0.00000000000E+00  1.
       24    2    4    4    0    0 -7.56544017190E+01 -2.08346473893E+01 -5.39371141764E+01  1.24531382787E+02  8.02569746617E+01 0.00000000000E+00  1.
       -3    1    7    7    0  703  1.44946518752E+01  6.49735292761E+00 -1.72199552522E+01  2.34272786925E+01  2.38418579102E-07 0.00000000000E+00  1.
        4    1    7    7  703    0 -9.01490535942E+01 -2.73320003169E+01 -3.67171589242E+01  1.01104104094E+02  4.76837158203E-07 0.00000000000E+00  1.
</event>
<event>
 9 110   1.0000000E+00   3.1250000E+01   7.8125000E-03   1.5660620E-01
        2   -1    0    0  502    0  0.00000000000E+00  0.00000000000E+00  4.39665561478E+03  4.39665561478E+03  0.00000000000E+00 0.00000000000E+00  1.
        5   -1    0    0  501    0  0.00000000000E+00  0.00000000000E+00 -4.17983391654E+01  4.17983391654E+01  0.00000000000E+00 0.00000000000E+00  1.
       25    1    1    2    0    0  1.58305191747E+02 -1.53913276614E+02  5.07224351714E+02  5.67143168366E+02  1.25000000000E+02 0.00000000000E+00  1.
        6    2    1    2  501    0 -1.96406086250E+02  8.84912893236E+01  1.68334887808E+03  1.70570298508E+03  1.71327665548E+02 0.00000000000E+00  1.
        1    1    1    2  502    0  3.81008945021E+01  6.54219872908E+01  2.16428404582E+03  2.16560780050E+03  4.31583728752E-05 0.00000000000E+00  1.
        5    1    4    4  501    0 -7.60800140555E+01  2.93938133401E+00  2.19791775949E+02  2.32653811007E+02  4.74999999993E+00 0.00000000000E+00  1.
       24    2    4    4    0    0 -1.20326072194E+02  8.55519079896E+01  1.46355710213E+03  1.47304917408E+03  7.79550218646E+01 0.00000000000E+00  1.
       -3    1    7    7    0  703 -2.10311422200E+01  6.09444485629E+00  6.23549503761E+01  6.60877525536E+01  1.60291064396E-05 0.00000000000E+00  1.
        4    1    7    7  703    0 -9.92949299741E+01  7.94574631333E+01  1.40120215176E+03  1.40696142152E+03  2.15791864376E-05 0.00000000000E+00  1.
</event>
<event>
 9 110   1.0000000E+00   3.1250000E+01   7.8125000E-03   1.5660620E-01
       -3   -1    0    0    0  502  0.00000000000E+00  0.00000000000E+00  3.76918404612E+02  3.76918404612E+02  0.00000000000E+00 0.00000000000E+00  1.
        5   -1    0    0  501    0  0.00000000000E+00  0.00000000000E+00 -3.22360529138E+02  3.22360529138E+02  0.00000000000E+00 0.00000000000E+00  1.
       25    1    1    2    0    0 -3.81200561022E+01  1.00671193438E+02 -1.08764472761E+01  1.65321278034E+02  1.25000000000E+02 0.00000000000E+00  1.
        6    2    1    2  501    0 -4.73952994326E+01 -2.25041474939E+01 -1.84683050136E+02  2.58309939739E+02  1.72810430523E+02 0.00000000000E+00  1.
       -4    1    1    2    0  502  8.55153555349E+01 -7.81670459437E+01  2.50117372887E+02  2.75647715977E+02  8.09219491409E-06 0.00000000000E+00  1.
        5    1    4    4  501    0 -5.02678328302E+01  2.48518191621E+01 -1.49547727061E+02  1.59785960279E+02  4.75000000000E+00 0.00000000000E+00  1.
       24    2    4    4    0    0  2.87253339759E+00 -4.73559666560E+01 -3.51353230752E+01  9.85239794602E+01  7.88774021823E+01 0.00000000000E+00  1.
       -1    1    7    7    0  703  1.63617980471E+01 -1.73102761550E+01  2.20978812775E+01  3.24910826666E+01  1.61703347757E-06 0.00000000000E+00  1.
        2    1    7    7  703    0 -1.34892646495E+01 -3.00456905010E+01 -5.72332043527E+01  6.60328967935E+01  1.16800772800E-06 0.00000000000E+00  1.
</event>
<event>
 9 110   1.0000000E+00   3.1250000E+01   7.8125000E-03   1.5660620E-01
        5   -1    0    0  501    0  0.00000000000E+00  0.00000000000E+00  1.61245338702E+03  1.61245338702E+03  0.00000000000E+00 0.00000000000E+00  1.
        2   -1    0    0  502    0  0.00000000000E+00  0.00000000000E+00 -1.72257379297E+02  1.72257379297E+02  0.00000000000E+00 0.00000000000E+00  1.
       25    1    1    2    0    0 -2.26041781689E+02 -5.13666898054E+01  1.20475107765E+03  1.23320054452E+03  1.25000000000E+02 0.00000000000E+00  1.
        6    2    1    2  501    0  4.74450760124E+01  1.96576520210E+02  1.01517894239E+02  2.85203764776E+02  1.73614345766E+02 0.00000000000E+00  1.
        1    1    1    2  502    0  1.78596705677E+02 -1.45209830405E+02  1.33927035826E+02  2.66306457019E+02  5.04637014592E-06 0.00000000000E+00  1.
        5    1    4    4  501    0 -5.11741064843E+01  6.84711882173E+01  4.17775541456E+01  9.52628958238E+01  4.75000000000E+00 0.00000000000E+00  1.
       24    2    4    4    0    0  9.86191824966E+01  1.28105331993E+02  5.97403400934E+01  1.89940868952E+02  7.98242207760E+01 0.00000000000E+00  1.
      -15    1    7    7    0    0 -1.35151152386E+01  8.59925352111E+00  2.25850519433E+00  1.62746233439E+01  1.77680000000E+00 0.00000000000E+00  1.
       16    1    7    7    0    0  1.12134297735E+02  1.19506078472E+02  5.74818348990E+01  1.73666245608E+02  1.16800772800E-06 0.00000000000E+00  1.
</event>
<event>
 9 110   1.0000000E+00   3.1250000E+01   7.8125000E-03   1.5660620E-01
        5   -1    0    0  501    0  0.00000000000E+00  0.00000000000E+00  9.54208886848E+02  9.54208886848E+02  0.00000000000E+00 0.00000000000E+00  1.
        2   -1    0    0  502    0  0.00000000000E+00  0.00000000000E+00 -1.44714648227E+03  1.44714648227E+03  0.00000000000E+00 0.00000000000E+00  1.
       25    1    1    2    0    0  8.24760348278E+02  4.54137143618E+02  3.72027251561E+02  1.02004875041E+03  1.25000000000E+02 0.00000000000E+00  1.
        6    2    1    2  501    0 -7.97466564347E+02 -3.30081459359E+02 -5.41855144505E+02  1.03412562373E+03  1.75789979720E+02 0.00000000000E+00  1.
        1    1    1    2  502    0 -2.72937839313E+01 -1.24055684260E+02 -3.23109702474E+02  3.47180994974E+02  5.39479660939E-06 0.00000000000E+00  1.
        5    1    4    4  501    0 -3.05745533907E+02 -7.22324485879E+01 -1.39418838625E+02  3.43741229992E+02  4.75000000001E+00 0.00000000000E+00  1.
       24    2    4    4    0    0 -4.91721030440E+02 -2.57849010771E+02 -4.02436305880E+02  6.90384393740E+02  7.99996668570E+01 0.00000000000E+00  1.
      -15    1    7    7    0    0 -4.29033433562E+02 -2.43647033513E+02 -3.30196288278E+02  5.93688731461E+02  1.77680000001E+00 0.00000000000E+00  1.
       16    1    7    7    0    0 -6.26875968786E+01 -1.42019772581E+01 -7.22400176023E+01  9.66956622793E+01  7.86419987796E-06 0.00000000000E+00  1.
</event>
<event>
 9 110   1.0000000E+00   3.1250000E+01   7.8125000E-03   1.5660620E-01
        5   -1    0    0  501    0  0.00000000000E+00  0.00000000000E+00  2.85248652494E+02  2.85248652494E+02  0.00000000000E+00 0.00000000000E+00  1.
        2   -1    0    0  502    0  0.00000000000E+00  0.00000000000E+00 -1.37563718213E+03  1.37563718213E+03  0.00000000000E+00 0.00000000000E+00  1.
       25    1    1    2    0    0 -1.07114367446E+02 -3.41579804406E+02 -7.06835601640E+01  3.85708978595E+02  1.25000000000E+02 0.00000000000E+00  1.
        6    2    1    2  501    0  1.98809593746E+02  1.37098517775E+02 -7.81553637538E+01  3.07325487721E+02  1.73261179662E+02 0.00000000000E+00  1.
        1    1    1    2  502    0 -9.16952262991E+01  2.04481286630E+02 -9.41549605723E+02  9.67851368313E+02  1.86881236479E-05 0.00000000000E+00  1.
        5    1    4    4  501    0  8.74395442158E+01 -1.57616662870E+01 -4.31328530409E+01  9.88792674339E+01  4.75000000000E+00 0.00000000000E+00  1.
       24    2    4    4    0    0  1.11370049530E+02  1.52860184062E+02 -3.50225107129E+01  2.08446220287E+02  8.03350900384E+01 0.00000000000E+00  1.
      -13    1    7    7    0    0  3.65603649676E+01  1.08211209493E+02  8.63958481951E-01  1.14223831728E+02  1.05660000019E-01 0.00000000000E+00  1.
       14    1    7    7    0    0  7.48096845622E+01  4.46489745697E+01 -3.58864691949E+01  9.42223885586E+01  1.43051147461E-06 0.00000000000E+00  1.
</event>
<event>
 9 110   1.0000000E+00   3.1250000E+01   7.8125000E-03   1.5660620E-01
        5   -1    0    0  501    0  0.00000000000E+00  0.00000000000E+00  5.10091468560E+02  5.10091468560E+02  0.00000000000E+00 0.00000000000E+00  1.
        2   -1    0    0  502    0  0.00000000000E+00  0.00000000000E+00 -1.15332207053E+03  1.15332207053E+03  0.00000000000E+00 0.00000000000E+00  1.
       25    1    1    2    0    0 -1.08369587946E+02  3.57698582377E+02 -2.87347869484E+02  4.87735626670E+02  1.25000000000E+02 0.00000000000E+00  1.
        6    2    1    2  501    0 -4.98105882947E+01 -6.19675769525E+02  7.29879195260E+01  6.48816402250E+02  1.70752257346E+02 0.00000000000E+00  1.
        1    1    1    2  502    0  1.58180176241E+02  2.61977187148E+02 -4.28870652013E+02  5.26861510171E+02  9.34406182397E-06 0.00000000000E+00  1.
        5    1    4    4  501    0 -5.59486028695E+01 -8.41096500329E+01  2.89380035584E+01  1.05188639794E+02  4.75000000000E+00 0.00000000000E+00  1.
       24    2    4    4    0    0  6.13801457472E+00 -5.35566119492E+02  4.40499159675E+01  5.43627762456E+02  8.19878371800E+01 0.00000000000E+00  1.
       -1    1    7    7    0  703  1.04414026688E+01 -2.33503725642E+01  1.69352575641E+01  3.06767947697E+01  4.98973120128E-06 0.00000000000E+00  1.
        2    1    7    7  703    0 -4.30338809408E+00 -5.12215746928E+02  2.71146584034E+01  5.12950967686E+02  7.50166545990E-06 0.00000000000E+00  1.
</event>
<event>
 9 110   1.0000000E+00   3.1250000E+01   7.8125000E-03   1.5660620E-01
        2   -1    0    0  502    0  0.00000000000E+00  0.00000000000E+00  3.16956565154E+03  3.16956565154E+03  0.00000000000E+00 0.00000000000E+00  1.
        5   -1    0    0  501    0  0.00000000000E+00  0.00000000000E+00 -5.77972201951E+02  5.77972201951E+02  0.00000000000E+00 0.00000000000E+00  1.
       25    1    1    2    0    0  6.95897196018E+02  6.55417998625E+01  5.56561851231E+02  9.02194396569E+02  1.25000000000E+02 0.00000000000E+00  1.
        6    2    1    2  501    0 -6.39566805297E+02 -4.44381983883E+02  2.36318564660E+01  7.97803000757E+02  1.71493782219E+02 0.00000000000E+00  1.
        1    1    1    2  502    0 -5.63303907212E+01  3.78840184020E+02  2.01139974189E+03  2.04754045616E+03  2.15791864376E-05 0.00000000000E+00  1.
        5    1    4    4  501    0 -2.93599603238E+02 -1.28553541500E+02  3.39101316885E+01  3.22333987635E+02  4.75000000000E+00 0.00000000000E+00  1.
       24    2    4    4    0    0 -3.45967202059E+02 -3.15828442383E+02 -1.02782752225E+01  4.75469013122E+02  8.07727031803E+01 0.00000000000E+00  1.
      -13    1    7    7    0    0 -4.69314383160E+01 -6.10031662107E+01  2.51953817909E+01  8.09862001687E+01  1.05660000124E-01 0.00000000000E+00  1.
       14    1    7    7    0    0 -2.99035763743E+02 -2.54825276172E+02 -3.54736570134E+01  3.94482812953E+02  5.33120149970E-06 0.00000000000E+00  1.
</event>
<event>
 9 110   1.0000000E+00   3.1250000E+01   7.8125000E-03   1.5660620E-01
        5   -1    0    0  501    0  0.00000000000E+00  0.00000000000E+00  1.75934795737E+02  1.75934795737E+02  0.00000000000E+00 0.00000000000E+00  1.
        2   -1    0    0  502    0  0.00000000000E+00  0.00000000000E+00 -2.93137412899E+02  2.93137412899E+02  0.00000000000E+00 0.00000000000E+00  1.
       25    1    1    2    0    0 -7.16408038263E+01 -6.59032763634E-01 -1.84127060927E+02  2.33796094199E+02  1.25000000000E+02 0.00000000000E+00  1.
        6    2    1    2  501    0  6.88880025074E+01  2.83149408236E+01  3.61557835561E+01  1.93813629987E+02  1.75240376971E+02 0.00000000000E+00  1.
        1    1    1    2  502    0  2.75280131895E+00 -2.76559080600E+01  3.07686602091E+01  4.14624844502E+01  5.84003863998E-07 0.00000000000E+00  1.
        5    1    4    4  501    0  8.02455511711E+01  1.20172423693E+01  6.83703118811E+01  1.06211226542E+02  4.75000000000E+00 0.00000000000E+00  1.
       24    2    4    4    0    0 -1.13575486637E+01  1.62976984543E+01 -3.22145283250E+01  8.76024034450E+01  7.90050401403E+01 0.00000000000E+00  1.
      -15    1    7    7    0    0  9.23294264393E+00  4.73628701759E+00 -5.42750906421E+01  5.52867264995E+01  1.77680000000E+00 0.00000000000E+00  1.
       16    1    7    7    0    0 -2.05904913076E+01  1.15614114367E+01  2.20605623171E+01  3.23156769455E+01  1.28392334154E-06 0.00000000000E+00  1.
</event>
<event>
 9 110   1.0000000E+00   3.1250000E+01   7.8125000E-03   1.5660620E-01
        2   -1    0    0  502    0  0.00000000000E+00  0.00000000000E+00  1.76274469763E+03  1.76274469763E+03  0.00000000000E+00 0.00000000000E+00  1.
        5   -1    0    0  501    0  0.00000000000E+00  0.00000000000E+00 -6.41027975640E+02  6.41027975640E+02  0.00000000000E+00 0.00000000000E+00  1.
       25    1    1    2    0    0  3.49366867513E+00 -9.72852339416E+02  6.59521940653E+02  1.18196788037E+03  1.25000000000E+02 0.00000000000E+00  1.
        6    2    1    2  501    0  8.27697864921E+01  3.70922639744E+02 -5.76224951214E+01  4.21823075639E+02  1.73723668414E+02 0.00000000000E+00  1.
        1    1    1    2  502    0 -8.62634551672E+01  6.01929699672E+02  5.19817276457E+02  7.99981717259E+02  1.52587890625E-05 0.00000000000E+00  1.
        5    1    4    4  501    0 -1.27350961911E+01  2.25961425050E+02 -2.86272748265E+01  2.28172810934E+02  4.75000000000E+00 0.00000000000E+00  1.
       24    2    4    4    0    0  9.55048826832E+01  1.44961214694E+02 -2.89952202949E+01  1.93650264705E+02  8.07760226704E+01 0.00000000000E+00  1.
       -3    1    7    7    0  703  2.99180672382E+00 -1.32414735572E+00  1.47624763800E+01  1.51206806250E+01  2.21742096397E-06 0.00000000000E+00  1.
        4    1    7    7  703    0  9.25130759593E+01  1.46285362050E+02 -4.37576966749E+01  1.78529584080E+02  1.71926082395E-06 0.00000000000E+00  1.
</event>
<event>
 9 110   1.0000000E+00   3.1250000E+01   7.8125000E-03   1.5660620E-01
        5   -1    0    0  501    0  0.00000000000E+00  0.00000000000E+00  9.98563722555E+01  9.98563722555E+01  0.00000000000E+00 0.00000000000E+00  1.
       -3   -1    0    0    0  502  0.00000000000E+00  0.00000000000E+00 -1.56522616396E+03  1.56522616396E+03  0.00000000000E+00 0.00000000000E+00  1.
       25    1    1    2    0    0 -5.29703089194E+01  2.38113125120E+01 -5.07227362994E+02  5.25620994634E+02  1.25000000000E+02 0.00000000000E+00  1.
        6    2    1    2  501    0  9.67328904304E+01  6.00328005669E+01 -3.39030742817E+01  2.10395675717E+02  1.73654060361E+02 0.00000000000E+00  1.
       -4    1    1    2    0  502 -4.37625815111E+01 -8.38441130789E+01 -9.24239354427E+02  9.29065865862E+02  1.07895932188E-05 0.00000000000E+00  1.
        5    1    4    4  501    0  1.73478313330E+01 -5.32288703617E+00  5.13624310235E+01  5.46803639252E+01  4.75000000000E+00 0.00000000000E+00  1.
       24    2    4    4    0    0  7.93850590975E+01  6.53556876031E+01 -8.52655053051E+01  1.55715311792E+02  8.00231117963E+01 0.00000000000E+00  1.
       -1    1    7    7    0  703  2.00744690852E+01  2.75531856104E+01 -7.78563927256E+01  8.49928246064E+01  9.53674316406E-07 0.00000000000E+00  1.
        2    1    7    7  703    0  5.93105900122E+01  3.78025019926E+01 -7.40911257959E+00  7.07224871856E+01  9.86632428005E-07 0.00000000000E+00  1.
</event>
<event>
 9 110   1.0000000E+00   3.1250000E+01   7.8125000E-03   1.5660620E-01
        5   -1    0    0  501    0  0.00000000000E+00  0.00000000000E+00  1.03047493910E+02  1.03047493910E+02  0.00000000000E+00 0.00000000000E+00  1.
        2   -1    0    0  502    0  0.00000000000E+00  0.00000000000E+00 -1.98299892730E+03  1.98299892730E+03  0.00000000000E+00 0.00000000000E+00  1.
       25    1    1    2    0    0 -1.00078224332E+02 -2.88721200459E+02 -8.97952417888E+02  9.56723119492E+02  1.25000000000E+02 0.00000000000E+00  1.
        6    2    1    2  501    0 -2.90066139077E+01  2.78872783706E+02 -3.37228154142E+02  4.71684076583E+02  1.73642238564E+02 0.00000000000E+00  1.
        1    1    1    2  502    0  1.29084838239E+02  9.84841675257E+00 -6.44770861366E+02  6.57639225140E+02  0.00000000000E+00 0.00000000000E+00  1.
        5    1    4    4  501    0 -8.04204988315E+01  1.29216852467E+02 -1.60594756710E+02  2.21309037268E+02  4.75000000000E+00 0.00000000000E+00  1.
       24    2    4    4    0    0  5.14138849238E+01  1.49655931240E+02 -1.76633397432E+02  2.50375039315E+02  8.02995510921E+01 0.00000000000E+00  1.
       -1    1    7    7    0  703  4.25940264299E+01  1.14176795088E+02 -1.75673938980E+02  2.13803471583E+02  0.00000000000E+00 0.00000000000E+00  1.
        2    1    7    7  703    0  8.81985849394E+00  3.54791361512E+01 -9.59458452135E-01  3.65715677325E+01  1.45188858280E-06 0.00000000000E+00  1.
</event>
<event>
 9 110   1.0000000E+00   3.1250000E+01   7.8125000E-03   1.5660620E-01
        5   -1    0    0  501    0  0.00000000000E+00  0.00000000000E+00  3.66251067039E+02  3.66251067039E+02  0.00000000000E+00 0.00000000000E+00  1.
        2   -1    0    0  502    0  0.00000000000E+00  0.00000000000E+00 -2.40695159330E+03  2.40695159330E+03  0.00000000000E+00 0.00000000000E+00  1.
       25    1    1    2    0    0 -9.41200608154E+00 -4.64472895201E+01 -5.39346458395E+02  5.55666751520E+02  1.25000000000E+02 0.00000000000E+00  1.
        6    2    1    2  501    0  1.03877354579E+02  1.68127500263E+02  3.06159610288E+02  4.03469903276E+02  1.73196116406E+02 0.00000000000E+00  1.
        1    1    1    2  502    0 -9.44653484975E+01 -1.21680210743E+02 -1.80751367816E+03  1.81406600555E+03  3.05175781250E-05 0.00000000000E+00  1.
        5    1    4    4  501    0  1.78304355347E+01  9.91527934747E+01  2.19772158923E+02  2.41808943637E+02  4.75000000000E+00 0.00000000000E+00  1.
       24    2    4    4    0    0  8.60469190443E+01  6.89747067888E+01  8.63874513653E+01  1.61660959639E+02  8.06838996595E+01 0.00000000000E+00  1.
      -13    1    7    7    0    0  5.06682544457E+01  8.40694874269E+01  6.33488141208E+01  1.16824801046E+02  1.05659999989E-01 0.00000000000E+00  1.
       14    1    7    7    0    0  3.53786645986E+01 -1.50947806381E+01  2.30386372445E+01  4.48361585930E+01  3.37174788087E-07 0.00000000000E+00  1.
</event>
<event>
 9 110   1.0000000E+00   3.1250000E+01   7.8125000E-03   1.5660620E-01
        5   -1    0    0  501    0  0.00000000000E+00  0.00000000000E+00  2.33986173511E+01  2.33986173511E+01  0.00000000000E+00 0.00000000000E+00  1.
        2   -1    0    0  502    0  0.00000000000E+00  0.00000000000E+00 -2.31797479703E+03  2.31797479703E+03  0.00000000000E+00 0.00000000000E+00  1.
       25    1    1    2    0    0 -8.14168694433E+01 -1.10979357895E+02 -8.92711796624E+02  9.11868672749E+02  1.25000000000E+02 0.00000000000E+00  1.
        6    2    1    2  501    0  7.59133062048E+01  6.50707295639E+01 -7.54146078530E+02  7.80138209249E+02  1.72864941104E+02 0.00000000000E+00  1.
        1    1    1    2  502    0  5.50356323844E+00  4.59086283307E+01 -6.47718304523E+02  6.49366532382E+02  0.00000000000E+00 0.00000000000E+00  1.
        5    1    4    4  501    0  8.98170513589E+01 -4.67698921735E+00 -4.18763593070E+02  4.28339218755E+02  4.75000000000E+00 0.00000000000E+00  1.
       24    2    4    4    0    0 -1.39037451541E+01  6.97477187812E+01 -3.35382485460E+02  3.51798990494E+02  7.88863724254E+01 0.00000000000E+00  1.
       -1    1    7    7    0  703  2.66680674417E+00 -3.70026079835E+00  2.78935082675E+00  5.34642555557E+00  7.43399203864E-06 0.00000000000E+00  1.
        2    1    7    7  703    0 -1.65705518982E+01  7.34479795796E+01 -3.38171836287E+02  3.46452564938E+02  1.14440917969E-05 0.00000000000E+00  1.
</event>
<event>
 9 110   1.0000000E+00   3.1250000E+01   7.8125000E-03   1.5660620E-01
        2   -1    0    0  502    0  0.00000000000E+00  0.00000000000E+00  1.25237621252E+03  1.25237621252E+03  0.00000000000E+00 0.00000000000E+00  1.
        5   -1    0    0  501    0  0.00000000000E+00  0.00000000000E+00 -1.48106850957E+02  1.48106850957E+02  0.00000000000E+00 0.00000000000E+00  1.
       25    1    1    2    0    0 -1.85263713158E+02 -1.04533040325E+02  5.62482963087E+02  6.14216479505E+02  1.25000000000E+02 0.00000000000E+00  1.
        6    2    1    2  501    0  1.30041505863E+02  1.50991142395E+02  2.60614675329E+01  2.65517074301E+02  1.73525209484E+02 0.00000000000E+00  1.
        1    1    1    2  502    0  5.52222072947E+01 -4.64581020698E+01  5.15724930947E+02  5.20749509675E+02  0.00000000000E+00 0.00000000000E+00  1.
        5    1    4    4  501    0  1.24387827519E+02  5.82127883197E+01  5.14550149195E+00  1.37513995813E+02  4.75000000000E+00 0.00000000000E+00  1.
       24    2    4    4    0    0  5.65367834372E+00  9.27783540755E+01  2.09159660409E+01  1.28003078487E+02  8.54840535016E+01 0.00000000000E+00  1.
      -13    1    7    7    0    0 -1.66399071855E+01  8.07507378297E+01 -1.52523549850E+01  8.38463694373E+01  1.05660000005E-01 0.00000000000E+00  1.
       14    1    7    7    0    0  2.22935855293E+01  1.20276162458E+01  3.61683210259E+01  4.41567090502E+01  1.06624029994E-06 0.00000000000E+00  1.
</event>
<event>
 9 110   1.0000000E+00   3.1250000E+01   7.8125000E-03   1.5660620E-01
        5   -1    0    0  501    0  0.00000000000E+00  0.00000000000E+00  1.44870520424E+03  1.44870520424E+03  0.00000000000E+00 0.00000000000E+00  1.
        2   -1    0    0  502    0  0.00000000000E+00  0.00000000000E+00 -4.83425527693E+02  4.83425527693E+02  0.00000000000E+00 0.00000000000E+00  1.
       25    1    1    2    0    0 -2.49035275983E+02 -4.87355295723E+02  9.63252741288E+01  5.69593988196E+02  1.25000000000E+02 0.00000000000E+00  1.
        6    2    1    2  501    0  3.98816102249E+02  4.00550137084E+02  9.88625646366E+02  1.15208333294E+03  1.74415141730E+02 0.00000000000E+00  1.
        1    1    1    2  502    0 -1.49780826266E+02  8.68051586387E+01 -1.19671243952E+02  2.10453410788E+02  1.84431835230E-05 0.00000000000E+00  1.
        5    1    4    4  501    0  2.28658001310E+02  2.56267091192E+02  6.89047472580E+02  7.69913167545E+02  4.75000000002E+00 0.00000000000E+00  1.
       24    2    4    4    0    0  1.70158100940E+02  1.44283045892E+02  2.99578173786E+02  3.82170165399E+02  8.08429122744E+01 0.00000000000E+00  1.
      -15    1    7    7    0    0  8.67395929433E+01  2.81661321833E+01  8.74945533001E+01  1.26394390151E+02  1.77680000000E+00 0.00000000000E+00  1.
       16    1    7    7    0    0  8.34185079964E+01  1.16116913708E+02  2.12083620486E+02  2.55775775249E+02  2.69739830470E-06 0.00000000000E+00  1.
</event>
<event>
 9 110   1.0000000E+00   3.1250000E+01   7.8125000E-03   1.5660620E-01
        5   -1    0    0  501    0  0.00000000000E+00  0.00000000000E+00  7.07679677253E+01  7.07679677253E+01  0.00000000000E+00 0.00000000000E+00  1.
        2   -1    0    0  502    0  0.00000000000E+00  0.00000000000E+00 -1.58995892532E+03  1.58995892532E+03  0.00000000000E+00 0.00000000000E+00  1.
       25    1    1    2    0    0  1.18565247617E+02 -1.93661643003E+02 -1.00692755441E+03  1.03975509123E+03  1.25000000000E+02 0.00000000000E+00  1.
        6    2    1    2  501    0 -3.22121491019E+01  1.65077704046E+02 -4.49846339471E+02  5.10655035035E+02  1.73547010196E+02 0.00000000000E+00  1.
        1    1    1    2  502    0 -8.63530985153E+01  2.85839389566E+01 -6.24170637106E+01  1.10316766775E+02  3.87384338600E-06 0.00000000000E+00  1.
        5    1    4    4  501    0 -4.90847020194E+01 -7.44704067557E+00 -8.92873990316E+01  1.02272031920E+02  4.75000000000E+00 0.00000000000E+00  1.
       24    2    4    4    0    0  1.68725529175E+01  1.72524744722E+02 -3.60558940439E+02  4.08383003115E+02  8.20027872657E+01 0.00000000000E+00  1.
       -3    1    7    7    0  703 -1.23445943687E+01  1.06062915601E+02 -1.39296772772E+02  1.75514449492E+02  4.67203091199E-06 0.00000000000E+00  1.
        2    1    7    7  703    0  2.92171472862E+01  6.64618291214E+01 -2.21262167667E+02  2.32868553623E+02  2.69739830470E-06 0.00000000000E+00  1.
</event>
<event>
 9 110   1.0000000E+00   3.1250000E+01   7.8125000E-03   1.5660620E-01
        2   -1    0    0  502    0  0.00000000000E+00  0.00000000000E+00  1.78957330335E+03  1.78957330335E+03  0.00000000000E+00 0.00000000000E+00  1.
        5   -1    0    0  501    0  0.00000000000E+00  0.00000000000E+00 -4.75625287412E+02  4.75625287412E+02  0.00000000000E+00 0.00000000000E+00  1.
       25    1    1    2    0    0  3.59657608329E+02  1.63735275106E+02  4.25577236361E+02  5.94057084506E+02  1.25000000000E+02 0.00000000000E+00  1.
        6    2    1    2  501    0 -3.49529714599E+02 -1.27801844411E+02 -2.83253669623E+02  4.98922398906E+02  1.73742873100E+02 0.00000000000E+00  1.
        1    1    1    2  502    0 -1.01278937303E+01 -3.59334306949E+01  1.17162444920E+03  1.17221910735E+03  2.64289979182E-05 0.00000000000E+00  1.
        5    1    4    4  501    0 -2.19594096078E+02 -1.37881703337E+01 -1.62473016319E+02  2.73553878066E+02  4.75000000000E+00 0.00000000000E+00  1.
       24    2    4    4    0    0 -1.29935618521E+02 -1.14013674077E+02 -1.20780653304E+02  2.25368520840E+02  7.95023341541E+01 0.00000000000E+00  1.
       -3    1    7    7    0  703 -4.86400487804E+01 -2.64028726667E+01 -8.34904325739E+01  1.00167950772E+02  9.53674316406E-07 0.00000000000E+00  1.
        4    1    7    7  703    0 -8.12955697410E+01 -8.76108014107E+01 -3.72902207297E+01  1.25200570068E+02  1.26159253648E-06 0.00000000000E+00  1.
</event>
<event>
 9 110   1.0000000E+00   3.1250000E+01   7.8125000E-03   1.5660620E-01
        5   -1    0    0  501    0  0.00000000000E+00  0.00000000000E+00  6.34266433217E+02  6.34266433217E+02  0.00000000000E+00 0.00000000000E+00  1.
        2   -1    0    0  502    0  0.00000000000E+00  0.00000000000E+00 -1.06744966046E+03  1.06744966046E+03  0.00000000000E+00 0.00000000000E+00  1.
       25    1    1    2    0    0 -2.22408226381E+02 -4.76396706111E+02 -8.08808165291E+02  9.72735775530E+02  1.25000000000E+02 0.00000000000E+00  1.
        6    2    1    2  501    0  4.94293357255E+01  3.72177536595E+02  1.88994132119E+02  4.53999610404E+02  1.71573559430E+02 0.00000000000E+00  1.
        1    1    1    2  502    0  1.72978890655E+02  1.04219169515E+02  1.86630805932E+02  2.74980707741E+02  6.03156597170E-06 0.00000000000E+00  1.
        5    1    4    4  501    0 -3.83838316157E+00  2.31109311136E+02  6.11636712095E+01  2.39143898218E+02  4.75000000000E+00 0.00000000000E+00  1.
       24    2    4    4    0    0  5.32677188871E+01  1.41068225459E+02  1.27830460909E+02  2.14855712186E+02  8.41703998638E+01 0.00000000000E+00  1.
      -11    1    7    7    0    0  5.17427687978E+01  1.50416631558E+02  1.29649333931E+02  2.05210689198E+02  5.10995038018E-04 0.00000000000E+00  1.
       12    1    7    7    0    0  1.52495008921E+00 -9.34840609900E+00 -1.81887302227E+00  9.64502298792E+00  1.18480631005E-06 0.00000000000E+00  1.
</event>
<event>
 9 110   1.0000000E+00   3.1250000E+01   7.8125000E-03   1.5660620E-01
        5   -1    0    0  501    0  0.00000000000E+00  0.00000000000E+00  1.13849214146E+02  1.13849214146E+02  0.00000000000E+00 0.00000000000E+00  1.
        2   -1    0    0  502    0  0.00000000000E+00  0.00000000000E+00 -1.04964758914E+03  1.04964758914E+03  0.00000000000E+00 0.00000000000E+00  1.
       25    1    1    2    0    0 -1.55775741954E+01 -9.16288486675E+01  2.97609708606E+01  1.58585062703E+02  1.25000000000E+02 0.00000000000E+00  1.
        6    2    1    2  501    0  3.83557574520E+01  1.51280526297E+01 -8.15356429966E+02  8.34817256933E+02  1.74395305214E+02 0.00000000000E+00  1.
        1    1    1    2  502    0 -2.27781832566E+01  7.65007960378E+01 -1.50202915891E+02  1.70094483652E+02  5.72204589844E-06 0.00000000000E+00  1.
        5    1    4    4  501    0  3.06908245098E+01 -4.61753334145E+01 -1.21092444017E+02  1.33266764885E+02  4.75000000001E+00 0.00000000000E+00  1.
       24    2    4    4    0    0  7.66493294224E+00  6.13033860442E+01 -6.94263985950E+02  7.01550492048E+02  7.97104407792E+01 0.00000000000E+00  1.
       -3    1    7    7    0  703 -2.26689191933E+01  4.98158802848E+00 -6.45571338260E+01  6.86026212656E+01  7.13664510112E-06 0.00000000000E+00  1.
        4    1    7    7  703    0  3.03338521355E+01  5.63217980157E+01 -6.29706852124E+02  6.32947870783E+02  0.00000000000E+00 0.00000000000E+00  1.
</event>
<event>
 9 110   1.0000000E+00   3.1250000E+01   7.8125000E-03   1.5660620E-01
        2   -1    0    0  502    0  0.00000000000E+00  0.00000000000E+00  4.28061499885E+02  4.28061499885E+02  0.00000000000E+00 0.00000000000E+00  1.
        5   -1    0    0  501    0  0.00000000000E+00  0.00000000000E+00 -5.83434765128E+02  5.83434765128E+02  0.00000000000E+00 0.00000000000E+00  1.
       25    1    1    2    0    0  1.92077898168E+02  1.30065464106E+02 -4.19923882596E+02  4.95753982427E+02  1.25000000000E+02 0.00000000000E+00  1.
        6    2    1    2  501    0 -5.39498870538E+01  5.30828482185E+01  3.66314682718E+01  1.92369757038E+02  1.73019882866E+02 0.00000000000E+00  1.
        1    1    1    2  502    0 -1.38128011114E+02 -1.83148312325E+02  2.27919149080E+02  3.23372525548E+02  3.81469726562E-06 0.00000000000E+00  1.
        5    1    4    4  501    0 -8.34363692782E+01  3.99521982229E+01 -8.98977739250E+00  9.30654847875E+01  4.75000000000E+00 0.00000000000E+00  1.
       24    2    4    4    0    0  2.94864822244E+01  1.31306499955E+01  4.56212456643E+01  9.93042722507E+01  8.20863802832E+01 0.00000000000E+00  1.
       -1    1    7    7    0  703  6.15405289043E+00 -2.78155737510E+01  4.36647319390E+01  5.21362381207E+01  1.16800772800E-06 0.00000000000E+00  1.
        2    1    7    7  703    0  2.33324293340E+01  4.09462237466E+01  1.95651372528E+00  4.71680341300E+01  7.03044301992E-07 0.00000000000E+00  1.
</event>
<event>
 9 110   1.0000000E+00   3.1250000E+01   7.8125000E-03   1.5660620E-01
        2   -1    0    0  502    0  0.00000000000E+00  0.00000000000E+00  1.77180271789E+03  1.77180271789E+03  0.00000000000E+00 0.00000000000E+00  1.
        5   -1    0    0  501    0  0.00000000000E+00  0.00000000000E+00 -1.13027021335E+03  1.13027021335E+03  0.00000000000E+00 0.00000000000E+00  1.
       25    1    1    2    0    0 -3.60438604927E+02 -9.64494217465E+01  6.20193855433E+02  7.34495675408E+02  1.25000000000E+02 0.00000000000E+00  1.
        6    2    1    2  501    0  2.92128119897E+02  1.97933107801E+01 -1.04361833942E+03  1.09768199501E+03  1.73308713597E+02 0.00000000000E+00  1.
        1    1    1    2  502    0  6.83104850303E+01  7.66561109663E+01  1.06495698853E+03  1.06989526082E+03  3.41196895981E-05 0.00000000000E+00  1.
        5    1    4    4  501    0  9.19089885061E+01  5.96855446601E+01 -2.26584266835E+02  2.51739188222E+02  4.74999999999E+00 0.00000000000E+00  1.
       24    2    4    4    0    0  2.00219131391E+02 -3.98922338799E+01 -8.17034072584E+02  8.45942806787E+02  7.99716555535E+01 0.00000000000E+00  1.
       -3    1    7    7    0  703  4.37248629621E+01 -3.02041788279E+01 -1.16080017114E+02  1.27666465577E+02  6.18051595536E-06 0.00000000000E+00  1.
        4    1    7    7  703    0  1.56494268429E+02 -9.68805505205E+00 -7.00954055470E+02  7.18276341210E+02  1.32144989591E-05 0.00000000000E+00  1.
</event>
<event>
 9 110   1.0000000E+00   3.1250000E+01   7.8125000E-03   1.5660620E-01
        5   -1    0    0  501    0  0.00000000000E+00  0.00000000000E+00  3.25252333351E+03  3.25252333351E+03  0.00000000000E+00 0.00000000000E+00  1.
        2   -1    0    0  502    0  0.00000000000E+00  0.00000000000E+00 -9.36796014683E+02  9.36796014683E+02  0.00000000000E+00 0.00000000000E+00  1.
       25    1    1    2    0    0  4.68175217970E+02 -2.11932944301E+02  1.04616009284E+03  1.17225404561E+03  1.25000000000E+02 0.00000000000E+00  1.
        6    2    1    2  501    0 -5.04419196465E+02  8.98209558736E+01  2.10419078065E+03  2.17277776762E+03  1.75607107481E+02 0.00000000000E+00  1.
        1    1    1    2  502    0  3.62439784949E+01  1.22111988427E+02 -8.34623554664E+02  8.44287534964E+02  4.03709611674E-05 0.00000000000E+00  1.
        5    1    4    4  501    0 -9.30695941806E+01  2.48246088426E+01  6.94098406568E+02  7.00766274206E+02  4.75000000004E+00 0.00000000000E+00  1.
       24    2    4    4    0    0 -4.11349602284E+02  6.49963470310E+01  1.41009237409E+03  1.47201149341E+03  7.08823875077E+01 0.00000000000E+00  1.
       -3    1    7    7    0  703 -3.33157671802E+02  2.73271126981E+01  1.06869715556E+03  1.11975640908E+03  3.05175781250E-05 0.00000000000E+00  1.
        4    1    7    7  703    0 -7.81919304823E+01  3.76692343329E+01  3.41395218528E+02  3.52255084338E+02  5.39479660939E-06 0.00000000000E+00  1.
</event>
<event>
 9 110   1.0000000E+00   3.1250000E+01   7.8125000E-03   1.5660620E-01
        5   -1    0    0  501    0  0.00000000000E+00  0.00000000000E+00  3.94486615108E+02  3.94486615108E+02  0.00000000000E+00 0.00000000000E+00  1.
        2   -1    0    0  502    0  0.00000000000E+00  0.00000000000E+00 -1.23438129817E+03  1.23438129817E+03  0.00000000000E+00 0.00000000000E+00  1.
       25    1    1    2    0    0  1.86122828775E+02  1.98189377484E+02 -3.86854888266E+02  4.89083266238E+02  1.25000000000E+02 0.00000000000E+00  1.
        6    2    1    2  501    0 -6.60818087646E+00 -2.79838953614E+02  2.47472789675E+02  4.12041530897E+02  1.73729483795E+02 0.00000000000E+00  1.
        1    1    1    2  502    0 -1.79514647899E+02  8.16495761298E+01 -7.00512584468E+02  7.27743116141E+02  1.52587890625E-05 0.00000000000E+00  1.
        5    1    4    4  501    0 -6.17785153459E+01 -5.18276750526E+01  6.69880656679E+01  1.04941204022E+02  4.75000000000E+00 0.00000000000E+00  1.
       24    2    4    4    0    0  5.51703344695E+01 -2.28011278561E+02  1.80484724007E+02  3.07100326874E+02  8.18716447228E+01 0.00000000000E+00  1.
       -1    1    7    7    0  703  1.72576847487E+01  6.70542478214E-02  1.27924463368E+01  2.14820590828E+01  2.47197644154E-06 0.00000000000E+00  1.
        2    1    7    7  703    0  3.79126497208E+01 -2.28078332809E+02  1.67692277671E+02  2.85618267792E+02  1.90734863281E-06 0.00000000000E+00  1.
</event>
<event>
 9 110   1.0000000E+00   3.1250000E+01   7.8125000E-03   1.5660620E-01
        2   -1    0    0  502    0  0.00000000000E+00  0.00000000000E+00  1.89229135885E+03  1.89229135885E+03  0.00000000000E+00 0.00000000000E+00  1.
        5   -1    0    0  501    0  0.00000000000E+00  0.00000000000E+00 -2.27612506715E+02  2.27612506715E+02  0.00000000000E+00 0.00000000000E+00  1.
       25    1    1    2    0    0  1.23698680816E+02 -3.37376989844E+02  1.17663453783E+03  1.23661571740E+03  1.25000000000E+02 0.00000000000E+00  1.
        6    2    1    2  501    0 -6.90391017569E+01  1.31846888769E+02 -1.06731690903E+02  2.51632554977E+02  1.72560972505E+02 0.00000000000E+00  1.
        1    1    1    2  502    0 -5.46595790589E+01  2.05530101074E+02  5.94776005210E+02  6.31655593187E+02  1.07895932188E-05 0.00000000000E+00  1.
        5    1    4    4  501    0 -7.95467509905E+01  4.94447754252E+01 -7.40861952686E-01  9.37847684138E+01  4.75000000000E+00 0.00000000000E+00  1.
       24    2    4    4    0    0  1.05076492336E+01  8.24021133443E+01 -1.05990828950E+02  1.57847786563E+02  8.23489461097E+01 0.00000000000E+00  1.
      -11    1    7    7    0    0 -1.24874697664E+01 -7.95331132889E+00 -4.26108180196E+01  4.51095763095E+01  5.11000822499E-04 0.00000000000E+00  1.
       12    1    7    7    0    0  2.29951190000E+01  9.03554246732E+01 -6.33800109308E+01  1.12738210254E+02  0.00000000000E+00 0.00000000000E+00  1.
</event>
<event>
 9 110   1.0000000E+00   3.1250000E+01   7.8125000E-03   1.5660620E-01
        2   -1    0    0  502    0  0.00000000000E+00  0.00000000000E+00  3.14563317807E+02  3.14563317807E+02  0.00000000000E+00 0.00000000000E+00  1.
        5   -1    0    0  501    0  0.00000000000E+00  0.00000000000E+00 -4.04291128954E+02  4.04291128954E+02  0.00000000000E+00 0.00000000000E+00  1.
       25    1    1    2    0    0 -2.92921772710E+01  1.71065692759E+02  1.75242381238E+02  2.76507495505E+02  1.25000000000E+02 0.00000000000E+00  1.
        6    2    1    2  501    0  5.69223386550E+01 -5.25001699650E+01 -2.59532419296E+02  3.20483181457E+02  1.71335846940E+02 0.00000000000E+00  1.
        1    1    1    2  502    0 -2.76301613840E+01 -1.18565522794E+02 -5.43777308897E+00  1.21863769799E+02  2.03530443656E-06 0.00000000000E+00  1.
        5    1    4    4  501    0  8.86695920043E+01 -2.56200235040E+01 -1.69074140329E+02  1.92684481935E+02  4.75000000000E+00 0.00000000000E+00  1.
       24    2    4    4    0    0 -3.17472533493E+01 -2.68801464610E+01 -9.04582789678E+01  1.27798699522E+02  8.01210147011E+01 0.00000000000E+00  1.
       -1    1    7    7    0  703 -5.20677747232E+01 -3.58385452105E+01 -8.30909579628E+01  1.04400966387E+02  1.90734863281E-06 0.00000000000E+00  1.
        2    1    7    7  703    0  2.03205213738E+01  8.95839874945E+00 -7.36732100502E+00  2.33977331348E+01  1.37478859361E-06 0.00000000000E+00  1.
</event>
<event>
 9 110   1.0000000E+00   3.1250000E+01   7.8125000E-03   1.5660620E-01
        2   -1    0    0  502    0  0.00000000000E+00  0.00000000000E+00  1.61101991273E+03  1.61101991273E+03  0.00000000000E+00 0.00000000000E+00  1.
        5   -1    0    0  501    0  0.00000000000E+00  0.00000000000E+00 -6.51883647729E+01  6.51883647729E+01  0.00000000000E+00 0.00000000000E+00  1.
       25    1    1    2    0    0 -9.76195955649E+01  1.69995123860E+02  9.73335221728E+02  1.00071693372E+03  1.25000000000E+02 0.00000000000E+00  1.
        6    2    1    2  501    0  1.67004559964E+02 -1.37689535629E+02  3.97755072816E+02  4.84723343428E+02  1.72912377934E+02 0.00000000000E+00  1.
        1    1    1    2  502    0 -6.93849643988E+01 -3.23055882311E+01  1.74741253410E+02  1.90768000353E+02  4.26496119976E-06 0.00000000000E+00  1.
        5    1    4    4  501    0  2.59737381842E+01 -8.51831496482E+01  6.17520727100E+01  1.08474352006E+02  4.75000000000E+00 0.00000000000E+00  1.
       24    2    4    4    0    0  1.41030821780E+02 -5.25063859804E+01  3.36003000106E+02  3.76248991422E+02  7.75801147516E+01 0.00000000000E+00  1.
      -13    1    7    7    0    0  2.50231161092E+01 -4.68907380062E+01  1.07811772024E+02  1.20201027456E+02  1.05659999892E-01 0.00000000000E+00  1.
       14    1    7    7    0    0  1.16007705670E+02 -5.61564797420E+00  2.28191228082E+02  2.56047963965E+02  6.03156597170E-06 0.00000000000E+00  1.
</event>
<event>
 9 110   1.0000000E+00   3.1250000E+01   7.8125000E-03   1.5660620E-01
        2   -1    0    0  502    0  0.00000000000E+00  0.00000000000E+00  2.37403698245E+03  2.37403698245E+03  0.00000000000E+00 0.00000000000E+00  1.
        5   -1    0    0  501    0  0.00000000000E+00  0.00000000000E+00 -3.10626667928E+02  3.10626667928E+02  0.00000000000E+00 0.00000000000E+00  1.
       25    1    1    2    0    0  7.20169609832E+01 -1.07283357237E+02  5.76325759504E+02  6.03715613909E+02  1.25000000000E+02 0.00000000000E+00  1.
        6    2    1    2  501    0 -6.06278340850E+01 -3.10238429476E+02 -1.50536254325E+02  3.90901862609E+02  1.73837524532E+02 0.00000000000E+00  1.
        1    1    1    2  502    0 -1.13891268983E+01  4.17521786713E+02  1.63762080934E+03  1.69004617386E+03  4.31583728752E-05 0.00000000000E+00  1.
        5    1    4    4  501    0 -5.35353755240E+00  1.71565062220E+01 -1.22613966021E+01  2.22690461561E+01  4.75000000001E+00 0.00000000000E+00  1.
       24    2    4    4    0    0 -5.52742965326E+01 -3.27394935698E+02 -1.38274857723E+02  3.68632816453E+02  8.07931018705E+01 0.00000000000E+00  1.
       -1    1    7    7    0  703  2.06717059984E+01 -9.46596747076E+01 -3.77686175351E+01  1.03991547325E+02  4.52367447877E-06 0.00000000000E+00  1.
        2    1    7    7  703    0 -7.59460025309E+01 -2.32735260990E+02 -1.00506240187E+02  2.64641269127E+02  2.69739830470E-06 0.00000000000E+00  1.
</event>
<event>
 9 110   1.0000000E+00   3.1250000E+01   7.8125000E-03   1.5660620E-01
        5   -1    0    0  501    0  0.00000000000E+00  0.00000000000E+00  1.01911347268E+03  1.01911347268E+03  0.00000000000E+00 0.00000000000E+00  1.
        2   -1    0    0  502    0  0.00000000000E+00  0.00000000000E+00 -1.31032431749E+03  1.31032431749E+03  0.00000000000E+00 0.00000000000E+00  1.
       25    1    1    2    0    0 -5.74170137681E+02 -2.77315731494E+02 -7.91327710588E+02  1.02391401372E+03  1.25000000000E+02 0.00000000000E+00  1.
        6    2    1    2  501    0  6.02047943980E+01  5.80258739343E+02  2.33487306169E+02  6.52051388241E+02  1.74154726934E+02 0.00000000000E+00  1.
        1    1    1    2  502    0  5.13965343283E+02 -3.02943007849E+02  2.66629559614E+02  6.53472388216E+02  1.26519195189E-05 0.00000000000E+00  1.
        5    1    4    4  501    0 -3.36136943770E+01  1.10336110785E+02  9.94249661959E+00  1.15867827855E+02  4.75000000000E+00 0.00000000000E+00  1.
       24    2    4    4    0    0  9.38184887750E+01  4.69922628558E+02  2.23544809549E+02  5.36183560386E+02  8.88332307509E+01 0.00000000000E+00  1.
      -11    1    7    7    0    0  2.49429852257E+01  9.30244873205E+01  8.59511864858E+01  1.29086460219E+02  5.11049320571E-04 0.00000000000E+00  1.
       12    1    7    7    0    0  6.88755035493E+01  3.76898141237E+02  1.37593623063E+02  4.07097100168E+02  4.67203091199E-06 0.00000000000E+00  1.
</event>
<event>
 9 110   1.0000000E+00   3.1250000E+01   7.8125000E-03   1.5660620E-01
        5   -1    0    0  501    0  0.00000000000E+00  0.00000000000E+00  4.72027803110E+02  4.72027803110E+02  0.00000000000E+00 0.00000000000E+00  1.
        2   -1    0    0  502    0  0.00000000000E+00  0.00000000000E+00 -5.85307802531E+02  5.85307802531E+02  0.00000000000E+00 0.00000000000E+00  1.
       25    1    1    2    0    0  8.04601968567E+00 -2.17179035161E+02 -3.93569496637E+02  4.66640568778E+02  1.25000000000E+02 0.00000000000E+00  1.
        6    2    1    2  501    0 -1.03790210501E+02  1.85883311290E+02  3.66734842448E+02  4.57957814805E+02  1.72933230651E+02 0.00000000000E+00  1.
        1    1    1    2  502    0  9.57441908155E+01  3.12957238707E+01 -8.64453452326E+01  1.32737222059E+02  5.95569419708E-06 0.00000000000E+00  1.
        5    1    4    4  501    0 -1.24444017672E+01  8.94578756874E+01  4.61787735471E+01  1.01551052600E+02  4.75000000000E+00 0.00000000000E+00  1.
       24    2    4    4    0    0 -9.13458087339E+01  9.64254356026E+01  3.20556068901E+02  3.56406762205E+02  8.14104749503E+01 0.00000000000E+00  1.
      -15    1    7    7    0    0  1.73034710040E+00  3.75646247958E+01  1.39488101881E+02  1.44479004432E+02  1.77680000000E+00 0.00000000000E+00  1.
       16    1    7    7    0    0 -9.30761558343E+01  5.88608108068E+01  1.81067967020E+02  2.11927757773E+02  2.69739830470E-06 0.00000000000E+00  1.
</event>
<event>
 9 110   1.0000000E+00   3.1250000E+01   7.8125000E-03   1.5660620E-01
        5   -1    0    0  501    0  0.00000000000E+00  0.00000000000E+00  1.14799230938E+02  1.14799230938E+02  0.00000000000E+00 0.00000000000E+00  1.
        2   -1    0    0  502    0  0.00000000000E+00  0.00000000000E+00 -1.13613881208E+03  1.13613881208E+03  0.00000000000E+00 0.00000000000E+00  1.
       25    1    1    2    0    0  2.91514398921E+01 -9.01511831092E+01 -5.30085043970E+01  1.65565527216E+02  1.25000000000E+02 0.00000000000E+00  1.
        6    2    1    2  501    0 -1.95114137774E+02  2.73635785391E+01 -3.22319719779E+02  4.15434777124E+02  1.72851844351E+02 0.00000000000E+00  1.
        1    1    1    2  502    0  1.65962697882E+02  6.27876045701E+01 -6.46011356961E+02  6.69937738674E+02  7.62939453125E-06 0.00000000000E+00  1.
        5    1    4    4  501    0 -1.47650983330E+02  9.31361187038E+00 -2.75305219452E+02  3.12574923181E+02  4.74999999999E+00 0.00000000000E+00  1.
       24    2    4    4    0    0 -4.74631544447E+01  1.80499666687E+01 -4.70145003273E+01  1.02859853943E+02  7.61001575920E+01 0.00000000000E+00  1.
       -1    1    7    7    0  703  1.89660930046E+01 -3.00736295062E+00 -7.57533813550E-01  1.92179804677E+01  1.14850162192E-06 0.00000000000E+00  1.
        2    1    7    7  703    0 -6.64292474493E+01  2.10573296193E+01 -4.62569665138E+01  8.36418734752E+01  1.16800772800E-06 0.00000000000E+00  1.
</event>
<event>
 9 110   1.0000000E+00   3.1250000E+01   7.8125000E-03   1.5660620E-01
        2   -1    0    0  502    0  0.00000000000E+00  0.00000000000E+00  1.61659944876E+03  1.61659944876E+03  0.00000000000E+00 0.00000000000E+00  1.
        5   -1    0    0  501    0  0.00000000000E+00  0.00000000000E+00 -3.11044909834E+02  3.11044909834E+02  0.00000000000E+00 0.00000000000E+00  1.
       25    1    1    2    0    0  4.03525885893E+02 -2.45889393949E+02  4.27040431354E+02  6.49063374913E+02  1.25000000000E+02 0.00000000000E+00  1.
        6    2    1    2  501    0 -3.06196382856E+02  1.90117669470E+02  7.48894788945E+00  4.00362134980E+02  1.74163146694E+02 0.00000000000E+00  1.
        1    1    1    2  502    0 -9.73295030368E+01  5.57717244786E+01  8.71025159679E+02  8.78218848697E+02  1.86881236479E-05 0.00000000000E+00  1.
        5    1    4    4  501    0 -1.62515833099E+02  1.27864915899E+02 -5.48434168609E+01  2.13988774469E+02  4.75000000000E+00 0.00000000000E+00  1.
       24    2    4    4    0    0 -1.43680549758E+02  6.22527535710E+01  6.23323647503E+01  1.86373360511E+02  7.95625546796E+01 0.00000000000E+00  1.
      -13    1    7    7    0    0  6.09492307480E+00 -2.72065618493E+00  1.49542479725E+01  1.63765305795E+01  1.05660000037E-01 0.00000000000E+00  1.
       14    1    7    7    0    0 -1.49775472832E+02  6.49734097559E+01  4.73781167778E+01  1.69996829932E+02  9.53674316406E-07 0.00000000000E+00  1.
</event>
<event>
 9 110   1.0000000E+00   3.1250000E+01   7.8125000E-03   1.5660620E-01
        2   -1    0    0  502    0  0.00000000000E+00  0.00000000000E+00  1.53650463955E+03  1.53650463955E+03  0.00000000000E+00 0.00000000000E+00  1.
        5   -1    0    0  501    0  0.00000000000E+00  0.00000000000E+00 -5.77995972204E+02  5.77995972204E+02  0.00000000000E+00 0.00000000000E+00  1.
       25    1    1    2    0    0 -1.76288180955E+01  2.11745963688E+02 -2.80976990028E+02  3.73791649574E+02  1.25000000000E+02 0.00000000000E+00  1.
        6    2    1    2  501    0  8.15259843268E+01 -1.63750367472E+02 -1.85630871860E+02  3.13353523965E+02  1.73985463262E+02 0.00000000000E+00  1.
        1    1    1    2  502    0 -6.38971662313E+01 -4.79955962165E+01  1.42511652923E+03  1.42735543821E+03  0.00000000000E+00 0.00000000000E+00  1.
        5    1    4    4  501    0 -5.63508104774E+00 -2.36497750492E+00  2.29013663474E+01  2.41740012740E+01  4.75000000000E+00 0.00000000000E+00  1.
       24    2    4    4    0    0  8.71610653746E+01 -1.61385389967E+02 -2.08532238207E+02  2.89179522691E+02  8.06027701779E+01 0.00000000000E+00  1.
      -11    1    7    7    0    0 -1.56236306080E+01 -2.58169982944E+01 -2.92986874036E+01  4.20598183323E+01  5.11014059815E-04 0.00000000000E+00  1.
       12    1    7    7    0    0  1.02784695983E+02 -1.35568391672E+02 -1.79233550803E+02  2.47119704359E+02  3.81469726562E-06 0.00000000000E+00  1.
</event>
<event>
 9 110   1.0000000E+00   3.1250000E+01   7.8125000E-03   1.5660620E-01
        5   -1    0    0  501    0  0.00000000000E+00  0.00000000000E+00  2.00674510709E+01  2.00674510709E+01  0.00000000000E+00 0.00000000000E+00  1.
        2   -1    0    0  502    0  0.00000000000E+00  0.00000000000E+00 -2.57978438343E+03  2.57978438343E+03  0.00000000000E+00 0.00000000000E+00  1.
       25    1    1    2    0    0 -1.29278983424E+01  5.74050626287E+01 -1.74547868536E+03  1.75093783808E+03  1.25000000000E+02 0.00000000000E+00  1.
        6    2    1    2  501    0  2.81694582568E+01 -9.25052623600E+01 -7.34226672219E+02  7.60222501517E+02  1.71751866574E+02 0.00000000000E+00  1.
        1    1    1    2  502    0 -1.52415599144E+01  3.51001997313E+01 -8.00115747851E+01  8.86914949101E+01  2.52318507296E-06 0.00000000000E+00  1.
        5    1    4    4  501    0 -4.14726560198E+01 -1.82111677905E+00 -3.29401357299E+02  3.32040832360E+02  4.75000000000E+00 0.00000000000E+00  1.
       24    2    4    4    0    0  6.96421142766E+01 -9.06841455809E+01 -4.04825314920E+02  4.28181669157E+02  7.98897231271E+01 0.00000000000E+00  1.
       -1    1    7    7    0  703  2.46462108155E+01  4.10270558569E+00 -3.04912968978E+01  3.94206429069E+01  3.66265571016E-06 0.00000000000E+00  1.
        2    1    7    7  703    0  4.49959034611E+01 -9.47868511666E+01 -3.74334018022E+02  3.88761026250E+02  5.39479660939E-06 0.00000000000E+00  1.
</event>
<event>
 9 110   1.0000000E+00   3.1250000E+01   7.8125000E-03   1.5660620E-01
        2   -1    0    0  502    0  0.00000000000E+00  0.00000000000E+00  2.17295806072E+03  2.17295806072E+03  0.00000000000E+00 0.00000000000E+00  1.
        5   -1    0    0  501    0  0.00000000000E+00  0.00000000000E+00 -1.03640589270E+02  1.03640589270E+02  0.00000000000E+00 0.00000000000E+00  1.
       25    1    1    2    0    0 -2.50417094500E+02  1.79212349466E+01  2.11008695881E+02  3.50969459665E+02  1.25000000000E+02 0.00000000000E+00  1.
        6    2    1    2  501    0 -3.64574617893E+01  4.27324503735E+01  4.77407542539E+02  5.13940805455E+02  1.81829538316E+02 0.00000000000E+00  1.
        1    1    1    2  502    0  2.86874556290E+02 -6.06536853201E+01  1.38090123303E+03  1.41168838487E+03  2.15791864376E-05 0.00000000000E+00  1.
        5    1    4    4  501    0  9.67625682468E+00 -4.49556517133E+01  2.39366335186E+02  2.43789756732E+02  4.75000000000E+00 0.00000000000E+00  1.
       24    2    4    4    0    0 -4.61337186140E+01  8.76881020868E+01  2.38041207352E+02  2.70151048723E+02  8.06253650385E+01 0.00000000000E+00  1.
       -3    1    7    7    0  703  7.18297815648E+00  6.57225421338E+01  1.59963486154E+02  1.73087736776E+02  0.00000000000E+00 0.00000000000E+00  1.
        2    1    7    7  703    0 -5.33166967705E+01  2.19655599530E+01  7.80777211985E+01  9.70633119470E+01  1.90734863281E-06 0.00000000000E+00  1.
</event>
<event>
 9 110   1.0000000E+00   3.1250000E+01   7.8125000E-03   1.5660620E-01
        2   -1    0    0  502    0  0.00000000000E+00  0.00000000000E+00  2.60334544557E+03  2.60334544557E+03  0.00000000000E+00 0.00000000000E+00  1.
        5   -1    0    0  501    0  0.00000000000E+00  0.00000000000E+00 -3.77688716455E+02  3.77688716455E+02  0.00000000000E+00 0.00000000000E+00  1.
       25    1    1    2    0    0 -7.53337543871E+01 -5.40621823737E+02  1.50909474645E+02  5.79953274315E+02  1.25000000000E+02 0.00000000000E+00  1.
        6    2    1    2  501    0  2.06697817820E+02  3.96604911710E+02  2.06277393111E+02  5.22470494117E+02  1.74372046011E+02 0.00000000000E+00  1.
        1    1    1    2  502    0 -1.31364063433E+02  1.44016912028E+02  1.86846986136E+03  1.87861039359E+03  2.15791864376E-05 0.00000000000E+00  1.
        5    1    4    4  501    0  1.14201898655E+02  1.15710360638E+02  2.29751175505E+01  1.64260097838E+02  4.75000000000E+00 0.00000000000E+00  1.
       24    2    4    4    0    0  9.24959191651E+01  2.80894551072E+02  1.83302275561E+02  3.58210396278E+02  8.51922525366E+01 0.00000000000E+00  1.
       -3    1    7    7    0  703 -1.59703397490E+01  5.09289836063E+01  2.80324172146E+01  6.02878888150E+01  4.47312904341E-06 0.00000000000E+00  1.
        4    1    7    7  703    0  1.08466258914E+02  2.29965567465E+02  1.55269858346E+02  2.97922507464E+02  4.67203091199E-06 0.00000000000E+00  1.
</event>
<event>
 9 110   1.0000000E+00   3.1250000E+01   7.8125000E-03   1.5660620E-01
        2   -1    0    0  502    0  0.00000000000E+00  0.00000000000E+00  1.16383603764E+03  1.16383603764E+03  0.00000000000E+00 0.00000000000E+00  1.
        5   -1    0    0  501    0  0.00000000000E+00  0.00000000000E+00 -1.10502421645E+03  1.10502421645E+03  0.00000000000E+00 0.00000000000E+00  1.
       25    1    1    2    0    0  8.33275717910E+01  2.17306043066E+02 -3.92777887180E+01  2.67082656232E+02  1.25000000000E+02 0.00000000000E+00  1.
        6    2    1    2  501    0 -1.18110740600E+02  5.37703191689E+00 -9.28008131827E+02  9.51218605549E+02  1.72158889656E+02 0.00000000000E+00  1.
        1    1    1    2  502    0  3.47831688090E+01 -2.22683074983E+02  1.02609774174E+03  1.05055899231E+03  4.03709611674E-05 0.00000000000E+00  1.
        5    1    4    4  501    0 -7.22354672369E+01  1.28926830285E+01 -1.41960154303E+02  1.59873174461E+02  4.74999999999E+00 0.00000000000E+00  1.
       24    2    4    4    0    0 -4.58752733632E+01 -7.51565111160E+00 -7.86047977524E+02  7.91345431088E+02  7.87092282739E+01 0.00000000000E+00  1.
       -3    1    7    7    0  703  1.32452389111E+01 -6.81124691697E+00 -3.58442675269E+01  3.88154731121E+01  1.43527192529E-05 0.00000000000E+00  1.
        4    1    7    7  703    0 -5.91205122742E+01 -7.04404194628E-01 -7.50203709997E+02  7.52529957976E+02  1.86881236479E-05 0.00000000000E+00  1.
</event>
<event>
 9 110   1.0000000E+00   3.1250000E+01   7.8125000E-03   1.5660620E-01
        2   -1    0    0  502    0  0.00000000000E+00  0.00000000000E+00  1.69876119293E+03  1.69876119293E+03  0.00000000000E+00 0.00000000000E+00  1.
        5   -1    0    0  501    0  0.00000000000E+00  0.00000000000E+00 -5.34047392725E+02  5.34047392725E+02  0.00000000000E+00 0.00000000000E+00  1.
       25    1    1    2    0    0 -9.70337545505E+01  2.92178232136E+02  9.51126645068E+02  1.00749717807E+03  1.25000000000E+02 0.00000000000E+00  1.
        6    2    1    2  501    0  4.90507191792E+00  6.16668095818E+01 -4.39659153887E+02  4.76696187352E+02  1.73528753538E+02 0.00000000000E+00  1.
        1    1    1    2  502    0  9.21286826326E+01 -3.53845041718E+02  6.53246309020E+02  7.48615220230E+02  0.00000000000E+00 0.00000000000E+00  1.
        5    1    4    4  501    0  5.44456616707E+01  6.97669255275E+01 -2.06743143419E+02  2.24937866583E+02  4.75000000000E+00 0.00000000000E+00  1.
       24    2    4    4    0    0 -4.95405897528E+01 -8.10011594563E+00 -2.32916010469E+02  2.51758320769E+02  8.13172935626E+01 0.00000000000E+00  1.
       -3    1    7    7    0  703 -2.72448314435E+01  2.79713001067E+01 -4.71772135082E+01  6.12402150914E+01  2.13248059988E-06 0.00000000000E+00  1.
        4    1    7    7  703    0 -2.22957583092E+01 -3.60714160523E+01 -1.85738796961E+02  1.90518105678E+02  3.81469726562E-06 0.00000000000E+00  1.
</event>
<event>
 9 110   1.0000000E+00   3.1250000E+01   7.8125000E-03   1.5660620E-01
        5   -1    0    0  501    0  0.00000000000E+00  0.00000000000E+00  9.90349498700E+01  9.90349498700E+01  0.00000000000E+00 0.00000000000E+00  1.
        2   -1    0    0  502    0  0.00000000000E+00  0.00000000000E+00 -1.93038707255E+03  1.93038707255E+03  0.00000000000E+00 0.00000000000E+00  1.
       25    1    1    2    0    0 -2.90931125834E+02  6.95175524244E+01 -1.06301023965E+03  1.11134575164E+03  1.25000000000E+02 0.00000000000E+00  1.
        6    2    1    2  501    0  1.73866980887E+02 -2.12027723708E+00 -1.53395521152E+02  2.88468905263E+02  1.71609733918E+02 0.00000000000E+00  1.
        1    1    1    2  502    0  1.17064144947E+02 -6.73972751873E+01 -6.14946361879E+02  6.29607365525E+02  7.62939453125E-06 0.00000000000E+00  1.
        5    1    4    4  501    0  4.36371748232E+01 -3.83137674903E+01 -1.06571034501E+02  1.21458205571E+02  4.75000000000E+00 0.00000000000E+00  1.
       24    2    4    4    0    0  1.30229806064E+02  3.61934902532E+01 -4.68244866515E+01  1.67010699692E+02  8.61990147120E+01 0.00000000000E+00  1.
       -3    1    7    7    0  703  2.66862247471E+01  1.77378320165E+01  2.41525222796E+01  4.01264203283E+01  1.34869915235E-06 0.00000000000E+00  1.
        4    1    7    7  703    0  1.03543581317E+02  1.84556582368E+01 -7.09770089311E+01  1.26884279364E+02  2.13248059988E-06 0.00000000000E+00  1.
</event>
<event>
 9 110   1.0000000E+00   3.1250000E+01   7.8125000E-03   1.5660620E-01
        5   -1    0    0  501    0  0.00000000000E+00  0.00000000000E+00  4.26755080978E+02  4.26755080978E+02  0.00000000000E+00 0.00000000000E+00  1.
        2   -1    0    0  502    0  0.00000000000E+00  0.00000000000E+00 -3.73431560445E+03  3.73431560445E+03  0.00000000000E+00 0.00000000000E+00  1.
       25    1    1    2    0    0 -3.85861364734E+02 -1.00422410338E+02 -7.79978569177E+02  8.84853220409E+02  1.25000000000E+02 0.00000000000E+00  1.
        6    2    1    2  501    0  5.49528306931E+02 -7.92029059251E+01  1.40070113634E+02  5.97520080518E+02  1.70751718772E+02 0.00000000000E+00  1.
        1    1    1    2  502    0 -1.63666942196E+02  1.79625316264E+02 -2.66765206793E+03  2.67869738450E+03  3.05175781250E-05 0.00000000000E+00  1.
        5    1    4    4  501    0  1.30761467947E+01 -1.99020649248E+01  3.37219750039E+01  4.15549263196E+01  4.75000000000E+00 0.00000000000E+00  1.
       24    2    4    4    0    0  5.36452160136E+02 -5.93008410004E+01  1.06348138630E+02  5.55965154198E+02  8.05593956938E+01 0.00000000000E+00  1.
       -3    1    7    7    0  703  1.25084967227E+00 -4.45999024947E+00 -4.72344404559E+00  6.61566788615E+00  6.15084124048E-06 0.00000000000E+00  1.
        4    1    7    7  703    0  5.35201310464E+02 -5.48408507509E+01  1.11071582676E+02  5.49349486312E+02  1.22129902600E-05 0.00000000000E+00  1.
</event>
<event>
 9 110   1.0000000E+00   3.1250000E+01   7.8125000E-03   1.5660620E-01
        2   -1    0    0  502    0  0.00000000000E+00  0.00000000000E+00  2.91322126619E+03  2.91322126619E+03  0.00000000000E+00 0.00000000000E+00  1.
        5   -1    0    0  501    0  0.00000000000E+00  0.00000000000E+00 -2.47523235553E+02  2.47523235553E+02  0.00000000000E+00 0.00000000000E+00  1.
       25    1    1    2    0    0 -2.18431511416E+02 -2.70925114442E+02  6.32602307328E+01  3.75152768359E+02  1.25000000000E+02 0.00000000000E+00  1.
        6    2    1    2  501    0  3.56269970623E+02  1.81576522020E+02  4.45384046460E+02  6.22292515280E+02  1.70243062755E+02 0.00000000000E+00  1.
        1    1    1    2  502    0 -1.37838459207E+02  8.93485924220E+01  2.15705375345E+03  2.16329921811E+03  0.00000000000E+00 0.00000000000E+00  1.
        5    1    4    4  501    0  2.37741429991E+02  5.51799794096E+01  2.59339147550E+02  3.56153300720E+02  4.75000000000E+00 0.00000000000E+00  1.
       24    2    4    4    0    0  1.18528540632E+02  1.26396542610E+02  1.86044898910E+02  2.66139214560E+02  7.86910172014E+01 0.00000000000E+00  1.
       -1    1    7    7    0  703 -3.44156192419E-01  3.71549330755E+01  6.31557361543E+01  7.32751970624E+01  1.78416127528E-06 0.00000000000E+00  1.
        2    1    7    7  703    0  1.18872696825E+02  8.92416095346E+01  1.22889162756E+02  1.92864017498E+02  0.00000000000E+00 0.00000000000E+00  1.
</event>
<event>
 9 110   1.0000000E+00   3.1250000E+01   7.8125000E-03   1.5660620E-01
        2   -1    0    0  502    0  0.00000000000E+00  0.00000000000E+00  8.90136891452E+02  8.90136891452E+02  0.00000000000E+00 0.00000000000E+00  1.
        5   -1    0    0  501    0  0.00000000000E+00  0.00000000000E+00 -1.34356161937E+02  1.34356161937E+02  0.00000000000E+00 0.00000000000E+00  1.
       25    1    1    2    0    0 -1.92267173773E+02 -6.65516811799E+01  2.17910091910E+02  3.23273259851E+02  1.25000000000E+02 0.00000000000E+00  1.
        6    2    1    2  501    0  6.90910419678E+00  1.30149087079E+02  1.40581117001E+02  2.58228589137E+02  1.73009922265E+02 0.00000000000E+00  1.
        1    1    1    2  502    0  1.85358069576E+02 -6.35974058986E+01  3.97289520605E+02  4.42991204401E+02  5.39479660939E-06 0.00000000000E+00  1.
        5    1    4    4  501    0 -5.19299397171E+01  6.47563438197E+01  1.04487930844E+02  1.33530494255E+02  4.75000000000E+00 0.00000000000E+00  1.
       24    2    4    4    0    0  5.88390439139E+01  6.53927432588E+01  3.60931861570E+01  1.24698094882E+02  8.06762221515E+01 0.00000000000E+00  1.
       -3    1    7    7    0  703 -5.24186325169E+00  7.58917958358E+00 -1.98252306839E+01  2.18657848880E+01  7.15255737305E-07 0.00000000000E+00  1.
        4    1    7    7  703    0  6.40809071656E+01  5.78035636752E+01  5.59184168409E+01  1.02832309994E+02  9.53674316406E-07 0.00000000000E+00  1.
</event>
<event>
 9 110   1.0000000E+00   3.1250000E+01   7.8125000E-03   1.5660620E-01
        2   -1    0    0  502    0  0.00000000000E+00  0.00000000000E+00  2.23942624421E+03  2.23942624421E+03  0.00000000000E+00 0.00000000000E+00  1.
        5   -1    0    0  501    0  0.00000000000E+00  0.00000000000E+00 -3.99314166897E+02  3.99314166897E+02  0.00000000000E+00 0.00000000000E+00  1.
       25    1    1    2    0    0  2.03891784547E+01  2.03505983453E+02 -1.36084274333E+02  2.75634420238E+02  1.25000000000E+02 0.00000000000E+00  1.
        6    2    1    2  501    0  2.15137976807E+02 -2.21055069816E+02 -2.18948167249E+01  3.51104666710E+02  1.66269092226E+02 0.00000000000E+00  1.
        1    1    1    2  502    0 -2.35527155262E+02  1.75490863632E+01  1.99809116837E+03  2.01200132416E+03  2.15791864376E-05 0.00000000000E+00  1.
        5    1    4    4  501    0  8.18256880222E+01 -7.05633914597E+01 -7.02981687513E+01  1.28992365915E+02  4.75000000000E+00 0.00000000000E+00  1.
       24    2    4    4    0    0  1.33312288785E+02 -1.50491678356E+02  4.84033520264E+01  2.22112300795E+02  8.10621865065E+01 0.00000000000E+00  1.
       -1    1    7    7    0  703  3.25753226563E+01 -1.64282774926E+01 -1.92930144097E+01  4.12705748996E+01  7.53945746462E-07 0.00000000000E+00  1.
        2    1    7    7  703    0  1.00736966129E+02 -1.34063400864E+02  6.76963664361E+01  1.80841725895E+02  9.53674316406E-07 0.00000000000E+00  1.
</event>
<event>
 9 110   1.0000000E+00   3.1250000E+01   7.8125000E-03   1.5660620E-01
        2   -1    0    0  502    0  0.00000000000E+00  0.00000000000E+00  1.54922782950E+03  1.54922782950E+03  0.00000000000E+00 0.00000000000E+00  1.
        5   -1    0    0  501    0  0.00000000000E+00  0.00000000000E+00 -5.52819426212E+01  5.52819426212E+01  0.00000000000E+00 0.00000000000E+00  1.
       25    1    1    2    0    0 -8.98692412365E+01  6.99451854576E+01  1.11976539250E+03  1.13246118862E+03  1.25000000000E+02 0.00000000000E+00  1.
        6    2    1    2  501    0  7.51202560456E+01 -2.43435654849E+01  1.36550381509E+02  2.29633421330E+02  1.66882711664E+02 0.00000000000E+00  1.
        1    1    1    2  502    0  1.47489851909E+01 -4.56016199727E+01  2.37630112863E+02  2.42415162166E+02  2.69739830470E-06 0.00000000000E+00  1.
        5    1    4    4  501    0 -3.85693713525E+01 -2.36885375142E+01  5.24578248612E+01  6.94487516465E+01  4.75000000000E+00 0.00000000000E+00  1.
       24    2    4    4    0    0  1.13689627398E+02 -6.55027970655E-01  8.40925566478E+01  1.60184669683E+02  7.52449990256E+01 0.00000000000E+00  1.
      -15    1    7    7    0    0 -3.12166738248E+00 -1.44956606562E+01  2.35607187741E+01  2.78950438698E+01  1.77680000000E+00 0.00000000000E+00  1.
       16    1    7    7    0    0  1.16811294781E+02  1.38406326856E+01  6.05318378736E+01  1.32289625813E+02  2.02304872852E-06 0.00000000000E+00  1.
</event>
<event>
 9 110   1.0000000E+00   3.1250000E+01   7.8125000E-03   1.5660620E-01
        2   -1    0    0  502    0  0.00000000000E+00  0.00000000000E+00  2.08815140347E+03  2.08815140347E+03  0.00000000000E+00 0.00000000000E+00  1.
        5   -1    0    0  501    0  0.00000000000E+00  0.00000000000E+00 -2.00057198614E+03  2.00057198614E+03  0.00000000000E+00 0.00000000000E+00  1.
       25    1    1    2    0    0  1.01299998604E+03  2.33741633449E+02  1.26705003323E+03  1.64372896477E+03  1.25000000000E+02 0.00000000000E+00  1.
        6    2    1    2  501    0 -1.00987849849E+03 -5.41157150214E+01 -1.64899305032E+03  1.94227528786E+03  1.74562657743E+02 0.00000000000E+00  1.
        1    1    1    2  502    0 -3.12148754591E+00 -1.79625918428E+02  4.69522434421E+02  5.02719136974E+02  2.75081731832E-05 0.00000000000E+00  1.
        5    1    4    4  501    0 -7.60351070400E+02 -1.15379629586E+01 -1.20600188706E+03  1.42573840130E+03  4.74999999993E+00 0.00000000000E+00  1.
       24    2    4    4    0    0 -2.49527428091E+02 -4.25777520629E+01 -4.42991163263E+02  5.16536886557E+02  8.05753194512E+01 0.00000000000E+00  1.
      -11    1    7    7    0    0 -4.86807999394E+01 -1.18588045546E+01 -3.61594138231E+01  6.17896005530E+01  5.11014838470E-04 0.00000000000E+00  1.
       12    1    7    7    0    0 -2.00846628151E+02 -3.07189475082E+01 -4.06831749439E+02  4.54747286004E+02  7.62939453125E-06 0.00000000000E+00  1.
</event>
<event>
 9 110   1.0000000E+00   3.1250000E+01   7.8125000E-03   1.5660620E-01
        2   -1    0    0  502    0  0.00000000000E+00  0.00000000000E+00  7.21945445698E+02  7.21945445698E+02  0.00000000000E+00 0.00000000000E+00  1.
        5   -1    0    0  501    0  0.00000000000E+00  0.00000000000E+00 -1.90981341491E+02  1.90981341491E+02  0.00000000000E+00 0.00000000000E+00  1.
       25    1    1    2    0    0 -9.00625293090E+01  2.90433884229E+00  1.23219463042E+02  1.97301116170E+02  1.25000000000E+02 0.00000000000E+00  1.
        6    2    1    2  501    0  5.63799626251E+01  5.58462950000E+01 -9.06824962993E+01  2.12618947767E+02  1.75174178930E+02 0.00000000000E+00  1.
        1    1    1    2  502    0  3.36825666839E+01 -5.87506338423E+01  4.98427137465E+02  5.03006723252E+02  0.00000000000E+00 0.00000000000E+00  1.
        5    1    4    4  501    0 -1.90698324196E+01 -9.41360199628E+00  2.98962478351E+01  3.69948989142E+01  4.75000000000E+00 0.00000000000E+00  1.
       24    2    4    4    0    0  7.54497950447E+01  6.52598969963E+01 -1.20578744134E+02  1.75624048853E+02  7.97060052332E+01 0.00000000000E+00  1.
       -1    1    7    7    0  703  2.27900970946E+01  6.61626563662E+01 -9.23514700850E+01  1.15869235131E+02  0.00000000000E+00 0.00000000000E+00  1.
        2    1    7    7  703    0  5.26596979501E+01 -9.02759369874E-01 -2.82272740493E+01  5.97548137218E+01  1.43051147461E-06 0.00000000000E+00  1.
</event>
<event>
 9 110   1.0000000E+00   3.1250000E+01   7.8125000E-03   1.5660620E-01
        2   -1    0    0  502    0  0.00000000000E+00  0.00000000000E+00  1.74412180197E+03  1.74412180197E+03  0.00000000000E+00 0.00000000000E+00  1.
        5   -1    0    0  501    0  0.00000000000E+00  0.00000000000E+00 -8.81767246089E+01  8.81767246089E+01  0.00000000000E+00 0.00000000000E+00  1.
       25    1    1    2    0    0  9.44461446738E+01 -1.41068257820E+02  2.86163949439E+02  3.55436539437E+02  1.25000000000E+02 0.00000000000E+00  1.
        6    2    1    2  501    0  7.19160892730E+01  2.47707999119E+02  5.32766333329E+02  6.16837456285E+02  1.73543380238E+02 0.00000000000E+00  1.
        1    1    1    2  502    0 -1.66362233947E+02 -1.06639741298E+02  8.37014794596E+02  8.60024530859E+02  2.64289979182E-05 0.00000000000E+00  1.
        5    1    4    4  501    0  3.70245395857E+00  1.72738646710E+02  3.78156512464E+02  4.15785111147E+02  4.75000000001E+00 0.00000000000E+00  1.
       24    2    4    4    0    0  6.82136353144E+01  7.49693524089E+01  1.54609820864E+02  2.01052345138E+02  7.90211676351E+01 0.00000000000E+00  1.
      -13    1    7    7    0    0 -1.40403081776E+01  1.79487247420E+01  9.30687725366E+00  2.46153631263E+01  1.05659999956E-01 0.00000000000E+00  1.
       14    1    7    7    0    0  8.22539434920E+01  5.70206276668E+01  1.45302943611E+02  1.76436982012E+02  4.26496119976E-06 0.00000000000E+00  1.
</event>
<event>
 9 110   1.0000000E+00   3.1250000E+01   7.8125000E-03   1.5660620E-01
        2   -1    0    0  502    0  0.00000000000E+00  0.00000000000E+00  3.61911660365E+03  3.61911660365E+03  0.00000000000E+00 0.00000000000E+00  1.
        5   -1    0    0  501    0  0.00000000000E+00  0.00000000000E+00 -7.77762511748E+02  7.77762511748E+02  0.00000000000E+00 0.00000000000E+00  1.
       25    1    1    2    0    0 -2.27416394212E+02 -4.29476424912E+02  1.03917000146E+03  1.15397898935E+03  1.25000000000E+02 0.00000000000E+00  1.
        6    2    1    2  501    0 -4.57826148077E+01  4.30534255227E+02 -6.36466818899E+02  7.88993633305E+02  1.73104445623E+02 0.00000000000E+00  1.
        1    1    1    2  502    0  2.73199009020E+02 -1.05783031534E+00  2.43865090933E+03  2.45390649274E+03  5.28579958365E-05 0.00000000000E+00  1.
        5    1    4    4  501    0 -2.53335588503E+01  1.23933980409E+02 -8.51459451412E+01  1.52557579878E+02  4.74999999999E+00 0.00000000000E+00  1.
       24    2    4    4    0    0 -2.04490559574E+01  3.06600274818E+02 -5.51320873757E+02  6.36436053428E+02  8.16960944840E+01 0.00000000000E+00  1.
      -11    1    7    7    0    0  1.77522083971E+01  2.12675776548E+01 -2.94645937686E+01  4.04427131692E+01  5.10929624330E-04 0.00000000000E+00  1.
       12    1    7    7    0    0 -3.82012643544E+01  2.85332697163E+02 -5.21856279989E+02  5.95993340258E+02  7.62939453125E-06 0.00000000000E+00  1.
</event>
<event>
 9 110   1.0000000E+00   3.1250000E+01   7.8125000E-03   1.5660620E-01
       -1   -1    0    0    0  502  0.00000000000E+00  0.00000000000E+00  1.38179270686E+02  1.38179270686E+02  0.00000000000E+00 0.00000000000E+00  1.
        5   -1    0    0  501    0  0.00000000000E+00  0.00000000000E+00 -1.22084084363E+03  1.22084084363E+03  0.00000000000E+00 0.00000000000E+00  1.
       25    1    1    2    0    0  6.89762093734E+01 -1.74977782094E+02 -3.59030964535E+02  4.24149944219E+02  1.25000000000E+02 0.00000000000E+00  1.
        6    2    1    2  501    0 -1.30561718953E+02 -1.50157350940E+02 -3.62541948091E+02  4.45083838792E+02  1.64527708704E+02 0.00000000000E+00  1.
       -2    1    1    2    0  502  6.15855095795E+01  3.25135133035E+02 -3.61088660322E+02  4.89786331309E+02  7.62939453125E-06 0.00000000000E+00  1.
        5    1    4    4  501    0 -9.32509278418E+00 -5.31281959814E+01 -1.59717321885E+01  5.64554806266E+01  4.75000000000E+00 0.00000000000E+00  1.
       24    2    4    4    0    0 -1.21236626169E+02 -9.70291549589E+01 -3.46570215902E+02  3.88628358166E+02  8.25112706436E+01 0.00000000000E+00  1.
      -13    1    7    7    0    0  1.11584434936E+01 -1.93655962152E+01 -4.43298889792E+01  4.96456181240E+01  1.05660000158E-01 0.00000000000E+00  1.
       14    1    7    7    0    0 -1.32395069662E+02 -7.76635587437E+01 -3.02240326923E+02  3.38982740042E+02  5.39479660939E-06 0.00000000000E+00  1.
</event>
<event>
 9 110   1.0000000E+00   3.1250000E+01   7.8125000E-03   1.5660620E-01
       -1   -1    0    0    0  502  0.00000000000E+00  0.00000000000E+00  1.67530130298E+02  1.67530130298E+02  0.00000000000E+00 0.00000000000E+00  1.
        5   -1    0    0  501    0  0.00000000000E+00  0.00000000000E+00 -1.46170122304E+03  1.46170122304E+03  0.00000000000E+00 0.00000000000E+00  1.
       25    1    1    2    0    0  1.42280661828E+02 -1.23461355551E+02  4.72185524838E+01  2.30956889361E+02  1.25000000000E+02 0.00000000000E+00  1.
        6    2    1    2  501    0 -5.51843833882E+01  1.68306481372E+02 -1.20568148672E+03  1.23090197128E+03  1.73434217002E+02 0.00000000000E+00  1.
       -2    1    1    2    0  502 -8.70962784395E+01 -4.48451258201E+01 -1.35708158503E+02  1.67372492699E+02  1.61843898282E-05 0.00000000000E+00  1.
        5    1    4    4  501    0 -4.55221441116E+01  6.70829039199E+01 -1.82348898278E+02  1.99614791050E+02  4.74999999999E+00 0.00000000000E+00  1.
       24    2    4    4    0    0 -9.66223927661E+00  1.01223577452E+02 -1.02333258845E+03  1.03128718023E+03  7.74860634434E+01 0.00000000000E+00  1.
       -1    1    7    7    0  703 -2.79267773671E+01  1.04523369366E+02 -9.15289663433E+02  9.21661655721E+02  2.15791864376E-05 0.00000000000E+00  1.
        2    1    7    7  703    0  1.82645380905E+01 -3.29979191387E+00 -1.08042925013E+02  1.09625524508E+02  1.38200538122E-05 0.00000000000E+00  1.
</event>
<event>
 9 110   1.0000000E+00   3.1250000E+01   7.8125000E-03   1.5660620E-01
        5   -1    0    0  501    0  0.00000000000E+00  0.00000000000E+00  1.73680811894E+02  1.73680811894E+02  0.00000000000E+00 0.00000000000E+00  1.
       -1   -1    0    0    0  502  0.00000000000E+00  0.00000000000E+00 -6.68317971327E+02  6.68317971327E+02  0.00000000000E+00 0.00000000000E+00  1.
       25    1    1    2    0    0 -3.97046894587E+01  1.26657084724E+02 -5.47632821152E+02  5.77187306061E+02  1.25000000000E+02 0.00000000000E+00  1.
        6    2    1    2  501    0  4.66292836515E+00 -1.20616637381E+02  7.35304426176E+01  2.23749460025E+02  1.73455985068E+02 0.00000000000E+00  1.
       -2    1    1    2    0  502  3.50417610935E+01 -6.04044734264E+00 -2.05347808992E+01  4.10620171352E+01  4.76837158203E-07 0.00000000000E+00  1.
        5    1    4    4  501    0 -1.84923717202E+01 -1.12008666413E+02  7.91304697123E-01  1.13627011871E+02  4.75000000000E+00 0.00000000000E+00  1.
       24    2    4    4    0    0  2.31553000854E+01 -8.60797096782E+00  7.27391379205E+01  1.10122448154E+02  7.89031451584E+01 0.00000000000E+00  1.
       -3    1    7    7    0  703  5.57768153311E+00 -2.47847673068E+01 -7.43083005387E+00  2.64690849299E+01  1.59045029451E-06 0.00000000000E+00  1.
        4    1    7    7  703    0  1.75776185523E+01  1.61767963390E+01  8.01699679744E+01  8.36533632245E+01  0.00000000000E+00 0.00000000000E+00  1.
</event>
<event>
 9 110   1.0000000E+00   3.1250000E+01   7.8125000E-03   1.5660620E-01
        5   -1    0    0  501    0  0.00000000000E+00  0.00000000000E+00  7.15303084005E+02  7.15303084005E+02  0.00000000000E+00 0.00000000000E+00  1.
       -1   -1    0    0    0  502  0.00000000000E+00  0.00000000000E+00 -1.38007898801E+03  1.38007898801E+03  0.00000000000E+00 0.00000000000E+00  1.
       25    1    1    2    0    0  4.70599630946E+02  3.00653053522E+02 -4.41673372989E+02  7.22880792141E+02  1.25000000000E+02 0.00000000000E+00  1.
        6    2    1    2  501    0 -3.70663787096E+02 -3.59737333942E+02  4.38083144761E+02  7.01200585005E+02  1.81556674873E+02 0.00000000000E+00  1.
       -2    1    1    2    0  502 -9.99358438496E+01  5.90842804196E+01 -6.61185675777E+02  6.71300694869E+02  2.15791864376E-05 0.00000000000E+00  1.
        5    1    4    4  501    0 -6.74837437565E+00  7.85336482191E+00  4.62120172188E+01  4.75954717507E+01  4.75000000000E+00 0.00000000000E+00  1.
       24    2    4    4    0    0 -3.63915412720E+02 -3.67590698764E+02  3.91871127543E+02  6.53605113254E+02  7.79699559920E+01 0.00000000000E+00  1.
       -1    1    7    7    0  703 -4.38475500446E+01 -6.84595782629E+01  3.48108417580E+01  8.84370748315E+01  7.30977521742E-06 0.00000000000E+00  1.
        2    1    7    7  703    0 -3.20067862676E+02 -2.99131120501E+02  3.57060285785E+02  5.65168038423E+02  5.39479660939E-06 0.00000000000E+00  1.
</event>
<event>
 9 110   1.0000000E+00   3.1250000E+01   7.8125000E-03   1.5660620E-01
        5   -1    0    0  501    0  0.00000000000E+00  0.00000000000E+00  3.25739937488E+01  3.25739937488E+01  0.00000000000E+00 0.00000000000E+00  1.
       -1   -1    0    0    0  502  0.00000000000E+00  0.00000000000E+00 -3.51588211255E+03  3.51588211255E+03  0.00000000000E+00 0.00000000000E+00  1.
       25    1    1    2    0    0 -1.45370106549E+02  8.36411245253E+00 -8.07425863191E+02  8.29918038607E+02  1.25000000000E+02 0.00000000000E+00  1.
        6    2    1    2  501    0 -6.42230450664E+00  7.84700051913E+01 -4.81310237617E+02  5.17009634490E+02  1.71582719439E+02 0.00000000000E+00  1.
       -2    1    1    2    0  502  1.51792411056E+02 -8.68341176438E+01 -2.19457201800E+03  2.20152843321E+03  3.05175781250E-05 0.00000000000E+00  1.
        5    1    4    4  501    0  2.57948138050E+01  5.09966774933E+01 -4.89436778603E+01  7.53928354493E+01  4.75000000000E+00 0.00000000000E+00  1.
       24    2    4    4    0    0 -3.22171183117E+01  2.74733276980E+01 -4.32366559757E+02  4.41616799040E+02  7.93210486028E+01 0.00000000000E+00  1.
       -3    1    7    7    0  703  2.30915433382E+01  2.52489540931E+01 -1.46777535924E+02  1.50712886339E+02  4.67203091199E-06 0.00000000000E+00  1.
        4    1    7    7  703    0 -5.53086616499E+01  2.22437360500E+00 -2.85589023833E+02  2.90903912702E+02  5.39479660939E-06 0.00000000000E+00  1.
</event>
<event>
 9 110   1.0000000E+00   3.1250000E+01   7.8125000E-03   1.5660620E-01
        5   -1    0    0  501    0  0.00000000000E+00  0.00000000000E+00  6.36355210508E+01  6.36355210508E+01  0.00000000000E+00 0.00000000000E+00  1.
       -1   -1    0    0    0  502  0.00000000000E+00  0.00000000000E+00 -7.46232282464E+02  7.46232282464E+02  0.00000000000E+00 0.00000000000E+00  1.
       25    1    1    2    0    0  1.20658517458E+02  5.11061043449E+01 -2.99035391490E+02  3.49596162879E+02  1.25000000000E+02 0.00000000000E+00  1.
        6    2    1    2  501    0 -9.65403179298E+01 -7.34276806236E+01 -2.74366636598E+02  3.46239057125E+02  1.72895275046E+02 0.00000000000E+00  1.
       -2    1    1    2    0  502 -2.41181995281E+01  2.23215762787E+01 -1.09194733326E+02  1.14032583511E+02  1.90734863281E-06 0.00000000000E+00  1.
        5    1    4    4  501    0  2.26413467887E+01  3.01830581009E+00 -1.17843226178E+02  1.20130467453E+02  4.75000000000E+00 0.00000000000E+00  1.
       24    2    4    4    0    0 -1.19181664719E+02 -7.64459864337E+01 -1.56523410419E+02  2.26108589672E+02  8.11002975778E+01 0.00000000000E+00  1.
       -1    1    7    7    0  703 -5.60582324459E+01 -2.83462610755E+01 -1.26536877478E+02  1.41271431308E+02  1.34869915235E-06 0.00000000000E+00  1.
        2    1    7    7  703    0 -6.31234322726E+01 -4.80997253582E+01 -2.99865329412E+01  8.48371583638E+01  2.13248059988E-06 0.00000000000E+00  1.
</event>
<event>
 9 110   1.0000000E+00   3.1250000E+01   7.8125000E-03   1.5660620E-01
        5   -1    0    0  501    0  0.00000000000E+00  0.00000000000E+00  2.27843772208E+02  2.27843772208E+02  0.00000000000E+00 0.00000000000E+00  1.
       -1   -1    0    0    0  502  0.00000000000E+00  0.00000000000E+00 -1.00977154464E+03  1.00977154464E+03  0.00000000000E+00 0.00000000000E+00  1.
       25    1    1    2    0    0 -1.44394393565E+02  2.02451611039E+02 -3.14947302943E+02  4.20301319694E+02  1.25000000000E+02 0.00000000000E+00  1.
        6    2    1    2  501    0  9.72946719868E+01 -1.03786166549E+02  9.32196722625E+01  2.46544820931E+02  1.78484228623E+02 0.00000000000E+00  1.
       -2    1    1    2    0  502  4.70997215777E+01 -9.86654444896E+01 -5.60200141752E+02  5.70769176224E+02  7.62939453125E-06 0.00000000000E+00  1.
        5    1    4    4  501    0 -3.30904964946E+01  9.54792623147E+00  3.41127410073E+00  3.49334101481E+01  4.75000000000E+00 0.00000000000E+00  1.
       24    2    4    4    0    0  1.30385168481E+02 -1.13334092781E+02  8.98083981618E+01  2.11611410783E+02  8.28790205467E+01 0.00000000000E+00  1.
      -11    1    7    7    0    0  6.77196571808E+01 -2.92171732923E+01  3.54975126587E-01  7.37544655697E+01  5.10996092576E-04 0.00000000000E+00  1.
       12    1    7    7    0    0  6.26655113007E+01 -8.41169194882E+01  8.94534230352E+01  1.37856945213E+02  1.90734863281E-06 0.00000000000E+00  1.
</event>
<event>
 9 110   1.0000000E+00   3.1250000E+01   7.8125000E-03   1.5660620E-01
        5   -1    0    0  501    0  0.00000000000E+00  0.00000000000E+00  2.75665175826E+02  2.75665175826E+02  0.00000000000E+00 0.00000000000E+00  1.
       -1   -1    0    0    0  502  0.00000000000E+00  0.00000000000E+00 -1.28003474699E+03  1.28003474699E+03  0.00000000000E+00 0.00000000000E+00  1.
       25    1    1    2    0    0 -7.80503162153E+01 -7.91141842390E+01 -4.78401292789E+02  5.06797496986E+02  1.25000000000E+02 0.00000000000E+00  1.
        6    2    1    2  501    0  1.70455967938E+02  9.85994463952E+01  1.91737286642E+02  3.25010335828E+02  1.73468854470E+02 0.00000000000E+00  1.
       -2    1    1    2    0  502 -9.24056517222E+01 -1.94852621561E+01 -7.17705565020E+02  7.23892090005E+02  1.52587890625E-05 0.00000000000E+00  1.
        5    1    4    4  501    0  1.38194083299E+02  1.58208969222E+01  7.63538651606E+01  1.58746277636E+02  4.75000000000E+00 0.00000000000E+00  1.
       24    2    4    4    0    0  3.22618846386E+01  8.27785494729E+01  1.15383421481E+02  1.66264058192E+02  8.02326968291E+01 0.00000000000E+00  1.
      -13    1    7    7    0    0  3.85242003291E+01  9.31347601049E+01  7.94200735145E+01  1.28318965052E+02  1.05659999991E-01 0.00000000000E+00  1.
       14    1    7    7    0    0 -6.26231569050E+00 -1.03562106320E+01  3.59633479668E+01  3.79450931405E+01  2.52318507296E-06 0.00000000000E+00  1.
</event>
</LesHouchesEvents>
