<LesHouchesEvents version="1.0">
<!--
Output from the JHUGenerator v7.4.0 described in arXiv:1001.3396 [hep-ph], arXiv:1208.4018 [hep-ph], arXiv:1309.4819 [hep-ph], arXiv:1606.03107 [hep-ph]
   
   Command line: ./JHUGen Seed=765543533 PDFSet=3 Process=114 VegasNc0=100000 VegasNc2=100 DataFile=compare_to_reference/tqH_114 TopDK=1 DecayMode1=11 ghg2=0.383432074687728,0.918260989345657 ghg3=6294.49296087723,2253.12941717723 ghg4=0.335495485382528,0.17285803562226 ghz1=0.154934976270359,0.453918144016304 ghz2=0.469297059144414,0.745302300947002 ghz3=3947.40921062637,3597.4885961919 ghz4=0.177791270766536,0.920170534486048 ghzgs2=0.0240331049939919,0.232175381101053 ghzgs3=0.331962910170583,0.0450183240308457 ghzgs4=0.808286540247172,0.133184346613754 ghgsgs2=0.530394804029869,0.211218112389125 ghgsgs3=0.914978695198138,0.055650585081425 ghgsgs4=0.694524307167701,0.511424456076726 ghz1_prime=0.143354267833606,0.0910761280837012 ghz1_prime2=7416.7007267243,4861.35525489789 ghz1_prime3=4431.44656075298,4436.48625894176 ghz1_prime4=2441.69123517064,6946.16318931911 ghz1_prime5=78314042.889773,69465359.939181 ghz1_prime6=51233058.8130761,29537873.5850789 ghz1_prime7=47832192.9001564,59559649.9633293 g
   
   Input Parameter:
    Collider: P-P, sqrt(s)=13000.00
    Resonance: spin=0, mass= 125.00 width=   0.00407
    Top quark mass=173.2000, width=2.0000
    Top quark decay= 1
    Random seed:   765543533
    To reproduce results using this seed, JHUGen should be compiled with the same compiler:
      GNU Fortran (GCC) 6.3.0
    
    WidthScheme:   2
    PDFSet:   3
    Unweighted: T
    
    
    LHE output: compare_to_reference/tqH_114.lhe
    Histogram output: compare_to_reference/tqH_114.dat
    Log file: compare_to_reference/tqH_114.log
    
-->
<init>
2212 2212   6500.0000000000000000    6500.0000000000000000 0 0  263000  263000  3  1
 3.4400546E+10  4.6781632E+08  1.0000000E+00 114
</init>
<event>
 9 114   1.0000000E+00   3.1250000E+01   7.8125000E-03   1.5660620E-01
        5   -1    0    0  501    0  0.00000000000E+00  0.00000000000E+00  1.13042593309E+03  1.13042593309E+03  0.00000000000E+00 0.00000000000E+00  1.
        2   -1    0    0  502    0  0.00000000000E+00  0.00000000000E+00 -2.86154452967E+03  2.86154452967E+03  0.00000000000E+00 0.00000000000E+00  1.
       25    1    1    2    0    0  2.17945727894E+02 -2.39837198065E+01 -2.19504251395E+03  2.20950496654E+03  1.25000000000E+02 0.00000000000E+00  1.
        6    2    1    2  501    0 -1.52764707604E+02 -1.38090723810E+02  1.09503802738E+03  1.12762069741E+03  1.73245640434E+02 0.00000000000E+00  1.
        1    1    1    2  502    0 -6.51810202898E+01  1.62074443617E+02 -6.31114110005E+02  6.54844798809E+02  3.05175781250E-05 0.00000000000E+00  1.
        5    1    4    4  501    0  2.69167563348E+01  1.83765063039E+00  1.02513033912E+02  1.06110194389E+02  4.74999999998E+00 0.00000000000E+00  1.
       24    2    4    4    0    0 -1.79681463939E+02 -1.39928374441E+02  9.92524993469E+02  1.02151050302E+03  8.06998554436E+01 0.00000000000E+00  1.
       -3    1    7    7    0  703  1.03563200004E+00  7.93809911429E+00  2.78354972358E+01  2.89637852767E+01  1.72454274369E-05 0.00000000000E+00  1.
        4    1    7    7  703    0 -1.80717095939E+02 -1.47866473555E+02  9.64689496233E+02  9.92546717746E+02  2.41262638868E-05 0.00000000000E+00  1.
</event>
<event>
 9 114   1.0000000E+00   3.1250000E+01   7.8125000E-03   1.5660620E-01
       -1   -1    0    0    0  502  0.00000000000E+00  0.00000000000E+00  1.02285395594E+03  1.02285395594E+03  0.00000000000E+00 0.00000000000E+00  1.
        5   -1    0    0  501    0  0.00000000000E+00  0.00000000000E+00 -2.76788941800E+02  2.76788941800E+02  0.00000000000E+00 0.00000000000E+00  1.
       25    1    1    2    0    0 -1.44332328360E+02  1.75493940674E+02  8.62968818640E+02  9.01093849811E+02  1.25000000000E+02 0.00000000000E+00  1.
        6    2    1    2  501    0  7.99979362601E+01 -2.07187887490E+02 -2.49952004649E+01  2.81970268691E+02  1.71918532598E+02 0.00000000000E+00  1.
       -2    1    1    2    0  502  6.43343920998E+01  3.16939468164E+01 -9.19086040376E+01  1.16578779234E+02  0.00000000000E+00 0.00000000000E+00  1.
        5    1    4    4  501    0  9.54605388957E+01 -1.35258615024E+02 -4.14779522905E+01  1.70735439938E+02  4.75000000000E+00 0.00000000000E+00  1.
       24    2    4    4    0    0 -1.54626026356E+01 -7.19292724662E+01  1.64827518256E+01  1.11234828753E+02  8.17838229858E+01 0.00000000000E+00  1.
       -3    1    7    7    0  703 -3.75520560076E+01 -7.51563375842E+01  2.44998047016E+01  8.75149839735E+01  1.11828226085E-06 0.00000000000E+00  1.
        2    1    7    7  703    0  2.20894533719E+01  3.22706511796E+00 -8.01705287605E+00  2.37198447795E+01  1.03924249257E-06 0.00000000000E+00  1.
</event>
<event>
 9 114   1.0000000E+00   3.1250000E+01   7.8125000E-03   1.5660620E-01
        2   -1    0    0  502    0  0.00000000000E+00  0.00000000000E+00  1.27335210908E+03  1.27335210908E+03  0.00000000000E+00 0.00000000000E+00  1.
        5   -1    0    0  501    0  0.00000000000E+00  0.00000000000E+00 -2.58552432881E+02  2.58552432881E+02  0.00000000000E+00 0.00000000000E+00  1.
       25    1    1    2    0    0  6.31287805710E+01  1.90081202916E+02 -1.82764529599E+01  2.36801890557E+02  1.25000000000E+02 0.00000000000E+00  1.
        6    2    1    2  501    0  3.76591353802E+00  7.57762653072E+01 -3.47273083921E+01  1.92669308858E+02  1.73664193601E+02 0.00000000000E+00  1.
        1    1    1    2  502    0 -6.68946941090E+01 -2.65857468223E+02  1.06780343755E+03  1.10243334255E+03  1.52587890625E-05 0.00000000000E+00  1.
        5    1    4    4  501    0 -4.67059789181E+01 -2.26778870440E+01 -1.21407438685E+01  5.35321883465E+01  4.75000000000E+00 0.00000000000E+00  1.
       24    2    4    4    0    0  5.04718924561E+01  9.84541523512E+01 -2.25865645236E+01  1.39137120512E+02  8.12917791912E+01 0.00000000000E+00  1.
      -13    1    7    7    0    0  6.91403792351E+01  8.60116762958E+01 -3.18573957609E+01  1.14862114418E+02  1.05660000001E-01 0.00000000000E+00  1.
       14    1    7    7    0    0 -1.86684867790E+01  1.24424760555E+01  9.27083123732E+00  2.42750060935E+01  1.57247852782E-06 0.00000000000E+00  1.
</event>
<event>
 9 114   1.0000000E+00   3.1250000E+01   7.8125000E-03   1.5660620E-01
        2   -1    0    0  502    0  0.00000000000E+00  0.00000000000E+00  1.25592352204E+03  1.25592352204E+03  0.00000000000E+00 0.00000000000E+00  1.
        5   -1    0    0  501    0  0.00000000000E+00  0.00000000000E+00 -1.60766822695E+02  1.60766822695E+02  0.00000000000E+00 0.00000000000E+00  1.
       25    1    1    2    0    0  6.17763229500E+01 -3.18980946232E+02  2.75984750679E+02  4.44249637866E+02  1.25000000000E+02 0.00000000000E+00  1.
        6    2    1    2  501    0 -1.38467397528E+02  3.61527291689E+02  5.85310466029E+02  7.22675005676E+02  1.72614076398E+02 0.00000000000E+00  1.
        1    1    1    2  502    0  7.66910745784E+01 -4.25463454569E+01  2.33861482633E+02  2.49765701190E+02  4.67203091199E-06 0.00000000000E+00  1.
        5    1    4    4  501    0 -1.34633156689E+02  1.81492482894E+02  2.82884444751E+02  3.62093606418E+02  4.75000000001E+00 0.00000000000E+00  1.
       24    2    4    4    0    0 -3.83424083977E+00  1.80034808795E+02  3.02426021278E+02  3.60581399258E+02  7.82956790862E+01 0.00000000000E+00  1.
       -1    1    7    7    0  703 -1.12982073624E+01  1.55247427364E+02  2.95167308784E+02  3.33696199211E+02  5.39479660939E-06 0.00000000000E+00  1.
        4    1    7    7  703    0  7.46396652262E+00  2.47873814318E+01  7.25871249383E+00  2.68852000469E+01  1.65181236989E-06 0.00000000000E+00  1.
</event>
<event>
 9 114   1.0000000E+00   3.1250000E+01   7.8125000E-03   1.5660620E-01
        2   -1    0    0  502    0  0.00000000000E+00  0.00000000000E+00  3.31230529299E+03  3.31230529299E+03  0.00000000000E+00 0.00000000000E+00  1.
        5   -1    0    0  501    0  0.00000000000E+00  0.00000000000E+00 -1.08593098150E+03  1.08593098150E+03  0.00000000000E+00 0.00000000000E+00  1.
       25    1    1    2    0    0  1.19756337926E+02  3.02060415797E+02  2.46269894798E+03  2.48718579597E+03  1.25000000000E+02 0.00000000000E+00  1.
        6    2    1    2  501    0 -2.82659329397E+01 -2.38609463449E+02 -1.04930535624E+03  1.09048106144E+03  1.74280738261E+02 0.00000000000E+00  1.
        1    1    1    2  502    0 -9.14904049859E+01 -6.34509523481E+01  8.12980719745E+02  8.20569417073E+02  1.86881236479E-05 0.00000000000E+00  1.
        5    1    4    4  501    0  1.04349345830E+01 -3.05675549942E+01 -4.27106585462E+02  4.28352496343E+02  4.74999999999E+00 0.00000000000E+00  1.
       24    2    4    4    0    0 -3.87008675227E+01 -2.08041908455E+02 -6.22198770774E+02  6.62128565101E+02  8.06457286475E+01 0.00000000000E+00  1.
       -1    1    7    7    0  703  1.15035270525E+01 -1.51495993434E+01 -1.91407930703E+01  2.69853933504E+01  3.57627868652E-06 0.00000000000E+00  1.
        2    1    7    7  703    0 -5.02043945752E+01 -1.92892309111E+02 -6.03057977704E+02  6.35143171751E+02  7.62939453125E-06 0.00000000000E+00  1.
</event>
<event>
 9 114   1.0000000E+00   3.1250000E+01   7.8125000E-03   1.5660620E-01
        5   -1    0    0  501    0  0.00000000000E+00  0.00000000000E+00  5.55133572829E+02  5.55133572829E+02  0.00000000000E+00 0.00000000000E+00  1.
        2   -1    0    0  502    0  0.00000000000E+00  0.00000000000E+00 -4.30953907508E+03  4.30953907508E+03  0.00000000000E+00 0.00000000000E+00  1.
       25    1    1    2    0    0  3.80938685945E+02  7.66597029232E+02 -6.94351861074E+02  1.10929472849E+03  1.25000000000E+02 0.00000000000E+00  1.
        6    2    1    2  501    0 -4.86090343933E+02  2.29505206886E+01  7.39201304233E+01  5.21767892555E+02  1.73109789308E+02 0.00000000000E+00  1.
        1    1    1    2  502    0  1.05151657988E+02 -7.89547549921E+02 -3.13397377160E+03  3.23361002686E+03  4.31583728752E-05 0.00000000000E+00  1.
        5    1    4    4  501    0  7.25914084171E+00 -3.35147266685E+00  1.54965142445E+01  1.80729618084E+01  4.75000000000E+00 0.00000000000E+00  1.
       24    2    4    4    0    0 -4.93349484775E+02  2.63019933555E+01  5.84236161788E+01  5.03694930746E+02  7.88020009263E+01 0.00000000000E+00  1.
       -1    1    7    7    0  703 -1.43582285153E+02 -2.20315247389E+01 -3.03886666670E+00  1.45294512638E+02  4.20033047854E-06 0.00000000000E+00  1.
        2    1    7    7  703    0 -3.49767199622E+02  4.83335180944E+01  6.14624828455E+01  3.58400418109E+02  3.23406695515E-06 0.00000000000E+00  1.
</event>
<event>
 9 114   1.0000000E+00   3.1250000E+01   7.8125000E-03   1.5660620E-01
        2   -1    0    0  502    0  0.00000000000E+00  0.00000000000E+00  1.35079491179E+02  1.35079491179E+02  0.00000000000E+00 0.00000000000E+00  1.
        5   -1    0    0  501    0  0.00000000000E+00  0.00000000000E+00 -4.28862843493E+02  4.28862843493E+02  0.00000000000E+00 0.00000000000E+00  1.
       25    1    1    2    0    0 -2.65135433018E+01  3.35981067641E+01 -1.31688940637E+02  1.86544305308E+02  1.25000000000E+02 0.00000000000E+00  1.
        6    2    1    2  501    0 -7.38346864476E+01  6.40711076610E+01 -1.08830380415E+02  2.27577804806E+02  1.74329968105E+02 0.00000000000E+00  1.
        1    1    1    2  502    0  1.00348229749E+02 -9.76692144252E+01 -5.32640312625E+01  1.49820224558E+02  1.50789149292E-06 0.00000000000E+00  1.
        5    1    4    4  501    0 -7.35571991272E+01  5.07320184165E+00  8.34956456516E+00  7.43550714396E+01  4.75000000000E+00 0.00000000000E+00  1.
       24    2    4    4    0    0 -2.77487320402E-01  5.89979058194E+01 -1.17179944980E+02  1.53222733367E+02  7.91532477191E+01 0.00000000000E+00  1.
       -3    1    7    7    0  703  2.39529611211E+01  5.76117703674E+01 -4.46051307483E+01  7.66973149492E+01  8.25906184945E-07 0.00000000000E+00  1.
        4    1    7    7  703    0 -2.42304484415E+01  1.38613545194E+00 -7.25748142318E+01  7.65254184174E+01  0.00000000000E+00 0.00000000000E+00  1.
</event>
<event>
 9 114   1.0000000E+00   3.1250000E+01   7.8125000E-03   1.5660620E-01
        2   -1    0    0  502    0  0.00000000000E+00  0.00000000000E+00  2.88223759139E+03  2.88223759139E+03  0.00000000000E+00 0.00000000000E+00  1.
        5   -1    0    0  501    0  0.00000000000E+00  0.00000000000E+00 -1.67629547199E+02  1.67629547199E+02  0.00000000000E+00 0.00000000000E+00  1.
       25    1    1    2    0    0 -5.54830810042E+01  8.73615182540E+01  2.00490570880E+02  2.57937736986E+02  1.25000000000E+02 0.00000000000E+00  1.
        6    2    1    2  501    0  9.05539511956E+01 -2.75543114653E+02  7.54216803525E+01  3.45732465591E+02  1.72390492159E+02 0.00000000000E+00  1.
        1    1    1    2  502    0 -3.50708701913E+01  1.88181596399E+02  2.43869579296E+03  2.44619693601E+03  6.10351562500E-05 0.00000000000E+00  1.
        5    1    4    4  501    0  5.48707028787E+01 -2.29066503983E+02  6.53536115977E+01  2.44491133438E+02  4.75000000000E+00 0.00000000000E+00  1.
       24    2    4    4    0    0  3.56832483169E+01 -4.64766106707E+01  1.00680687548E+01  1.01241332153E+02  8.19455415366E+01 0.00000000000E+00  1.
       -3    1    7    7    0  703  8.87522507187E+00 -1.42575176591E+01 -3.55344461800E+01  3.93032224530E+01  0.00000000000E+00 0.00000000000E+00  1.
        4    1    7    7  703    0  2.68080232450E+01 -3.22190930115E+01  4.56025149348E+01  6.19381096997E+01  6.74349576174E-07 0.00000000000E+00  1.
</event>
<event>
 9 114   1.0000000E+00   3.1250000E+01   7.8125000E-03   1.5660620E-01
        2   -1    0    0  502    0  0.00000000000E+00  0.00000000000E+00  9.46608478217E+02  9.46608478217E+02  0.00000000000E+00 0.00000000000E+00  1.
        5   -1    0    0  501    0  0.00000000000E+00  0.00000000000E+00 -7.36690542359E+02  7.36690542359E+02  0.00000000000E+00 0.00000000000E+00  1.
       25    1    1    2    0    0  2.49243060546E+02 -2.31460334704E+02 -4.46343008258E+02  5.74928752797E+02  1.25000000000E+02 0.00000000000E+00  1.
        6    2    1    2  501    0 -2.61796763079E+02  6.08732291841E+01 -1.01563088432E+02  3.31482360598E+02  1.65294885782E+02 0.00000000000E+00  1.
        1    1    1    2  502    0  1.25537025327E+01  1.70587105520E+02  7.57824032548E+02  7.76887907181E+02  1.07895932188E-05 0.00000000000E+00  1.
        5    1    4    4  501    0 -1.96628159064E+02  3.78070551221E+01 -1.03997259634E+02  2.25676757477E+02  4.74999999999E+00 0.00000000000E+00  1.
       24    2    4    4    0    0 -6.51686040152E+01  2.30661740620E+01  2.43417120173E+00  1.05805603121E+02  8.00618831107E+01 0.00000000000E+00  1.
       -1    1    7    7    0  703 -2.78062017645E+01 -9.20065525409E-01 -3.70885875411E+01  4.63637218408E+01  8.25906184945E-07 0.00000000000E+00  1.
        2    1    7    7  703    0 -3.73624022507E+01  2.39862395874E+01  3.95227587428E+01  5.94418812802E+01  1.50789149292E-06 0.00000000000E+00  1.
</event>
<event>
 9 114   1.0000000E+00   3.1250000E+01   7.8125000E-03   1.5660620E-01
        5   -1    0    0  501    0  0.00000000000E+00  0.00000000000E+00  8.91923783387E+01  8.91923783387E+01  0.00000000000E+00 0.00000000000E+00  1.
        2   -1    0    0  502    0  0.00000000000E+00  0.00000000000E+00 -1.84355563970E+03  1.84355563970E+03  0.00000000000E+00 0.00000000000E+00  1.
       25    1    1    2    0    0 -4.20005222444E+01  4.61272011028E+01 -1.12175107123E+03  1.13041683832E+03  1.25000000000E+02 0.00000000000E+00  1.
        6    2    1    2  501    0  1.04717928350E+00  6.25422683478E+01 -2.15966062024E+01  1.80377585233E+02  1.67800560012E+02 0.00000000000E+00  1.
        1    1    1    2  502    0  4.09533429609E+01 -1.08669469451E+02 -6.11015583929E+02  6.21953594487E+02  7.62939453125E-06 0.00000000000E+00  1.
        5    1    4    4  501    0 -2.09884663850E+01  4.92865272350E+01  4.69045713860E+01  7.13602046310E+01  4.75000000000E+00 0.00000000000E+00  1.
       24    2    4    4    0    0  2.20356456685E+01  1.32557411129E+01 -6.85011775884E+01  1.09017380602E+02  8.08151816792E+01 0.00000000000E+00  1.
       -3    1    7    7    0  703 -1.38066684068E+01  3.79407407354E+01 -2.50237286414E+01  4.75006409974E+01  1.11828226085E-06 0.00000000000E+00  1.
        4    1    7    7  703    0  3.58423140753E+01 -2.46849996226E+01 -4.34774489470E+01  6.15167396045E+01  0.00000000000E+00 0.00000000000E+00  1.
</event>
<event>
 9 114   1.0000000E+00   3.1250000E+01   7.8125000E-03   1.5660620E-01
        2   -1    0    0  502    0  0.00000000000E+00  0.00000000000E+00  1.35514461716E+03  1.35514461716E+03  0.00000000000E+00 0.00000000000E+00  1.
        5   -1    0    0  501    0  0.00000000000E+00  0.00000000000E+00 -4.22223552473E+02  4.22223552473E+02  0.00000000000E+00 0.00000000000E+00  1.
       25    1    1    2    0    0 -1.69594610992E+02  7.35311711629E+01  5.59103191474E+02  6.01988823756E+02  1.25000000000E+02 0.00000000000E+00  1.
        6    2    1    2  501    0 -2.92546897325E+01  9.60534717280E+01 -3.51898726620E+02  4.04039875361E+02  1.71269964625E+02 0.00000000000E+00  1.
        1    1    1    2  502    0  1.98849300725E+02 -1.69584642891E+02  7.25716599836E+02  7.71339470519E+02  1.52587890625E-05 0.00000000000E+00  1.
        5    1    4    4  501    0  1.85342863254E+01  5.38700872926E+01 -2.61319278815E+02  2.67499222531E+02  4.75000000000E+00 0.00000000000E+00  1.
       24    2    4    4    0    0 -4.77889760579E+01  4.21833844354E+01 -9.05794478050E+01  1.36540652830E+02  7.98466615173E+01 0.00000000000E+00  1.
       -3    1    7    7    0  703  2.12765105600E+01  1.06479133987E+01 -9.94601373073E+00  2.57874223312E+01  5.46285592908E-07 0.00000000000E+00  1.
        4    1    7    7  703    0 -6.90654866179E+01  3.15354710366E+01 -8.06334340743E+01  1.10753230499E+02  1.34869915235E-06 0.00000000000E+00  1.
</event>
<event>
 9 114   1.0000000E+00   3.1250000E+01   7.8125000E-03   1.5660620E-01
        5   -1    0    0  501    0  0.00000000000E+00  0.00000000000E+00  5.19839931295E+01  5.19839931295E+01  0.00000000000E+00 0.00000000000E+00  1.
        2   -1    0    0  502    0  0.00000000000E+00  0.00000000000E+00 -3.23482762336E+03  3.23482762336E+03  0.00000000000E+00 0.00000000000E+00  1.
       25    1    1    2    0    0  1.62328430175E+02 -1.58106260200E+00 -1.69352993823E+03  1.70587856270E+03  1.25000000000E+02 0.00000000000E+00  1.
        6    2    1    2  501    0 -8.29667910266E+01 -5.04494176294E+01 -1.78766164668E+02  2.66954263229E+02  1.72854287982E+02 0.00000000000E+00  1.
        1    1    1    2  502    0 -7.93616391487E+01  5.20304802314E+01 -1.31054752733E+03  1.31397879056E+03  1.52587890625E-05 0.00000000000E+00  1.
        5    1    4    4  501    0 -1.05475710295E+02 -9.76312870765E+00 -8.76365266038E+01  1.37561504206E+02  4.75000000000E+00 0.00000000000E+00  1.
       24    2    4    4    0    0  2.25089192681E+01 -4.06862889217E+01 -9.11296380639E+01  1.29392759023E+02  7.92202600414E+01 0.00000000000E+00  1.
      -13    1    7    7    0    0  4.10331863428E+01 -4.02307709030E+00 -1.69078269379E+01  4.45622408157E+01  1.05659999998E-01 0.00000000000E+00  1.
       14    1    7    7    0    0 -1.85242670747E+01 -3.66632118314E+01 -7.42218111260E+01  8.48305182071E+01  1.34869915235E-06 0.00000000000E+00  1.
</event>
<event>
 9 114   1.0000000E+00   3.1250000E+01   7.8125000E-03   1.5660620E-01
       -1   -1    0    0    0  502  0.00000000000E+00  0.00000000000E+00  1.23816295557E+03  1.23816295557E+03  0.00000000000E+00 0.00000000000E+00  1.
        5   -1    0    0  501    0  0.00000000000E+00  0.00000000000E+00 -1.51975450409E+02  1.51975450409E+02  0.00000000000E+00 0.00000000000E+00  1.
       25    1    1    2    0    0 -1.95228390205E+01  2.24084439446E+02  9.12009123278E+02  9.47618392703E+02  1.25000000000E+02 0.00000000000E+00  1.
        6    2    1    2  501    0 -3.33367925201E+01 -2.79579753057E+02  1.32665227696E+02  3.55358023569E+02  1.71473269696E+02 0.00000000000E+00  1.
       -2    1    1    2    0  502  5.28596315406E+01  5.54953136109E+01  4.15131541890E+01  8.71619897094E+01  2.28683067480E-06 0.00000000000E+00  1.
        5    1    4    4  501    0  1.14208677220E+01 -1.13923760965E+02 -1.45165204018E+01  1.15509096596E+02  4.75000000000E+00 0.00000000000E+00  1.
       24    2    4    4    0    0 -4.47576602421E+01 -1.65655992092E+02  1.47181748098E+02  2.39848926973E+02  8.01241844292E+01 0.00000000000E+00  1.
       -3    1    7    7    0  703 -6.27884662296E+01 -8.07504615961E+01  8.62442445972E+01  1.33794985951E+02  2.52318507296E-06 0.00000000000E+00  1.
        4    1    7    7  703    0  1.80308059875E+01 -8.49055304962E+01  6.09375035004E+01  1.06053941022E+02  1.16800772800E-06 0.00000000000E+00  1.
</event>
<event>
 9 114   1.0000000E+00   3.1250000E+01   7.8125000E-03   1.5660620E-01
        2   -1    0    0  502    0  0.00000000000E+00  0.00000000000E+00  2.78045048279E+03  2.78045048279E+03  0.00000000000E+00 0.00000000000E+00  1.
        5   -1    0    0  501    0  0.00000000000E+00  0.00000000000E+00 -9.09390448247E+01  9.09390448247E+01  0.00000000000E+00 0.00000000000E+00  1.
       25    1    1    2    0    0 -2.82006777070E+02 -1.45987315796E+02  3.52350036663E+02  4.90525908615E+02  1.25000000000E+02 0.00000000000E+00  1.
        6    2    1    2  501    0  2.17537491255E+02  1.43281092446E+01  1.08262379269E+03  1.11778996837E+03  1.72778129638E+02 0.00000000000E+00  1.
        1    1    1    2  502    0  6.44692858149E+01  1.31659206552E+02  1.25453760861E+03  1.26307365063E+03  0.00000000000E+00 0.00000000000E+00  1.
        5    1    4    4  501    0  8.68817647086E+01  6.95897183853E+01  4.51676844187E+02  4.65215760716E+02  4.75000000000E+00 0.00000000000E+00  1.
       24    2    4    4    0    0  1.30655726546E+02 -5.52616091407E+01  6.30946948501E+02  6.52574207655E+02  8.73743689530E+01 0.00000000000E+00  1.
       -1    1    7    7    0  703  7.64601290314E+00  2.06368091308E+01  8.95890656205E+01  9.22525884904E+01  8.74056948653E-06 0.00000000000E+00  1.
        4    1    7    7  703    0  1.23009713643E+02 -7.58984182715E+01  5.41357882880E+02  5.60321619165E+02  1.32144989591E-05 0.00000000000E+00  1.
</event>
<event>
 9 114   1.0000000E+00   3.1250000E+01   7.8125000E-03   1.5660620E-01
        2   -1    0    0  502    0  0.00000000000E+00  0.00000000000E+00  3.39308671746E+03  3.39308671746E+03  0.00000000000E+00 0.00000000000E+00  1.
        5   -1    0    0  501    0  0.00000000000E+00  0.00000000000E+00 -6.50871068432E+02  6.50871068432E+02  0.00000000000E+00 0.00000000000E+00  1.
       25    1    1    2    0    0 -3.60992743070E+02  4.00434005861E+01  9.34092796704E+02  1.00998692434E+03  1.25000000000E+02 0.00000000000E+00  1.
        6    2    1    2  501    0  1.77394664934E+02 -3.72421762314E+02 -5.13471351305E+02  6.81528880130E+02  1.75105538600E+02 0.00000000000E+00  1.
        1    1    1    2  502    0  1.83598078135E+02  3.32378361728E+02  2.32159420363E+03  2.35244198142E+03  4.31583728752E-05 0.00000000000E+00  1.
        5    1    4    4  501    0  1.59363213221E+02 -1.82151852269E+02 -2.84737470686E+02  3.73729742897E+02  4.75000000000E+00 0.00000000000E+00  1.
       24    2    4    4    0    0  1.80314517137E+01 -1.90269910045E+02 -2.28733880619E+02  3.07799137234E+02  7.67681497706E+01 0.00000000000E+00  1.
       -3    1    7    7    0  703  2.09920203780E+01 -8.11035961160E+01 -4.77749751703E+01  9.64412073494E+01  2.43140197448E-06 0.00000000000E+00  1.
        4    1    7    7  703    0 -2.96056866431E+00 -1.09166313929E+02 -1.80958905449E+02  2.11357929884E+02  1.90734863281E-06 0.00000000000E+00  1.
</event>
<event>
 9 114   1.0000000E+00   3.1250000E+01   7.8125000E-03   1.5660620E-01
        5   -1    0    0  501    0  0.00000000000E+00  0.00000000000E+00  2.21215629561E+02  2.21215629561E+02  0.00000000000E+00 0.00000000000E+00  1.
        2   -1    0    0  502    0  0.00000000000E+00  0.00000000000E+00 -8.67757749059E+02  8.67757749059E+02  0.00000000000E+00 0.00000000000E+00  1.
       25    1    1    2    0    0 -2.06036509627E+02 -2.00607330273E+02 -3.72554490751E+01  3.15764647712E+02  1.25000000000E+02 0.00000000000E+00  1.
        6    2    1    2  501    0  2.46815388803E+02  1.73486749885E+02 -2.98007547458E+02  4.58100598259E+02  1.73297926265E+02 0.00000000000E+00  1.
        1    1    1    2  502    0 -4.07788791762E+01  2.71205803887E+01 -3.11279122965E+02  3.15108132649E+02  3.81469726562E-06 0.00000000000E+00  1.
        5    1    4    4  501    0  1.24276996156E+02  3.26167127056E+01 -4.56500189069E+01  1.36437195982E+02  4.75000000000E+00 0.00000000000E+00  1.
       24    2    4    4    0    0  1.22538392647E+02  1.40870037179E+02 -2.52357528551E+02  3.21663402277E+02  7.01640727194E+01 0.00000000000E+00  1.
      -11    1    7    7    0    0  3.67808195309E+00 -3.95163741481E+00 -3.18812032712E+01  3.23350405503E+01  5.10999376385E-04 0.00000000000E+00  1.
       12    1    7    7    0    0  1.18860310694E+02  1.44821674594E+02 -2.20476325279E+02  2.89328361726E+02  4.67203091199E-06 0.00000000000E+00  1.
</event>
<event>
 9 114   1.0000000E+00   3.1250000E+01   7.8125000E-03   1.5660620E-01
        2   -1    0    0  502    0  0.00000000000E+00  0.00000000000E+00  3.19751978446E+03  3.19751978446E+03  0.00000000000E+00 0.00000000000E+00  1.
        5   -1    0    0  501    0  0.00000000000E+00  0.00000000000E+00 -3.16393429752E+02  3.16393429752E+02  0.00000000000E+00 0.00000000000E+00  1.
       25    1    1    2    0    0 -9.18829569664E+01  5.82029252479E+01  1.09818426149E+02  1.98784166900E+02  1.25000000000E+02 0.00000000000E+00  1.
        6    2    1    2  501    0  1.25553029002E+02  6.73859047477E+01 -2.23997093802E+02  3.17003231915E+02  1.73239509818E+02 0.00000000000E+00  1.
        1    1    1    2  502    0 -3.36700720361E+01 -1.25588829996E+02  2.99530502236E+03  2.99812581540E+03  6.10351562500E-05 0.00000000000E+00  1.
        5    1    4    4  501    0  1.20097836560E+01 -4.11324963446E+01 -7.32377601140E+01  8.49849937667E+01  4.75000000000E+00 0.00000000000E+00  1.
       24    2    4    4    0    0  1.13543245346E+02  1.08518401092E+02 -1.50759333688E+02  2.32018238148E+02  8.02232771690E+01 0.00000000000E+00  1.
       -3    1    7    7    0  703  7.62722337773E+01  2.09262718742E+01 -8.62722039868E+01  1.17039547507E+02  9.53674316406E-07 0.00000000000E+00  1.
        4    1    7    7  703    0  3.72710115691E+01  8.75921292182E+01 -6.44871297014E+01  1.14978690641E+02  1.65181236989E-06 0.00000000000E+00  1.
</event>
<event>
 9 114   1.0000000E+00   3.1250000E+01   7.8125000E-03   1.5660620E-01
        2   -1    0    0  502    0  0.00000000000E+00  0.00000000000E+00  3.61070969913E+02  3.61070969913E+02  0.00000000000E+00 0.00000000000E+00  1.
        5   -1    0    0  501    0  0.00000000000E+00  0.00000000000E+00 -8.79897372892E+02  8.79897372892E+02  0.00000000000E+00 0.00000000000E+00  1.
       25    1    1    2    0    0 -6.98976563235E+01  5.58585827249E+01 -2.92009051615E+02  3.30000227044E+02  1.25000000000E+02 0.00000000000E+00  1.
        6    2    1    2  501    0 -1.03106179380E+00 -2.51965806050E+01 -5.50777777327E+02  5.77919472140E+02  1.73201690288E+02 0.00000000000E+00  1.
        1    1    1    2  502    0  7.09287181173E+01 -3.06620021199E+01  3.23960425963E+02  3.33048643621E+02  1.86881236479E-05 0.00000000000E+00  1.
        5    1    4    4  501    0 -5.97181152059E+01  6.11939866160E+00 -3.13621853337E+02  3.19350794135E+02  4.75000000000E+00 0.00000000000E+00  1.
       24    2    4    4    0    0  5.86870534121E+01 -3.13159792666E+01 -2.37155923990E+02  2.58568678005E+02  7.86763507439E+01 0.00000000000E+00  1.
      -15    1    7    7    0    0  2.27775716410E+01 -5.18780926511E+01 -1.74545946320E+02  1.83520022509E+02  1.77680000000E+00 0.00000000000E+00  1.
       16    1    7    7    0    0  3.59094817711E+01  2.05621133845E+01 -6.26099776704E+01  7.50486554962E+01  1.50789149292E-06 0.00000000000E+00  1.
</event>
<event>
 9 114   1.0000000E+00   3.1250000E+01   7.8125000E-03   1.5660620E-01
        2   -1    0    0  502    0  0.00000000000E+00  0.00000000000E+00  2.01199702283E+02  2.01199702283E+02  0.00000000000E+00 0.00000000000E+00  1.
        5   -1    0    0  501    0  0.00000000000E+00  0.00000000000E+00 -1.93571946435E+03  1.93571946435E+03  0.00000000000E+00 0.00000000000E+00  1.
       25    1    1    2    0    0 -5.70501678155E+01  2.66260064635E+02 -9.42577400979E+01  3.14099769556E+02  1.25000000000E+02 0.00000000000E+00  1.
        6    2    1    2  501    0 -1.01744832769E+01 -8.00730935239E+01 -1.61147192572E+03  1.62278537105E+03  1.73422526484E+02 0.00000000000E+00  1.
        1    1    1    2  502    0  6.72246510924E+01 -1.86186971111E+02 -2.87900962459E+01  2.00034026025E+02  3.07347349855E-05 0.00000000000E+00  1.
        5    1    4    4  501    0  4.29931380734E+01 -8.18445144701E+01 -1.01467530294E+03  1.01888933029E+03  4.75000000010E+00 0.00000000000E+00  1.
       24    2    4    4    0    0 -5.31676213503E+01  1.77142094619E+00 -5.96796622776E+02  6.03896040762E+02  7.54604876635E+01 0.00000000000E+00  1.
      -11    1    7    7    0    0 -6.51308909406E+01 -1.93930996176E+01 -4.48819798385E+02  4.53935388233E+02  5.11084022788E-04 0.00000000000E+00  1.
       12    1    7    7    0    0  1.19632695903E+01  2.11645205638E+01 -1.47976824391E+02  1.49960652529E+02  2.69739830470E-06 0.00000000000E+00  1.
</event>
<event>
 9 114   1.0000000E+00   3.1250000E+01   7.8125000E-03   1.5660620E-01
        5   -1    0    0  501    0  0.00000000000E+00  0.00000000000E+00  7.91171203104E+01  7.91171203104E+01  0.00000000000E+00 0.00000000000E+00  1.
        2   -1    0    0  502    0  0.00000000000E+00  0.00000000000E+00 -2.06114311087E+03  2.06114311087E+03  0.00000000000E+00 0.00000000000E+00  1.
       25    1    1    2    0    0  1.58705847899E+02  8.28866614590E+01 -1.42739842451E+03  1.44400450383E+03  1.25000000000E+02 0.00000000000E+00  1.
        6    2    1    2  501    0 -2.26675298530E+02  2.63146959728E+01 -3.30767876571E+02  4.38073730960E+02  1.74433515696E+02 0.00000000000E+00  1.
        1    1    1    2  502    0  6.79694506311E+01 -1.09201357432E+02 -2.23859689487E+02  2.58181996392E+02  3.81469726562E-06 0.00000000000E+00  1.
        5    1    4    4  501    0 -1.51637050210E+02 -4.26399036945E+01 -1.97256153637E+02  2.52476749486E+02  4.75000000000E+00 0.00000000000E+00  1.
       24    2    4    4    0    0 -7.50382483203E+01  6.89545996673E+01 -1.33511722934E+02  1.85596981474E+02  7.89644467159E+01 0.00000000000E+00  1.
       -1    1    7    7    0  703 -2.22799481100E+01 -1.08556272697E+01 -6.00858146356E+01  6.49965064571E+01  1.50789149292E-06 0.00000000000E+00  1.
        4    1    7    7  703    0 -5.27583002104E+01  7.98102269370E+01 -7.34259082982E+01  1.20600475017E+02  1.90734863281E-06 0.00000000000E+00  1.
</event>
<event>
 9 114   1.0000000E+00   3.1250000E+01   7.8125000E-03   1.5660620E-01
        5   -1    0    0  501    0  0.00000000000E+00  0.00000000000E+00  9.00079606952E+02  9.00079606952E+02  0.00000000000E+00 0.00000000000E+00  1.
        2   -1    0    0  502    0  0.00000000000E+00  0.00000000000E+00 -8.43294019327E+02  8.43294019327E+02  0.00000000000E+00 0.00000000000E+00  1.
       25    1    1    2    0    0 -6.08380467125E+01 -5.34765671491E+02 -6.35730125129E+01  5.56185328154E+02  1.25000000000E+02 0.00000000000E+00  1.
        6    2    1    2  501    0  6.73859524976E+01  4.97854441877E+02  5.45210026851E+02  7.60686189430E+02  1.70263306439E+02 0.00000000000E+00  1.
        1    1    1    2  502    0 -6.54790578508E+00  3.69112296141E+01 -4.24851426713E+02  4.26502108695E+02  1.94512157959E-05 0.00000000000E+00  1.
        5    1    4    4  501    0  7.56957261497E+01  3.69984798506E+02  4.19096652831E+02  5.64165898471E+02  4.75000000001E+00 0.00000000000E+00  1.
       24    2    4    4    0    0 -8.30977365209E+00  1.27869643371E+02  1.26113374020E+02  1.96520290959E+02  7.93469824127E+01 0.00000000000E+00  1.
       -3    1    7    7    0  703 -3.35174614546E+01  8.20276566777E+01  1.11067214808E+02  1.42084069788E+02  2.69739830470E-06 0.00000000000E+00  1.
        4    1    7    7  703    0  2.52076878025E+01  4.58419866931E+01  1.50461592118E+01  5.44362211707E+01  2.56784668309E-06 0.00000000000E+00  1.
</event>
<event>
 9 114   1.0000000E+00   3.1250000E+01   7.8125000E-03   1.5660620E-01
        2   -1    0    0  502    0  0.00000000000E+00  0.00000000000E+00  1.00481355385E+03  1.00481355385E+03  0.00000000000E+00 0.00000000000E+00  1.
        5   -1    0    0  501    0  0.00000000000E+00  0.00000000000E+00 -1.82179531703E+02  1.82179531703E+02  0.00000000000E+00 0.00000000000E+00  1.
       25    1    1    2    0    0  1.26351416357E+02  3.98000201763E+01 -1.51354332921E+01  1.82764338322E+02  1.25000000000E+02 0.00000000000E+00  1.
        6    2    1    2  501    0 -1.20980527912E+02  6.42730267408E+00  4.91748318791E+01  2.14262107348E+02  1.69742417213E+02 0.00000000000E+00  1.
        1    1    1    2  502    0 -5.37088844542E+00 -4.62273228503E+01  7.88594623563E+02  7.89966639886E+02  1.52587890625E-05 0.00000000000E+00  1.
        5    1    4    4  501    0 -6.74851243608E+01  6.53366539435E+01  3.43274928917E+01  1.00120225863E+02  4.75000000000E+00 0.00000000000E+00  1.
       24    2    4    4    0    0 -5.34954035508E+01 -5.89093512695E+01  1.48473389874E+01  1.14141881485E+02  8.04727019922E+01 0.00000000000E+00  1.
      -15    1    7    7    0    0  2.12507591757E+01 -1.80456468863E+01  5.12542592132E+00  2.84018863142E+01  1.77680000000E+00 0.00000000000E+00  1.
       16    1    7    7    0    0 -7.47461627266E+01 -4.08637043831E+01  9.72191306605E+00  8.57399951710E+01  1.69847093210E-06 0.00000000000E+00  1.
</event>
<event>
 9 114   1.0000000E+00   3.1250000E+01   7.8125000E-03   1.5660620E-01
        2   -1    0    0  502    0  0.00000000000E+00  0.00000000000E+00  4.57307832459E+02  4.57307832459E+02  0.00000000000E+00 0.00000000000E+00  1.
        5   -1    0    0  501    0  0.00000000000E+00  0.00000000000E+00 -7.82235578411E+02  7.82235578411E+02  0.00000000000E+00 0.00000000000E+00  1.
       25    1    1    2    0    0 -3.50221196248E+02 -7.44526062919E+01 -6.29314130504E+01  3.84426117262E+02  1.25000000000E+02 0.00000000000E+00  1.
        6    2    1    2  501    0  4.81249383250E+02 -1.62854168317E+02 -2.21086981648E+02  5.80970497011E+02  1.74713525310E+02 0.00000000000E+00  1.
        1    1    1    2  502    0 -1.31028187002E+02  2.37306774609E+02 -4.09093512535E+01  2.74146796597E+02  1.15528501888E-05 0.00000000000E+00  1.
        5    1    4    4  501    0  1.46993199810E+02 -1.03919381962E+02 -1.25456405584E+02  2.19472346640E+02  4.75000000000E+00 0.00000000000E+00  1.
       24    2    4    4    0    0  3.34256183440E+02 -5.89347863553E+01 -9.56305760646E+01  3.61498150371E+02  7.95939723383E+01 0.00000000000E+00  1.
      -11    1    7    7    0    0  1.14330826634E+02 -1.50537092629E+00  1.41157963657E+00  1.14349449573E+02  5.10993470000E-04 0.00000000000E+00  1.
       12    1    7    7    0    0  2.19925356806E+02 -5.74294154290E+01 -9.70421557012E+01  2.47148700798E+02  3.56832255056E-06 0.00000000000E+00  1.
</event>
<event>
 9 114   1.0000000E+00   3.1250000E+01   7.8125000E-03   1.5660620E-01
        2   -1    0    0  502    0  0.00000000000E+00  0.00000000000E+00  1.66798642444E+03  1.66798642444E+03  0.00000000000E+00 0.00000000000E+00  1.
        5   -1    0    0  501    0  0.00000000000E+00  0.00000000000E+00 -1.78719228714E+02  1.78719228714E+02  0.00000000000E+00 0.00000000000E+00  1.
       25    1    1    2    0    0 -7.26105096039E+01  1.00045673416E+02  1.05510817999E+03  1.06965400685E+03  1.25000000000E+02 0.00000000000E+00  1.
        6    2    1    2  501    0  7.02591658121E+01 -1.42342999756E+02 -9.26548110221E+01  2.48537312829E+02  1.67296150291E+02 0.00000000000E+00  1.
        1    1    1    2  502    0  2.35134379173E+00  4.22973263395E+01  5.26813826753E+02  5.28514333477E+02  1.07895932188E-05 0.00000000000E+00  1.
        5    1    4    4  501    0  3.79960684305E+01 -1.19551043461E+02 -7.04318006848E+00  1.25731150055E+02  4.75000000000E+00 0.00000000000E+00  1.
       24    2    4    4    0    0  3.22630973816E+01 -2.27919562954E+01 -8.56116309536E+01  1.22806162774E+02  7.86868574553E+01 0.00000000000E+00  1.
      -11    1    7    7    0    0 -1.22043529767E+01 -2.40790790747E+01 -7.66972619640E-01  2.70062312796E+01  5.11000532016E-04 0.00000000000E+00  1.
       12    1    7    7    0    0  4.44674503583E+01  1.28712277934E+00 -8.48446583340E+01  9.57999314939E+01  9.53674316406E-07 0.00000000000E+00  1.
</event>
<event>
 9 114   1.0000000E+00   3.1250000E+01   7.8125000E-03   1.5660620E-01
        5   -1    0    0  501    0  0.00000000000E+00  0.00000000000E+00  5.85131783715E+02  5.85131783715E+02  0.00000000000E+00 0.00000000000E+00  1.
        2   -1    0    0  502    0  0.00000000000E+00  0.00000000000E+00 -1.08528868857E+03  1.08528868857E+03  0.00000000000E+00 0.00000000000E+00  1.
       25    1    1    2    0    0 -2.37003626223E+02  1.45387655270E+02  6.95738230673E+01  3.12688033036E+02  1.25000000000E+02 0.00000000000E+00  1.
        6    2    1    2  501    0  1.13066558516E+02 -2.88134163789E+02  3.02102868657E+02  4.65638956160E+02  1.72476523752E+02 0.00000000000E+00  1.
        1    1    1    2  502    0  1.23937067706E+02  1.42746508518E+02 -8.71833596583E+02  8.92093483093E+02  1.86881236479E-05 0.00000000000E+00  1.
        5    1    4    4  501    0  4.31312360637E+01 -2.21426584374E+02  1.69757703026E+02  2.82365500776E+02  4.75000000000E+00 0.00000000000E+00  1.
       24    2    4    4    0    0  6.99353224523E+01 -6.67075794146E+01  1.32345165631E+02  1.83273455383E+02  8.20552625021E+01 0.00000000000E+00  1.
       -1    1    7    7    0  703 -1.09734848491E+01  5.02565871015E+00 -3.83109767707E-01  1.20756527069E+01  2.27111980091E-06 0.00000000000E+00  1.
        2    1    7    7  703    0  8.09088073015E+01 -7.17332381248E+01  1.32728275399E+02  1.71197802676E+02  0.00000000000E+00 0.00000000000E+00  1.
</event>
<event>
 9 114   1.0000000E+00   3.1250000E+01   7.8125000E-03   1.5660620E-01
        2   -1    0    0  502    0  0.00000000000E+00  0.00000000000E+00  3.50560660981E+03  3.50560660981E+03  0.00000000000E+00 0.00000000000E+00  1.
        5   -1    0    0  501    0  0.00000000000E+00  0.00000000000E+00 -1.49435978177E+03  1.49435978177E+03  0.00000000000E+00 0.00000000000E+00  1.
       25    1    1    2    0    0 -6.77793523842E+02  6.36188569545E+02 -6.53047658739E+02  1.14290690853E+03  1.25000000000E+02 0.00000000000E+00  1.
        6    2    1    2  501    0  9.85098710426E+02 -1.79446680606E+01 -1.02648405037E+02  1.00528197314E+03  1.71212353744E+02 0.00000000000E+00  1.
        1    1    1    2  502    0 -3.07305186584E+02 -6.18243901484E+02  2.76694289182E+03  2.85177750991E+03  6.10351562500E-05 0.00000000000E+00  1.
        5    1    4    4  501    0  2.71939039716E+02  5.60626800978E+01 -2.62581299061E+01  2.78937120705E+02  4.74999999999E+00 0.00000000000E+00  1.
       24    2    4    4    0    0  7.13159670710E+02 -7.40073481584E+01 -7.63902751307E+01  7.26344852438E+02  8.75646447994E+01 0.00000000000E+00  1.
       -3    1    7    7    0  703  7.69064190174E+01  1.05798865909E+01 -2.85458804574E+01  8.27127473698E+01  6.92645981137E-06 0.00000000000E+00  1.
        4    1    7    7  703    0  6.36253251693E+02 -8.45872347494E+01 -4.78443946732E+01  6.43632105068E+02  1.12234137496E-05 0.00000000000E+00  1.
</event>
<event>
 9 114   1.0000000E+00   3.1250000E+01   7.8125000E-03   1.5660620E-01
        5   -1    0    0  501    0  0.00000000000E+00  0.00000000000E+00  3.66643437774E+02  3.66643437774E+02  0.00000000000E+00 0.00000000000E+00  1.
        2   -1    0    0  502    0  0.00000000000E+00  0.00000000000E+00 -2.07249708330E+02  2.07249708330E+02  0.00000000000E+00 0.00000000000E+00  1.
       25    1    1    2    0    0 -1.94102974399E+01 -2.08925932750E+02  9.16444087942E+01  2.60864912714E+02  1.25000000000E+02 0.00000000000E+00  1.
        6    2    1    2  501    0  3.26219915363E+01  1.22958254339E+02  5.37949040910E+01  2.24938981300E+02  1.77540775486E+02 0.00000000000E+00  1.
        1    1    1    2  502    0 -1.32116940964E+01  8.59676784107E+01  1.39544165589E+01  8.80892520897E+01  6.07850493621E-07 0.00000000000E+00  1.
        5    1    4    4  501    0 -5.57614075035E+01  1.79615625036E+01  6.21734649238E+00  5.91030472290E+01  4.75000000000E+00 0.00000000000E+00  1.
       24    2    4    4    0    0  8.83833990398E+01  1.04996691836E+02  4.75775575986E+01  1.65835934071E+02  8.00125147704E+01 0.00000000000E+00  1.
      -15    1    7    7    0    0  7.37136901198E+01  2.67745892199E+01  1.51394513534E+01  7.98933460590E+01  1.77680000000E+00 0.00000000000E+00  1.
       16    1    7    7    0    0  1.46697089200E+01  7.82221026157E+01  3.24381062452E+01  8.59425880120E+01  9.53674316406E-07 0.00000000000E+00  1.
</event>
<event>
 9 114   1.0000000E+00   3.1250000E+01   7.8125000E-03   1.5660620E-01
        5   -1    0    0  501    0  0.00000000000E+00  0.00000000000E+00  8.31821448036E+01  8.31821448036E+01  0.00000000000E+00 0.00000000000E+00  1.
        2   -1    0    0  502    0  0.00000000000E+00  0.00000000000E+00 -2.52004982804E+03  2.52004982804E+03  0.00000000000E+00 0.00000000000E+00  1.
       25    1    1    2    0    0  2.07636038560E+02 -5.70999567964E+00 -1.19371506906E+03  1.21808291781E+03  1.25000000000E+02 0.00000000000E+00  1.
        6    2    1    2  501    0 -1.79442053243E+02 -5.87807066407E+01 -1.66135828385E+02  3.05834870762E+02  1.74009289279E+02 0.00000000000E+00  1.
        1    1    1    2  502    0 -2.81939853174E+01  6.44907023203E+01 -1.07701678579E+03  1.07931418427E+03  0.00000000000E+00 0.00000000000E+00  1.
        5    1    4    4  501    0 -8.56610819644E+01  4.71892052665E+00 -1.32503894672E+02  1.57923822705E+02  4.75000000000E+00 0.00000000000E+00  1.
       24    2    4    4    0    0 -9.37809712785E+01 -6.34996271674E+01 -3.36319337128E+01  1.47911048057E+02  8.89915611048E+01 0.00000000000E+00  1.
       -1    1    7    7    0  703 -5.65327069846E+01 -3.51746189601E+01  2.65470720176E+01  7.16794797045E+01  3.37174788087E-07 0.00000000000E+00  1.
        2    1    7    7  703    0 -3.72482642939E+01 -2.83250082073E+01 -6.01790057305E+01  7.62315683530E+01  6.74349576174E-07 0.00000000000E+00  1.
</event>
<event>
 9 114   1.0000000E+00   3.1250000E+01   7.8125000E-03   1.5660620E-01
        5   -1    0    0  501    0  0.00000000000E+00  0.00000000000E+00  9.84978692974E+01  9.84978692974E+01  0.00000000000E+00 0.00000000000E+00  1.
        2   -1    0    0  502    0  0.00000000000E+00  0.00000000000E+00 -2.63976644849E+03  2.63976644849E+03  0.00000000000E+00 0.00000000000E+00  1.
       25    1    1    2    0    0 -7.36703833435E+01  3.37909192877E+02 -1.29923226540E+03  1.35027383426E+03  1.25000000000E+02 0.00000000000E+00  1.
        6    2    1    2  501    0  4.55268071205E+01 -3.59502480245E+02 -4.83996439851E+02  6.29121073539E+02  1.73856400264E+02 0.00000000000E+00  1.
        1    1    1    2  502    0  2.81435762230E+01  2.15932873680E+01 -7.58039873938E+02  7.58869409992E+02  1.52587890625E-05 0.00000000000E+00  1.
        5    1    4    4  501    0  4.52230532919E+01 -1.21587567697E+02 -7.69885327954E+01  1.50925338659E+02  4.75000000000E+00 0.00000000000E+00  1.
       24    2    4    4    0    0  3.03753828584E-01 -2.37914912548E+02 -4.07007907056E+02  4.78195734879E+02  8.00757552036E+01 0.00000000000E+00  1.
       -1    1    7    7    0  703 -2.64500018323E+01 -1.44344501057E+02 -2.97285446047E+02  3.31532161357E+02  0.00000000000E+00 0.00000000000E+00  1.
        4    1    7    7  703    0  2.67537556609E+01 -9.35704114913E+01 -1.09722461009E+02  1.46663573523E+02  1.90734863281E-06 0.00000000000E+00  1.
</event>
<event>
 9 114   1.0000000E+00   3.1250000E+01   7.8125000E-03   1.5660620E-01
        2   -1    0    0  502    0  0.00000000000E+00  0.00000000000E+00  1.33454774819E+03  1.33454774819E+03  0.00000000000E+00 0.00000000000E+00  1.
        5   -1    0    0  501    0  0.00000000000E+00  0.00000000000E+00 -2.58437278009E+02  2.58437278009E+02  0.00000000000E+00 0.00000000000E+00  1.
       25    1    1    2    0    0  9.44409407696E-01  3.83865613325E+02  5.23806938869E+02  6.61326250961E+02  1.25000000000E+02 0.00000000000E+00  1.
        6    2    1    2  501    0 -8.31103615706E+01  4.97017179369E+01 -2.99846081494E+01  2.01048515392E+02  1.73619802584E+02 0.00000000000E+00  1.
        1    1    1    2  502    0  8.21659521629E+01 -4.33567331262E+02  5.82288139457E+02  7.30610259841E+02  1.32144989591E-05 0.00000000000E+00  1.
        5    1    4    4  501    0 -3.52666103359E+01  1.09209887407E+01 -7.42379777240E+01  8.30472253372E+01  4.75000000000E+00 0.00000000000E+00  1.
       24    2    4    4    0    0 -4.78437512346E+01  3.87807291962E+01  4.42533695746E+01  1.18001290055E+02  9.04045034650E+01 0.00000000000E+00  1.
       -1    1    7    7    0  703 -2.10134588101E+00  5.80767116386E+01  3.39264737330E+01  6.72928354969E+01  4.76837158203E-07 0.00000000000E+00  1.
        2    1    7    7  703    0 -4.57424053536E+01 -1.92959824424E+01  1.03268958416E+01  5.07084545581E+01  8.08516738787E-07 0.00000000000E+00  1.
</event>
<event>
 9 114   1.0000000E+00   3.1250000E+01   7.8125000E-03   1.5660620E-01
        4   -1    0    0  502    0  0.00000000000E+00  0.00000000000E+00  6.10935422381E+01  6.10935422381E+01  0.00000000000E+00 0.00000000000E+00  1.
        5   -1    0    0  501    0  0.00000000000E+00  0.00000000000E+00 -1.05497996796E+03  1.05497996796E+03  0.00000000000E+00 0.00000000000E+00  1.
       25    1    1    2    0    0 -2.62895223081E+01  1.23785783667E+02 -1.69532250200E+02  2.45723916376E+02  1.25000000000E+02 0.00000000000E+00  1.
        6    2    1    2  501    0  7.37399941085E+01 -1.11203555741E+02 -5.33916648209E+02  5.75792609513E+02  1.69311323882E+02 0.00000000000E+00  1.
        3    1    1    2  502    0 -4.74504718004E+01 -1.25822279258E+01 -2.90437527314E+02  2.94556984310E+02  5.39479660939E-06 0.00000000000E+00  1.
        5    1    4    4  501    0  5.59629300331E+01 -1.03586066008E+02 -2.06153461998E+02  2.37452595275E+02  4.75000000000E+00 0.00000000000E+00  1.
       24    2    4    4    0    0  1.77770640754E+01 -7.61748973294E+00 -3.27763186210E+02  3.38340014238E+02  8.16774683916E+01 0.00000000000E+00  1.
      -13    1    7    7    0    0  2.59870673851E+01 -1.92143486455E+01 -3.20965969136E+02  3.22589031699E+02  1.05659999746E-01 0.00000000000E+00  1.
       14    1    7    7    0    0 -8.21000330970E+00  1.15968589125E+01 -6.79721707422E+00  1.57509825388E+01  9.38654884578E-07 0.00000000000E+00  1.
</event>
<event>
 9 114   1.0000000E+00   3.1250000E+01   7.8125000E-03   1.5660620E-01
        5   -1    0    0  501    0  0.00000000000E+00  0.00000000000E+00  6.85394864206E+02  6.85394864206E+02  0.00000000000E+00 0.00000000000E+00  1.
        2   -1    0    0  502    0  0.00000000000E+00  0.00000000000E+00 -3.91989104544E+02  3.91989104544E+02  0.00000000000E+00 0.00000000000E+00  1.
       25    1    1    2    0    0  8.20087360551E+01 -1.33899034140E+02  1.75362107040E+02  2.66516890118E+02  1.25000000000E+02 0.00000000000E+00  1.
        6    2    1    2  501    0  2.80370125498E+01  1.70380448285E+02  4.20529895721E+02  4.86924355874E+02  1.74454475202E+02 0.00000000000E+00  1.
        1    1    1    2  502    0 -1.10045748605E+02 -3.64814141448E+01 -3.02486243098E+02  3.23942722758E+02  7.62939453125E-06 0.00000000000E+00  1.
        5    1    4    4  501    0 -1.29375596648E+01  6.02351218851E+01  2.52471136402E+01  6.67505026630E+01  4.75000000000E+00 0.00000000000E+00  1.
       24    2    4    4    0    0  4.09745722146E+01  1.10145326400E+02  3.95282782081E+02  4.20173853211E+02  8.05399318165E+01 0.00000000000E+00  1.
       -1    1    7    7    0  703 -1.13448829009E+01  5.28520329855E+01  8.82511800764E+01  1.03490649547E+02  4.47312904341E-06 0.00000000000E+00  1.
        2    1    7    7  703    0  5.23194551155E+01  5.72932934143E+01  3.07031602004E+02  3.16683203665E+02  5.39479660939E-06 0.00000000000E+00  1.
</event>
<event>
 9 114   1.0000000E+00   3.1250000E+01   7.8125000E-03   1.5660620E-01
        5   -1    0    0  501    0  0.00000000000E+00  0.00000000000E+00  3.39979631920E+01  3.39979631920E+01  0.00000000000E+00 0.00000000000E+00  1.
        2   -1    0    0  502    0  0.00000000000E+00  0.00000000000E+00 -3.96149231010E+03  3.96149231010E+03  0.00000000000E+00 0.00000000000E+00  1.
       25    1    1    2    0    0  5.16493207809E+01 -2.13768626212E+02 -1.04677907925E+03  1.07691045062E+03  1.25000000000E+02 0.00000000000E+00  1.
        6    2    1    2  501    0  8.17648984708E+01  8.60136519808E+01 -7.14884823783E+02  7.44886606293E+02  1.72371395566E+02 0.00000000000E+00  1.
        1    1    1    2  502    0 -1.33414219252E+02  1.27754974231E+02 -2.16583044387E+03  2.17369321638E+03  3.05175781250E-05 0.00000000000E+00  1.
        5    1    4    4  501    0 -3.30758190971E+01  5.61687151640E+01 -2.12338782850E+02  2.22169429883E+02  4.75000000000E+00 0.00000000000E+00  1.
       24    2    4    4    0    0  1.14840717568E+02  2.98449368168E+01 -5.02546040933E+02  5.22717176410E+02  8.12503082524E+01 0.00000000000E+00  1.
      -11    1    7    7    0    0  4.20804864192E+01 -6.30006566316E-01 -6.05638651127E+01  7.37505661212E+01  5.11000377541E-04 0.00000000000E+00  1.
       12    1    7    7    0    0  7.27602311488E+01  3.04749433831E+01 -4.41982175821E+02  4.48966610289E+02  7.62939453125E-06 0.00000000000E+00  1.
</event>
<event>
 9 114   1.0000000E+00   3.1250000E+01   7.8125000E-03   1.5660620E-01
        5   -1    0    0  501    0  0.00000000000E+00  0.00000000000E+00  2.80561314814E+02  2.80561314814E+02  0.00000000000E+00 0.00000000000E+00  1.
        2   -1    0    0  502    0  0.00000000000E+00  0.00000000000E+00 -2.77764215564E+02  2.77764215564E+02  0.00000000000E+00 0.00000000000E+00  1.
       25    1    1    2    0    0  1.69565555837E+01  1.61297883035E+02 -1.37210063042E+02  2.46487592485E+02  1.25000000000E+02 0.00000000000E+00  1.
        6    2    1    2  501    0  6.58199717324E+00 -1.80199797238E+02  1.15822198602E+02  2.73156439795E+02  1.69364604629E+02 0.00000000000E+00  1.
        1    1    1    2  502    0 -2.35385527569E+01  1.89019142028E+01  2.41849636898E+01  3.86814980979E+01  1.39020726558E-06 0.00000000000E+00  1.
        5    1    4    4  501    0  6.59589580135E+01 -5.33030917009E+01  2.54751210856E+01  8.86755209820E+01  4.75000000000E+00 0.00000000000E+00  1.
       24    2    4    4    0    0 -5.93769608403E+01 -1.26896705537E+02  9.03470775162E+01  1.84480918813E+02  7.90077061781E+01 0.00000000000E+00  1.
       -1    1    7    7    0  703 -5.70682475865E+01 -5.37746391973E+01  1.57142373237E+01  7.99714571460E+01  9.68460846500E-07 0.00000000000E+00  1.
        2    1    7    7  703    0 -2.30871325374E+00 -7.31220663399E+01  7.46328401925E+01  1.04509461667E+02  1.34869915235E-06 0.00000000000E+00  1.
</event>
<event>
 9 114   1.0000000E+00   3.1250000E+01   7.8125000E-03   1.5660620E-01
        2   -1    0    0  502    0  0.00000000000E+00  0.00000000000E+00  2.60525249603E+03  2.60525249603E+03  0.00000000000E+00 0.00000000000E+00  1.
        5   -1    0    0  501    0  0.00000000000E+00  0.00000000000E+00 -9.41341331090E+02  9.41341331090E+02  0.00000000000E+00 0.00000000000E+00  1.
       25    1    1    2    0    0  1.91524340643E+02  5.31693448901E+02  1.25796436516E+03  1.38473060220E+03  1.25000000000E+02 0.00000000000E+00  1.
        6    2    1    2  501    0 -3.68987799650E+02 -2.95823243694E+02 -7.86613716660E+02  9.33315863860E+02  1.69274849565E+02 0.00000000000E+00  1.
        1    1    1    2  502    0  1.77463459007E+02 -2.35870205207E+02  1.19256051644E+03  1.22854736106E+03  2.15791864376E-05 0.00000000000E+00  1.
        5    1    4    4  501    0 -1.47203191453E+02 -8.09908736964E+01 -3.82024476461E+02  4.17365025261E+02  4.75000000000E+00 0.00000000000E+00  1.
       24    2    4    4    0    0 -2.21784608197E+02 -2.14832369998E+02 -4.04589240200E+02  5.15950838599E+02  8.46844432836E+01 0.00000000000E+00  1.
      -11    1    7    7    0    0 -1.63794798458E+02 -2.01303198239E+02 -3.44945729269E+02  4.31670325322E+02  5.10941639717E-04 0.00000000000E+00  1.
       12    1    7    7    0    0 -5.79898097393E+01 -1.35291717589E+01 -5.96435109310E+01  8.42805132771E+01  4.26496119976E-06 0.00000000000E+00  1.
</event>
<event>
 9 114   1.0000000E+00   3.1250000E+01   7.8125000E-03   1.5660620E-01
       -3   -1    0    0    0  502  0.00000000000E+00  0.00000000000E+00  4.31583772701E+02  4.31583772701E+02  0.00000000000E+00 0.00000000000E+00  1.
        5   -1    0    0  501    0  0.00000000000E+00  0.00000000000E+00 -9.97697074751E+01  9.97697074751E+01  0.00000000000E+00 0.00000000000E+00  1.
       25    1    1    2    0    0 -4.68540345676E+01 -8.04469232232E+01  2.30230921101E+02  2.78025691335E+02  1.25000000000E+02 0.00000000000E+00  1.
        6    2    1    2  501    0  5.78366460180E+01  4.05635930762E+01  6.70607058610E+01  1.99447397959E+02  1.74044947000E+02 0.00000000000E+00  1.
       -4    1    1    2    0  502 -1.09826114504E+01  3.98833301470E+01  3.45224382635E+01  5.38803908815E+01  0.00000000000E+00 0.00000000000E+00  1.
        5    1    4    4  501    0  4.17365798896E+01 -2.98980874427E+01 -2.58707419194E+01  5.76861813702E+01  4.75000000000E+00 0.00000000000E+00  1.
       24    2    4    4    0    0  1.61000661284E+01  7.04616805189E+01  9.29314477804E+01  1.41761216589E+02  7.89678921545E+01 0.00000000000E+00  1.
      -13    1    7    7    0    0  3.57329873938E+01  6.68226876250E+01  9.51876501044E+01  1.21666831412E+02  1.05660000012E-01 0.00000000000E+00  1.
       14    1    7    7    0    0 -1.96329212654E+01  3.63899289390E+00 -2.25620232400E+00  2.00943851765E+01  1.22805820573E-06 0.00000000000E+00  1.
</event>
<event>
 9 114   1.0000000E+00   3.1250000E+01   7.8125000E-03   1.5660620E-01
        5   -1    0    0  501    0  0.00000000000E+00  0.00000000000E+00  2.39236743627E+03  2.39236743627E+03  0.00000000000E+00 0.00000000000E+00  1.
        2   -1    0    0  502    0  0.00000000000E+00  0.00000000000E+00 -8.49218701565E+01  8.49218701565E+01  0.00000000000E+00 0.00000000000E+00  1.
       25    1    1    2    0    0 -2.16468753374E+02 -5.19642540593E+01  9.87801181881E+02  1.02026230932E+03  1.25000000000E+02 0.00000000000E+00  1.
        6    2    1    2  501    0 -1.21638815447E+01 -1.01434696624E+02  1.05919470163E+03  1.07803074780E+03  1.72684450815E+02 0.00000000000E+00  1.
        1    1    1    2  502    0  2.28632634918E+02  1.53398950683E+02  2.60449682600E+02  3.78996249304E+02  7.62939453125E-06 0.00000000000E+00  1.
        5    1    4    4  501    0  6.44100685818E+00  3.01509595897E+01  3.77154933479E+02  3.78442826964E+02  4.75000000000E+00 0.00000000000E+00  1.
       24    2    4    4    0    0 -1.86048884029E+01 -1.31585656214E+02  6.82039768151E+02  6.99587920838E+02  8.11423862663E+01 0.00000000000E+00  1.
      -13    1    7    7    0    0  1.86281636096E+01 -3.52255312168E+01  3.38923976654E+02  3.41258435271E+02  1.05660000159E-01 0.00000000000E+00  1.
       14    1    7    7    0    0 -3.72330520125E+01 -9.63601249969E+01  3.43115791497E+02  3.58329485566E+02  3.81469726562E-06 0.00000000000E+00  1.
</event>
<event>
 9 114   1.0000000E+00   3.1250000E+01   7.8125000E-03   1.5660620E-01
        2   -1    0    0  502    0  0.00000000000E+00  0.00000000000E+00  2.64562074697E+03  2.64562074697E+03  0.00000000000E+00 0.00000000000E+00  1.
        5   -1    0    0  501    0  0.00000000000E+00  0.00000000000E+00 -3.30901680031E+01  3.30901680031E+01  0.00000000000E+00 0.00000000000E+00  1.
       25    1    1    2    0    0 -4.92757448878E+01  5.78964980833E+01  4.08607844952E+02  4.34010915163E+02  1.25000000000E+02 0.00000000000E+00  1.
        6    2    1    2  501    0  1.37457434494E+02 -7.03578515374E+01  6.99208121434E+02  7.37352209476E+02  1.75930412857E+02 0.00000000000E+00  1.
        1    1    1    2  502    0 -8.81816896067E+01  1.24613534541E+01  1.50471461258E+03  1.50734779034E+03  2.15791864376E-05 0.00000000000E+00  1.
        5    1    4    4  501    0  1.33463537079E+02 -1.23194402497E+01  4.27860403814E+02  4.48387524347E+02  4.75000000001E+00 0.00000000000E+00  1.
       24    2    4    4    0    0  3.99389741584E+00 -5.80384112877E+01  2.71347717620E+02  2.88964685129E+02  8.05394126670E+01 0.00000000000E+00  1.
       -1    1    7    7    0  703 -5.98870209230E+00  1.52398914570E+01  1.51551858815E+01  2.23113985101E+01  3.14043518837E-06 0.00000000000E+00  1.
        2    1    7    7  703    0  9.98259950814E+00 -7.32783027448E+01  2.56192531739E+02  2.66653286619E+02  5.39479660939E-06 0.00000000000E+00  1.
</event>
<event>
 9 114   1.0000000E+00   3.1250000E+01   7.8125000E-03   1.5660620E-01
        5   -1    0    0  501    0  0.00000000000E+00  0.00000000000E+00  2.67505185727E+02  2.67505185727E+02  0.00000000000E+00 0.00000000000E+00  1.
        2   -1    0    0  502    0  0.00000000000E+00  0.00000000000E+00 -9.33023188610E+02  9.33023188610E+02  0.00000000000E+00 0.00000000000E+00  1.
       25    1    1    2    0    0 -8.25800739414E+00  9.22427209285E+01  1.76659540257E+01  1.56569473979E+02  1.25000000000E+02 0.00000000000E+00  1.
        6    2    1    2  501    0  8.36580210730E+01 -7.23943623570E+01  1.19636981667E+02  2.37360748354E+02  1.72590582843E+02 0.00000000000E+00  1.
        1    1    1    2  502    0 -7.54000136789E+01 -1.98483585715E+01 -8.02820938575E+02  8.06598152003E+02  0.00000000000E+00 0.00000000000E+00  1.
        5    1    4    4  501    0 -2.37582207958E+00 -7.17894807659E+01  3.09409161166E+00  7.20521337789E+01  4.75000000000E+00 0.00000000000E+00  1.
       24    2    4    4    0    0  8.60338431526E+01 -6.04881591100E-01  1.16542890055E+02  1.65308614576E+02  7.96398441811E+01 0.00000000000E+00  1.
      -13    1    7    7    0    0  1.11247182527E+01  1.03068765494E+01 -9.77617401858E+00  1.80437192087E+01  1.05659999967E-01 0.00000000000E+00  1.
       14    1    7    7    0    0  7.49091248999E+01 -1.09117581405E+01  1.26319064073E+02  1.47264895367E+02  1.34869915235E-06 0.00000000000E+00  1.
</event>
<event>
 9 114   1.0000000E+00   3.1250000E+01   7.8125000E-03   1.5660620E-01
        5   -1    0    0  501    0  0.00000000000E+00  0.00000000000E+00  2.47288176448E+02  2.47288176448E+02  0.00000000000E+00 0.00000000000E+00  1.
        2   -1    0    0  502    0  0.00000000000E+00  0.00000000000E+00 -4.98793831440E+02  4.98793831440E+02  0.00000000000E+00 0.00000000000E+00  1.
       25    1    1    2    0    0  5.80490559072E+01  2.31536928930E+01 -4.09225769789E+02  4.32430939048E+02  1.25000000000E+02 0.00000000000E+00  1.
        6    2    1    2  501    0 -4.92386925233E+01  4.96350190416E+01  1.51022562643E+02  2.40025826614E+02  1.72963866336E+02 0.00000000000E+00  1.
        1    1    1    2  502    0 -8.81036338382E+00 -7.27887119346E+01  6.69755215384E+00  7.36252422264E+01  8.38711695640E-07 0.00000000000E+00  1.
        5    1    4    4  501    0 -3.85564748473E+01  8.32244120892E+01  4.08473763166E+01  1.00518531486E+02  4.75000000000E+00 0.00000000000E+00  1.
       24    2    4    4    0    0 -1.06822176760E+01 -3.35893930476E+01  1.10175186326E+02  1.39507295128E+02  7.79830533647E+01 0.00000000000E+00  1.
       -1    1    7    7    0  703  3.32810598951E+01 -2.22086222841E+01  5.58126343398E+01  6.86724253500E+01  1.50789149292E-06 0.00000000000E+00  1.
        2    1    7    7  703    0 -4.39632775711E+01 -1.13807707635E+01  5.43625519867E+01  7.08348697780E+01  1.16800772800E-06 0.00000000000E+00  1.
</event>
<event>
 9 114   1.0000000E+00   3.1250000E+01   7.8125000E-03   1.5660620E-01
        2   -1    0    0  502    0  0.00000000000E+00  0.00000000000E+00  1.90849444498E+03  1.90849444498E+03  0.00000000000E+00 0.00000000000E+00  1.
        5   -1    0    0  501    0  0.00000000000E+00  0.00000000000E+00 -1.08667694839E+02  1.08667694839E+02  0.00000000000E+00 0.00000000000E+00  1.
       25    1    1    2    0    0  1.50489095833E+01 -1.33958810151E+02  8.83319110627E+02  9.02246686719E+02  1.25000000000E+02 0.00000000000E+00  1.
        6    2    1    2  501    0 -7.26617216584E+01 -5.67936935421E+01  1.64954667824E+01  1.93108713676E+02  1.68859780448E+02 0.00000000000E+00  1.
        1    1    1    2  502    0  5.76128120750E+01  1.90752503693E+02  9.00012172736E+02  9.21806739427E+02  2.41262638868E-05 0.00000000000E+00  1.
        5    1    4    4  501    0  1.68776626412E+00 -7.43650201704E+01  2.89884091691E+01  7.99743405479E+01  4.75000000000E+00 0.00000000000E+00  1.
       24    2    4    4    0    0 -7.43494879225E+01  1.75713266283E+01 -1.24929423867E+01  1.13134373129E+02  8.25028175271E+01 0.00000000000E+00  1.
      -11    1    7    7    0    0  1.01403378146E+01  1.82668374531E+01  1.33309682321E+01  2.47834322845E+01  5.10999432005E-04 0.00000000000E+00  1.
       12    1    7    7    0    0 -8.44898257371E+01 -6.95510824806E-01 -2.58239106188E+01  8.83509408441E+01  8.25906184945E-07 0.00000000000E+00  1.
</event>
<event>
 9 114   1.0000000E+00   3.1250000E+01   7.8125000E-03   1.5660620E-01
        5   -1    0    0  501    0  0.00000000000E+00  0.00000000000E+00  1.36202783897E+02  1.36202783897E+02  0.00000000000E+00 0.00000000000E+00  1.
        2   -1    0    0  502    0  0.00000000000E+00  0.00000000000E+00 -1.44792804026E+03  1.44792804026E+03  0.00000000000E+00 0.00000000000E+00  1.
       25    1    1    2    0    0 -2.16630716359E+02  1.99715059666E+02 -4.96210628864E+02  5.90478586000E+02  1.25000000000E+02 0.00000000000E+00  1.
        6    2    1    2  501    0  1.51179356433E+02 -1.78280012765E+02 -1.55065688937E+02  3.29622011284E+02  1.73107890273E+02 0.00000000000E+00  1.
        1    1    1    2  502    0  6.54513599258E+01 -2.14350469013E+01 -6.60448938559E+02  6.64030226868E+02  7.62939453125E-06 0.00000000000E+00  1.
        5    1    4    4  501    0  1.28982906044E+02 -5.30145650853E+01 -6.58485279982E+01  1.54291040900E+02  4.75000000000E+00 0.00000000000E+00  1.
       24    2    4    4    0    0  2.21964503898E+01 -1.25265447679E+02 -8.92171609385E+01  1.75330970384E+02  8.12227343642E+01 0.00000000000E+00  1.
      -11    1    7    7    0    0 -6.20146084089E+00 -4.39631746932E+00  1.26309313633E+01  1.47419859998E+01  5.11005411103E-04 0.00000000000E+00  1.
       12    1    7    7    0    0  2.83979112307E+01 -1.20869130210E+02 -1.01848092302E+02  1.60588984384E+02  1.90734863281E-06 0.00000000000E+00  1.
</event>
<event>
 9 114   1.0000000E+00   3.1250000E+01   7.8125000E-03   1.5660620E-01
        5   -1    0    0  501    0  0.00000000000E+00  0.00000000000E+00  1.35655067602E+02  1.35655067602E+02  0.00000000000E+00 0.00000000000E+00  1.
        2   -1    0    0  502    0  0.00000000000E+00  0.00000000000E+00 -1.69052188129E+03  1.69052188129E+03  0.00000000000E+00 0.00000000000E+00  1.
       25    1    1    2    0    0  1.00878566498E+01 -1.62773285133E+02 -2.50529199893E+02  3.24016646492E+02  1.25000000000E+02 0.00000000000E+00  1.
        6    2    1    2  501    0  1.64585491017E+01  1.95060475051E+01  1.41344022933E+01  1.75661651725E+02  1.73222010238E+02 0.00000000000E+00  1.
        1    1    1    2  502    0 -2.65464057516E+01  1.43267237628E+02 -1.31847201609E+03  1.32649865067E+03  3.05175781250E-05 0.00000000000E+00  1.
        5    1    4    4  501    0  3.76757863900E+01 -5.22152838197E+01 -9.34035697472E-01  6.45703931161E+01  4.75000000000E+00 0.00000000000E+00  1.
       24    2    4    4    0    0 -2.12172372883E+01  7.17213313248E+01  1.50684379908E+01  1.11091258609E+02  8.07470704776E+01 0.00000000000E+00  1.
       -3    1    7    7    0  703 -4.18575608490E+01  4.40418317362E+01  3.60876870133E+01  7.06686599341E+01  8.25906184945E-07 0.00000000000E+00  1.
        4    1    7    7  703    0  2.06403235607E+01  2.76794995885E+01 -2.10192490226E+01  4.04225986749E+01  1.03924249257E-06 0.00000000000E+00  1.
</event>
<event>
 9 114   1.0000000E+00   3.1250000E+01   7.8125000E-03   1.5660620E-01
        2   -1    0    0  502    0  0.00000000000E+00  0.00000000000E+00  1.19923407984E+03  1.19923407984E+03  0.00000000000E+00 0.00000000000E+00  1.
        5   -1    0    0  501    0  0.00000000000E+00  0.00000000000E+00 -4.48541079663E+02  4.48541079663E+02  0.00000000000E+00 0.00000000000E+00  1.
       25    1    1    2    0    0 -1.12915926819E+01 -3.64205726190E+02  3.65259832720E+02  5.30860675181E+02  1.25000000000E+02 0.00000000000E+00  1.
        6    2    1    2  501    0  2.35764889004E+02  1.11474730592E+02 -2.47720155692E+02  3.99178914970E+02  1.73109307007E+02 0.00000000000E+00  1.
        1    1    1    2  502    0 -2.24473296322E+02  2.52730995599E+02  6.33153323150E+02  7.17735569353E+02  1.32144989591E-05 0.00000000000E+00  1.
        5    1    4    4  501    0  3.52374374204E+01 -9.25824898497E+00  1.38217452904E+01  3.92555131555E+01  4.75000000000E+00 0.00000000000E+00  1.
       24    2    4    4    0    0  2.00527451584E+02  1.20732979577E+02 -2.61541900983E+02  3.59923401814E+02  7.97055707451E+01 0.00000000000E+00  1.
       -3    1    7    7    0  703  1.25276556713E+02  9.04917022546E+01 -2.19855950449E+02  2.68737051384E+02  3.81469726562E-06 0.00000000000E+00  1.
        4    1    7    7  703    0  7.52508948703E+01  3.02412773223E+01 -4.16859505339E+01  9.11863504302E+01  3.47142691101E-06 0.00000000000E+00  1.
</event>
<event>
 9 114   1.0000000E+00   3.1250000E+01   7.8125000E-03   1.5660620E-01
        2   -1    0    0  502    0  0.00000000000E+00  0.00000000000E+00  3.55821804852E+03  3.55821804852E+03  0.00000000000E+00 0.00000000000E+00  1.
        5   -1    0    0  501    0  0.00000000000E+00  0.00000000000E+00 -9.40668267809E+02  9.40668267809E+02  0.00000000000E+00 0.00000000000E+00  1.
       25    1    1    2    0    0 -5.67449498101E+02 -1.61536775182E+02  3.21458515619E+02  6.83413227773E+02  1.25000000000E+02 0.00000000000E+00  1.
        6    2    1    2  501    0 -8.47133087616E+01  7.85500394553E+01 -7.10401354489E+02  7.37941448337E+02  1.62914220785E+02 0.00000000000E+00  1.
        1    1    1    2  502    0  6.52162806862E+02  8.29867357267E+01  3.00649261959E+03  3.07753164022E+03  6.10351562500E-05 0.00000000000E+00  1.
        5    1    4    4  501    0 -2.71464229372E+01  5.83255104929E+01 -5.04329479911E+02  5.08438374102E+02  4.75000000002E+00 0.00000000000E+00  1.
       24    2    4    4    0    0 -5.75668858245E+01  2.02245289624E+01 -2.06071874578E+02  2.29503074235E+02  8.05174867700E+01 0.00000000000E+00  1.
      -11    1    7    7    0    0 -6.33339042326E+01  3.98905553538E+01 -1.87335534096E+02  2.01735079168E+02  5.11005717009E-04 0.00000000000E+00  1.
       12    1    7    7    0    0  5.76701840809E+00 -1.96660263914E+01 -1.87363404823E+01  2.77679950665E+01  2.79061792152E-06 0.00000000000E+00  1.
</event>
<event>
 9 114   1.0000000E+00   3.1250000E+01   7.8125000E-03   1.5660620E-01
        2   -1    0    0  502    0  0.00000000000E+00  0.00000000000E+00  1.58204198519E+03  1.58204198519E+03  0.00000000000E+00 0.00000000000E+00  1.
        5   -1    0    0  501    0  0.00000000000E+00  0.00000000000E+00 -2.43609509549E+02  2.43609509549E+02  0.00000000000E+00 0.00000000000E+00  1.
       25    1    1    2    0    0 -1.87825650411E+02 -3.08646299623E+02  4.91177504321E+02  6.22431806686E+02  1.25000000000E+02 0.00000000000E+00  1.
        6    2    1    2  501    0  2.34148692792E+02  6.12121813795E+01 -2.10833021620E+01  2.99128528756E+02  1.74530311407E+02 0.00000000000E+00  1.
        1    1    1    2  502    0 -4.63230423809E+01  2.47434118244E+02  8.68338273483E+02  9.04091159299E+02  1.86881236479E-05 0.00000000000E+00  1.
        5    1    4    4  501    0  9.09166413755E+01  4.76574676119E+01  5.62996311933E+01  1.17172014025E+02  4.75000000000E+00 0.00000000000E+00  1.
       24    2    4    4    0    0  1.43232051417E+02  1.35547137677E+01 -7.73829333554E+01  1.81956514731E+02  8.01305438638E+01 0.00000000000E+00  1.
      -15    1    7    7    0    0  1.38895636487E+01 -1.88043705576E+01 -3.48602373755E+01  4.20109211817E+01  1.77680000000E+00 0.00000000000E+00  1.
       16    1    7    7    0    0  1.29342487768E+02  3.23590843253E+01 -4.25226959799E+01  1.39945593549E+02  1.06624029994E-06 0.00000000000E+00  1.
</event>
<event>
 9 114   1.0000000E+00   3.1250000E+01   7.8125000E-03   1.5660620E-01
        5   -1    0    0  501    0  0.00000000000E+00  0.00000000000E+00  3.41211392136E+02  3.41211392136E+02  0.00000000000E+00 0.00000000000E+00  1.
        2   -1    0    0  502    0  0.00000000000E+00  0.00000000000E+00 -1.32319688091E+03  1.32319688091E+03  0.00000000000E+00 0.00000000000E+00  1.
       25    1    1    2    0    0  1.53887232498E+02  2.49545870624E+02 -2.28221825394E+02  3.92000795226E+02  1.25000000000E+02 0.00000000000E+00  1.
        6    2    1    2  501    0 -1.22837016354E+02  4.64889032034E+01  1.85497436334E+02  2.87109494125E+02  1.75420671595E+02 0.00000000000E+00  1.
        1    1    1    2  502    0 -3.10502161434E+01 -2.96034773827E+02 -9.39261099712E+02  9.85297983693E+02  1.52587890625E-05 0.00000000000E+00  1.
        5    1    4    4  501    0 -6.42032683260E+01 -7.97981115859E+00  1.58375923082E+02  1.71146815810E+02  4.75000000000E+00 0.00000000000E+00  1.
       24    2    4    4    0    0 -5.86337480282E+01  5.44687143620E+01  2.71215132522E+01  1.15962678316E+02  7.94166797908E+01 0.00000000000E+00  1.
       -3    1    7    7    0  703 -6.06209407777E+00  4.44587698926E+01 -1.55800322235E+01  4.74980905833E+01  8.76005795997E-07 0.00000000000E+00  1.
        4    1    7    7  703    0 -5.25716539504E+01  1.00099444693E+01  4.27015454757E+01  6.84645877325E+01  1.06624029994E-06 0.00000000000E+00  1.
</event>
<event>
 9 114   1.0000000E+00   3.1250000E+01   7.8125000E-03   1.5660620E-01
        2   -1    0    0  502    0  0.00000000000E+00  0.00000000000E+00  2.54373012439E+03  2.54373012439E+03  0.00000000000E+00 0.00000000000E+00  1.
        5   -1    0    0  501    0  0.00000000000E+00  0.00000000000E+00 -1.34261501207E+03  1.34261501207E+03  0.00000000000E+00 0.00000000000E+00  1.
       25    1    1    2    0    0  1.80588837627E+02 -1.27399977469E+02 -6.73498006712E+02  7.19769162704E+02  1.25000000000E+02 0.00000000000E+00  1.
        6    2    1    2  501    0 -2.47458589370E+02  3.66340439134E+02 -5.51540345090E+02  7.27767916656E+02  1.73229089516E+02 0.00000000000E+00  1.
        1    1    1    2  502    0  6.68697517428E+01 -2.38940461666E+02  2.42615346412E+03  2.43880805711E+03  3.05175781250E-05 0.00000000000E+00  1.
        5    1    4    4  501    0 -1.99772071967E+02  1.96440373553E+02 -3.39124009939E+02  4.39915171046E+02  4.75000000001E+00 0.00000000000E+00  1.
       24    2    4    4    0    0 -4.76865174031E+01  1.69900065582E+02 -2.12416335151E+02  2.87852745610E+02  8.12309515504E+01 0.00000000000E+00  1.
       -3    1    7    7    0  703  2.13908384015E+01  5.77742384645E+01 -5.47449230052E+01  8.24162434992E+01  2.78041453116E-06 0.00000000000E+00  1.
        4    1    7    7  703    0 -6.90773558046E+01  1.12125827117E+02 -1.57671412145E+02  2.05436502111E+02  3.81469726562E-06 0.00000000000E+00  1.
</event>
<event>
 9 114   1.0000000E+00   3.1250000E+01   7.8125000E-03   1.5660620E-01
        5   -1    0    0  501    0  0.00000000000E+00  0.00000000000E+00  5.79764874128E+02  5.79764874128E+02  0.00000000000E+00 0.00000000000E+00  1.
        2   -1    0    0  502    0  0.00000000000E+00  0.00000000000E+00 -2.71944485649E+03  2.71944485649E+03  0.00000000000E+00 0.00000000000E+00  1.
       25    1    1    2    0    0  3.75262561618E+02  4.58284048661E+01 -1.61443582715E+03  1.66281396219E+03  1.25000000000E+02 0.00000000000E+00  1.
        6    2    1    2  501    0 -2.80278216142E+02 -7.33392292649E+01  5.01382209721E+02  6.05017775398E+02  1.75293660269E+02 0.00000000000E+00  1.
        1    1    1    2  502    0 -9.49843454757E+01  2.75108243988E+01 -1.02662636493E+03  1.03137799304E+03  1.52587890625E-05 0.00000000000E+00  1.
        5    1    4    4  501    0 -1.27100005278E+02 -6.74066471873E+01  1.25846760112E+02  1.91201561074E+02  4.75000000000E+00 0.00000000000E+00  1.
       24    2    4    4    0    0 -1.53178210864E+02 -5.93258207765E+00  3.75535449609E+02  4.13816214324E+02  8.19647821358E+01 0.00000000000E+00  1.
      -11    1    7    7    0    0  6.18140867204E+00 -1.27836782265E+01  2.66369294447E+01  3.01853980042E+01  5.10961553486E-04 0.00000000000E+00  1.
       12    1    7    7    0    0 -1.59359619536E+02  6.85109614886E+00  3.48898520165E+02  3.83630816320E+02  6.60724947956E-06 0.00000000000E+00  1.
</event>
<event>
 9 114   1.0000000E+00   3.1250000E+01   7.8125000E-03   1.5660620E-01
        2   -1    0    0  502    0  0.00000000000E+00  0.00000000000E+00  2.59370081535E+03  2.59370081535E+03  0.00000000000E+00 0.00000000000E+00  1.
        5   -1    0    0  501    0  0.00000000000E+00  0.00000000000E+00 -7.48859222532E+01  7.48859222532E+01  0.00000000000E+00 0.00000000000E+00  1.
       25    1    1    2    0    0  1.47545366004E+02  2.83952178408E+01  3.69901547754E+02  4.18363572095E+02  1.25000000000E+02 0.00000000000E+00  1.
        6    2    1    2  501    0 -1.02323275685E+02 -1.63385724934E+02  3.06116649959E+02  4.01935543146E+02  1.75156585954E+02 0.00000000000E+00  1.
        1    1    1    2  502    0 -4.52220903189E+01  1.34990507093E+02  1.84279669539E+03  1.84828762236E+03  5.28579958365E-05 0.00000000000E+00  1.
        5    1    4    4  501    0 -1.82246038816E+01 -9.69043306217E+01  2.21344046941E+02  2.42359928816E+02  4.75000000000E+00 0.00000000000E+00  1.
       24    2    4    4    0    0 -8.40986718037E+01 -6.64813943119E+01  8.47726030181E+01  1.59575614329E+02  8.23748752797E+01 0.00000000000E+00  1.
       -1    1    7    7    0  703 -5.13290255225E+01  5.45897030952E+00  5.41178250871E+01  7.47877544127E+01  1.34869915235E-06 0.00000000000E+00  1.
        2    1    7    7  703    0 -3.27696462812E+01 -7.19403646215E+01  3.06547779310E+01  8.47878599167E+01  1.71926082395E-06 0.00000000000E+00  1.
</event>
<event>
 9 114   1.0000000E+00   3.1250000E+01   7.8125000E-03   1.5660620E-01
        5   -1    0    0  501    0  0.00000000000E+00  0.00000000000E+00  3.18035046014E+02  3.18035046014E+02  0.00000000000E+00 0.00000000000E+00  1.
        2   -1    0    0  502    0  0.00000000000E+00  0.00000000000E+00 -1.28567107438E+03  1.28567107438E+03  0.00000000000E+00 0.00000000000E+00  1.
       25    1    1    2    0    0 -1.71680512855E+02 -2.25664101329E+01 -1.06551752899E+03  1.08670881378E+03  1.25000000000E+02 0.00000000000E+00  1.
        6    2    1    2  501    0  1.54048501872E+02 -1.99103029846E+01  2.59737098700E+02  3.48734436090E+02  1.73277192325E+02 0.00000000000E+00  1.
        1    1    1    2  502    0  1.76320109831E+01  4.24767131175E+01 -1.61855598076E+02  1.68262870524E+02  3.81469726562E-06 0.00000000000E+00  1.
        5    1    4    4  501    0  1.32816515884E+02  1.83233665890E+01  1.16846985621E+02  1.77909396051E+02  4.75000000000E+00 0.00000000000E+00  1.
       24    2    4    4    0    0  2.12319859886E+01 -3.82336695736E+01  1.42890113079E+02  1.70825040039E+02  8.27707627761E+01 0.00000000000E+00  1.
       -3    1    7    7    0  703  3.61577471686E+00  1.60622442579E+01 -5.19663513694E-01  1.64723880349E+01  1.30268027280E-06 0.00000000000E+00  1.
        4    1    7    7  703    0  1.76162112717E+01 -5.42959138315E+01  1.43409776592E+02  1.54352652004E+02  1.90734863281E-06 0.00000000000E+00  1.
</event>
<event>
 9 114   1.0000000E+00   3.1250000E+01   7.8125000E-03   1.5660620E-01
        5   -1    0    0  501    0  0.00000000000E+00  0.00000000000E+00  2.41642285021E+02  2.41642285021E+02  0.00000000000E+00 0.00000000000E+00  1.
        2   -1    0    0  502    0  0.00000000000E+00  0.00000000000E+00 -3.14327778325E+02  3.14327778325E+02  0.00000000000E+00 0.00000000000E+00  1.
       25    1    1    2    0    0 -4.73241084572E+01  1.57226396821E+02 -1.70480779632E+01  2.07063632878E+02  1.25000000000E+02 0.00000000000E+00  1.
        6    2    1    2  501    0 -6.32949365853E+01 -1.37091496870E+02 -1.79798511680E+01  2.30331224536E+02  1.72999625541E+02 0.00000000000E+00  1.
        1    1    1    2  502    0  1.10619045043E+02 -2.01348999515E+01 -3.76575641729E+01  1.18575205931E+02  2.23656452171E-06 0.00000000000E+00  1.
        5    1    4    4  501    0 -6.09960632772E+01 -6.50176952785E+01 -6.63622313373E+01  1.11239959919E+02  4.75000000000E+00 0.00000000000E+00  1.
       24    2    4    4    0    0 -2.29887330808E+00 -7.20738015911E+01  4.83823801693E+01  1.19091264618E+02  8.14982018398E+01 0.00000000000E+00  1.
       -1    1    7    7    0  703 -2.05831837214E+01 -6.85102336694E+01  6.30704927176E+01  9.53687927007E+01  1.34869915235E-06 0.00000000000E+00  1.
        2    1    7    7  703    0  1.82843104134E+01 -3.56356792167E+00 -1.46881125483E+01  2.37224719171E+01  1.37994729314E-06 0.00000000000E+00  1.
</event>
<event>
 9 114   1.0000000E+00   3.1250000E+01   7.8125000E-03   1.5660620E-01
        5   -1    0    0  501    0  0.00000000000E+00  0.00000000000E+00  9.36072556615E+01  9.36072556615E+01  0.00000000000E+00 0.00000000000E+00  1.
        2   -1    0    0  502    0  0.00000000000E+00  0.00000000000E+00 -1.93949862208E+03  1.93949862208E+03  0.00000000000E+00 0.00000000000E+00  1.
       25    1    1    2    0    0 -2.31141085778E+02 -1.99030011786E+02 -8.00256257830E+02  8.65490742482E+02  1.25000000000E+02 0.00000000000E+00  1.
        6    2    1    2  501    0  1.89037366652E+02  8.46760960072E+01 -2.64970133842E+02  3.77496571996E+02  1.71433143862E+02 0.00000000000E+00  1.
        1    1    1    2  502    0  4.21037191267E+01  1.14353915779E+02 -7.80664974743E+02  7.90118563261E+02  1.07895932188E-05 0.00000000000E+00  1.
        5    1    4    4  501    0 -2.36736787284E+01  1.25086353093E+01 -2.56483863090E+01  3.73806265610E+01  4.75000000000E+00 0.00000000000E+00  1.
       24    2    4    4    0    0  2.12711045380E+02  7.21674606980E+01 -2.39321747533E+02  3.40115945435E+02  8.91617983569E+01 0.00000000000E+00  1.
       -1    1    7    7    0  703  1.71974988893E+01  2.72610961856E+01 -7.20186500708E+01  7.89025176487E+01  1.65181236989E-06 0.00000000000E+00  1.
        2    1    7    7  703    0  1.95513546491E+02  4.49063645124E+01 -1.67303097463E+02  2.61213427786E+02  5.72204589844E-06 0.00000000000E+00  1.
</event>
<event>
 9 114   1.0000000E+00   3.1250000E+01   7.8125000E-03   1.5660620E-01
        2   -1    0    0  502    0  0.00000000000E+00  0.00000000000E+00  8.58556798949E+02  8.58556798949E+02  0.00000000000E+00 0.00000000000E+00  1.
        5   -1    0    0  501    0  0.00000000000E+00  0.00000000000E+00 -1.07223308945E+02  1.07223308945E+02  0.00000000000E+00 0.00000000000E+00  1.
       25    1    1    2    0    0  1.42018511538E+02 -3.26455060400E+01  5.64206514556E+02  5.95977329898E+02  1.25000000000E+02 0.00000000000E+00  1.
        6    2    1    2  501    0 -8.63045686581E+01  2.35684061014E+01  1.95083713463E+01  1.92934370373E+02  1.69820924450E+02 0.00000000000E+00  1.
        1    1    1    2  502    0 -5.57139428798E+01  9.07709993862E+00  1.67618604101E+02  1.76868407624E+02  2.69739830470E-06 0.00000000000E+00  1.
        5    1    4    4  501    0  2.58523476192E+00  4.75612189811E+01 -3.76657771345E+01  6.09099848702E+01  4.75000000000E+00 0.00000000000E+00  1.
       24    2    4    4    0    0 -8.88898034201E+01 -2.39928128797E+01  5.71741484809E+01  1.32024385503E+02  7.53956423867E+01 0.00000000000E+00  1.
      -11    1    7    7    0    0 -1.51921994688E+01  1.72038085884E+01  3.96209651131E+01  4.57885884408E+01  5.10999487625E-04 0.00000000000E+00  1.
       12    1    7    7    0    0 -7.36976039513E+01 -4.11966214681E+01  1.75531833677E+01  8.62357970618E+01  8.92080637640E-07 0.00000000000E+00  1.
</event>
<event>
 9 114   1.0000000E+00   3.1250000E+01   7.8125000E-03   1.5660620E-01
        2   -1    0    0  502    0  0.00000000000E+00  0.00000000000E+00  1.38748518107E+03  1.38748518107E+03  0.00000000000E+00 0.00000000000E+00  1.
        5   -1    0    0  501    0  0.00000000000E+00  0.00000000000E+00 -4.71235971687E+02  4.71235971687E+02  0.00000000000E+00 0.00000000000E+00  1.
       25    1    1    2    0    0  1.23550672771E+02  6.38480643220E+01  1.05956984748E+03  1.07594358855E+03  1.25000000000E+02 0.00000000000E+00  1.
        6    2    1    2  501    0 -1.17788397676E+02 -2.43689013109E+01 -4.37564657769E+02  4.85840952721E+02  1.73524210513E+02 0.00000000000E+00  1.
        1    1    1    2  502    0 -5.76227509502E+00 -3.94791630111E+01  2.94244019677E+02  2.96936611489E+02  8.52992239952E-06 0.00000000000E+00  1.
        5    1    4    4  501    0 -1.28934857662E+01 -8.75686116525E+00 -2.76175556492E+02  2.76655788112E+02  4.75000000000E+00 0.00000000000E+00  1.
       24    2    4    4    0    0 -1.04894911910E+02 -1.56120401456E+01 -1.61389101278E+02  2.09185164609E+02  8.04071684560E+01 0.00000000000E+00  1.
       -1    1    7    7    0  703 -9.72046476794E+01 -4.17619336729E+01 -1.30187036792E+02  1.67754186783E+02  3.30362473978E-06 0.00000000000E+00  1.
        4    1    7    7  703    0 -7.69026423031E+00  2.61498935273E+01 -3.12020644855E+01  4.14309778255E+01  1.68587394044E-06 0.00000000000E+00  1.
</event>
<event>
 9 114   1.0000000E+00   3.1250000E+01   7.8125000E-03   1.5660620E-01
        5   -1    0    0  501    0  0.00000000000E+00  0.00000000000E+00  7.81324553704E+02  7.81324553704E+02  0.00000000000E+00 0.00000000000E+00  1.
        2   -1    0    0  502    0  0.00000000000E+00  0.00000000000E+00 -5.51486847590E+02  5.51486847590E+02  0.00000000000E+00 0.00000000000E+00  1.
       25    1    1    2    0    0  1.05210653024E+01 -5.99294367417E+00 -2.75420540915E+02  3.02701309127E+02  1.25000000000E+02 0.00000000000E+00  1.
        6    2    1    2  501    0 -6.38957351114E+00 -3.95662686818E+01  7.54817165859E+02  7.76392995735E+02  1.77287375985E+02 0.00000000000E+00  1.
        1    1    1    2  502    0 -4.13149179129E+00  4.55592123559E+01 -2.49558918829E+02  2.53717096433E+02  1.54953735440E-05 0.00000000000E+00  1.
        5    1    4    4  501    0 -1.50681901941E+01  2.45136018385E+01  4.91746637782E+02  4.92610683300E+02  4.75000000002E+00 0.00000000000E+00  1.
       24    2    4    4    0    0  8.67861668292E+00 -6.40798705203E+01  2.63070528076E+02  2.83782312435E+02  8.45266225222E+01 0.00000000000E+00  1.
       -1    1    7    7    0  703 -1.23259310271E+01 -6.43926655060E+00  2.62716115222E-01  1.39090527770E+01  1.92938031830E-06 0.00000000000E+00  1.
        2    1    7    7  703    0  2.10045477101E+01 -5.76406039697E+01  2.62807811961E+02  2.69873259658E+02  5.39479660939E-06 0.00000000000E+00  1.
</event>
<event>
 9 114   1.0000000E+00   3.1250000E+01   7.8125000E-03   1.5660620E-01
        5   -1    0    0  501    0  0.00000000000E+00  0.00000000000E+00  1.55365453100E+02  1.55365453100E+02  0.00000000000E+00 0.00000000000E+00  1.
        2   -1    0    0  502    0  0.00000000000E+00  0.00000000000E+00 -1.48304889110E+03  1.48304889110E+03  0.00000000000E+00 0.00000000000E+00  1.
       25    1    1    2    0    0 -1.97461753214E+02 -6.23535822572E+01 -6.15685768548E+02  6.61493067836E+02  1.25000000000E+02 0.00000000000E+00  1.
        6    2    1    2  501    0 -9.32775860028E+01 -5.46230817069E+00 -2.60218392886E+00  2.07265305658E+02  1.84990785466E+02 0.00000000000E+00  1.
        1    1    1    2  502    0  2.90739339217E+02  6.78158904278E+01 -7.09395485522E+02  7.69655970705E+02  1.07895932188E-05 0.00000000000E+00  1.
        5    1    4    4  501    0  2.13212606405E+01  1.90114451167E+01  4.80814291744E+01  5.61285803506E+01  4.75000000000E+00 0.00000000000E+00  1.
       24    2    4    4    0    0 -1.14598846643E+02 -2.44737532874E+01 -5.06836131032E+01  1.51136725307E+02  8.08802871374E+01 0.00000000000E+00  1.
       -3    1    7    7    0  703 -2.25312897921E+01 -1.95902495898E+01  1.91562312221E+01  3.54739072181E+01  2.17209662894E-06 0.00000000000E+00  1.
        4    1    7    7  703    0 -9.20675568513E+01 -4.88350369757E+00 -6.98398443253E+01  1.15662818089E+02  1.65181236989E-06 0.00000000000E+00  1.
</event>
<event>
 9 114   1.0000000E+00   3.1250000E+01   7.8125000E-03   1.5660620E-01
        2   -1    0    0  502    0  0.00000000000E+00  0.00000000000E+00  1.92321807726E+03  1.92321807726E+03  0.00000000000E+00 0.00000000000E+00  1.
        5   -1    0    0  501    0  0.00000000000E+00  0.00000000000E+00 -2.86418765456E+02  2.86418765456E+02  0.00000000000E+00 0.00000000000E+00  1.
       25    1    1    2    0    0 -2.60889551937E+02  4.51930520605E+02  4.15922287646E+02  6.78911557661E+02  1.25000000000E+02 0.00000000000E+00  1.
        6    2    1    2  501    0  3.38632396034E+02 -4.23023824530E+02  3.71910864659E+02  6.77717027850E+02  1.65413490451E+02 0.00000000000E+00  1.
        1    1    1    2  502    0 -7.77428440966E+01 -2.89066960752E+01  8.48966159495E+02  8.53008257202E+02  1.07895932188E-05 0.00000000000E+00  1.
        5    1    4    4  501    0  1.22582202963E+02 -9.72351764387E+01  4.66103300826E+01  1.63328385135E+02  4.75000000000E+00 0.00000000000E+00  1.
       24    2    4    4    0    0  2.16050193071E+02 -3.25788648091E+02  3.25300534576E+02  5.14388642715E+02  7.71965595596E+01 0.00000000000E+00  1.
      -13    1    7    7    0    0  1.51371250667E+01 -4.37904239356E+01  7.10250021362E+01  8.48015086907E+01  1.05660000120E-01 0.00000000000E+00  1.
       14    1    7    7    0    0  2.00913068004E+02 -2.81998224155E+02  2.54275532440E+02  4.29587134025E+02  2.69739830470E-06 0.00000000000E+00  1.
</event>
<event>
 9 114   1.0000000E+00   3.1250000E+01   7.8125000E-03   1.5660620E-01
        4   -1    0    0  502    0  0.00000000000E+00  0.00000000000E+00  5.92967121310E+02  5.92967121310E+02  0.00000000000E+00 0.00000000000E+00  1.
        5   -1    0    0  501    0  0.00000000000E+00  0.00000000000E+00 -2.85433019745E+02  2.85433019745E+02  0.00000000000E+00 0.00000000000E+00  1.
       25    1    1    2    0    0 -2.24477873930E+02 -2.85353390631E+02  1.48582552786E+02  4.11726424245E+02  1.25000000000E+02 0.00000000000E+00  1.
        6    2    1    2  501    0  2.32872267283E+02  2.95026520170E+02  1.73625103260E+02  4.47196846529E+02  1.69024266276E+02 0.00000000000E+00  1.
        3    1    1    2  502    0 -8.39439335238E+00 -9.67312953922E+00 -1.46735544809E+01  1.94768702809E+01  1.41050333574E-06 0.00000000000E+00  1.
        5    1    4    4  501    0  1.49245913676E+02  2.05459584861E+02  5.76882821611E+01  2.60458219603E+02  4.75000000000E+00 0.00000000000E+00  1.
       24    2    4    4    0    0  8.36263536069E+01  8.95669353096E+01  1.15936821099E+02  1.86738626926E+02  8.00897333080E+01 0.00000000000E+00  1.
       -1    1    7    7    0  703  7.65938046978E+01  3.51255253975E+01  9.74191079404E+01  1.28805652222E+02  1.34869915235E-06 0.00000000000E+00  1.
        4    1    7    7  703    0  7.03254890906E+00  5.44414099120E+01  1.85177131581E+01  5.79329747033E+01  6.74349576174E-07 0.00000000000E+00  1.
</event>
<event>
 9 114   1.0000000E+00   3.1250000E+01   7.8125000E-03   1.5660620E-01
        2   -1    0    0  502    0  0.00000000000E+00  0.00000000000E+00  2.52244020385E+02  2.52244020385E+02  0.00000000000E+00 0.00000000000E+00  1.
        5   -1    0    0  501    0  0.00000000000E+00  0.00000000000E+00 -3.44235077585E+02  3.44235077585E+02  0.00000000000E+00 0.00000000000E+00  1.
       25    1    1    2    0    0 -1.71494285013E+02 -1.79980283831E+01 -3.56466506345E+01  2.15939580715E+02  1.25000000000E+02 0.00000000000E+00  1.
        6    2    1    2  501    0  1.92267634228E+01 -5.53417711677E+01 -8.76112674640E+01  2.08662407320E+02  1.80088550369E+02 0.00000000000E+00  1.
        1    1    1    2  502    0  1.52267521590E+02  7.33397995508E+01  3.12668608986E+01  1.71877109936E+02  1.06624029994E-06 0.00000000000E+00  1.
        5    1    4    4  501    0  1.38678244181E+01  5.26097535512E+01 -2.03783334800E+01  5.82918664844E+01  4.75000000000E+00 0.00000000000E+00  1.
       24    2    4    4    0    0  5.35893900475E+00 -1.07951524719E+02 -6.72329339840E+01  1.50370540835E+02  8.00548700744E+01 0.00000000000E+00  1.
       -3    1    7    7    0  703 -3.37591217638E+01 -5.64238845861E+01 -1.55472226922E+01  6.75651477279E+01  6.52936169511E-07 0.00000000000E+00  1.
        4    1    7    7  703    0  3.91180607685E+01 -5.15276401328E+01 -5.16857112919E+01  8.28053931075E+01  9.53674316406E-07 0.00000000000E+00  1.
</event>
<event>
 9 114   1.0000000E+00   3.1250000E+01   7.8125000E-03   1.5660620E-01
        2   -1    0    0  502    0  0.00000000000E+00  0.00000000000E+00  6.41667014368E+02  6.41667014368E+02  0.00000000000E+00 0.00000000000E+00  1.
        5   -1    0    0  501    0  0.00000000000E+00  0.00000000000E+00 -7.12929231484E+02  7.12929231484E+02  0.00000000000E+00 0.00000000000E+00  1.
       25    1    1    2    0    0 -1.87053438320E+02 -3.04464489236E+02 -5.53723278583E+02  6.70762315010E+02  1.25000000000E+02 0.00000000000E+00  1.
        6    2    1    2  501    0  1.90963876183E+02  2.96877824295E+02  2.83733574570E+02  4.84923239684E+02  1.73326750625E+02 0.00000000000E+00  1.
        1    1    1    2  502    0 -3.91043786263E+00  7.58666494105E+00  1.98727486896E+02  1.98910691158E+02  3.81469726562E-06 0.00000000000E+00  1.
        5    1    4    4  501    0  1.42354199567E+02  1.97093037989E+02  2.42558279755E+02  3.43463921447E+02  4.74999999999E+00 0.00000000000E+00  1.
       24    2    4    4    0    0  4.86096766159E+01  9.97847863063E+01  4.11752948153E+01  1.41459318237E+02  7.74301593314E+01 0.00000000000E+00  1.
      -13    1    7    7    0    0  6.37497905656E+01  6.61589377037E+01  8.63849293081E+00  9.22804180712E+01  1.05660000005E-01 0.00000000000E+00  1.
       14    1    7    7    0    0 -1.51401139498E+01  3.36258486025E+01  3.25368018845E+01  4.91789001659E+01  9.53674316406E-07 0.00000000000E+00  1.
</event>
<event>
 9 114   1.0000000E+00   3.1250000E+01   7.8125000E-03   1.5660620E-01
        2   -1    0    0  502    0  0.00000000000E+00  0.00000000000E+00  2.44137138766E+02  2.44137138766E+02  0.00000000000E+00 0.00000000000E+00  1.
        5   -1    0    0  501    0  0.00000000000E+00  0.00000000000E+00 -3.70041441667E+02  3.70041441667E+02  0.00000000000E+00 0.00000000000E+00  1.
       25    1    1    2    0    0  7.18753195711E+01  8.86793380230E+00  4.05844124231E+01  1.50055977372E+02  1.25000000000E+02 0.00000000000E+00  1.
        6    2    1    2  501    0 -1.80067445580E+02 -7.36254425108E+01 -2.05564880321E+02  3.32114960345E+02  1.73776972356E+02 0.00000000000E+00  1.
        1    1    1    2  502    0  1.08192126009E+02  6.47575087085E+01  3.90761649977E+01  1.32007642716E+02  1.16800772800E-06 0.00000000000E+00  1.
        5    1    4    4  501    0 -7.28163885642E+01 -5.29164775089E+01 -4.80044146293E+00  9.02661995086E+01  4.75000000000E+00 0.00000000000E+00  1.
       24    2    4    4    0    0 -1.07251057016E+02 -2.07089650019E+01 -2.00764438858E+02  2.41848760837E+02  7.90747288694E+01 0.00000000000E+00  1.
       -3    1    7    7    0  703 -2.14526118264E+01 -2.29182947651E+01 -1.19852280591E+02  1.23895245881E+02  2.69739830470E-06 0.00000000000E+00  1.
        4    1    7    7  703    0 -8.57984451893E+01  2.20932976318E+00 -8.09121582674E+01  1.17953514956E+02  0.00000000000E+00 0.00000000000E+00  1.
</event>
<event>
 9 114   1.0000000E+00   3.1250000E+01   7.8125000E-03   1.5660620E-01
        5   -1    0    0  501    0  0.00000000000E+00  0.00000000000E+00  9.18678324060E+01  9.18678324060E+01  0.00000000000E+00 0.00000000000E+00  1.
        2   -1    0    0  502    0  0.00000000000E+00  0.00000000000E+00 -2.64582614410E+03  2.64582614410E+03  0.00000000000E+00 0.00000000000E+00  1.
       25    1    1    2    0    0 -2.49807352973E+02 -7.05201661719E+01 -1.12627587097E+03  1.16253995414E+03  1.25000000000E+02 0.00000000000E+00  1.
        6    2    1    2  501    0  3.84538411643E+01 -7.89965601033E+01 -9.51351073692E+01  2.17690227632E+02  1.74983405339E+02 0.00000000000E+00  1.
        1    1    1    2  502    0  2.11353511808E+02  1.49516726275E+02 -1.33254733336E+03  1.35746379474E+03  1.52587890625E-05 0.00000000000E+00  1.
        5    1    4    4  501    0  7.77494345976E+01 -2.39463655943E+01 -8.48183248263E+00  8.19323317603E+01  4.75000000000E+00 0.00000000000E+00  1.
       24    2    4    4    0    0 -3.92955934333E+01 -5.50501945091E+01 -8.66532748866E+01  1.35757895872E+02  7.96664839457E+01 0.00000000000E+00  1.
      -15    1    7    7    0    0 -4.56084177692E+01 -3.68188310041E+01 -1.35982827837E+01  6.01982092825E+01  1.77680000000E+00 0.00000000000E+00  1.
       16    1    7    7    0    0  6.31282433589E+00 -1.82313635049E+01 -7.30549921029E+01  7.55596865895E+01  1.34869915235E-06 0.00000000000E+00  1.
</event>
<event>
 9 114   1.0000000E+00   3.1250000E+01   7.8125000E-03   1.5660620E-01
        5   -1    0    0  501    0  0.00000000000E+00  0.00000000000E+00  3.63721524159E+02  3.63721524159E+02  0.00000000000E+00 0.00000000000E+00  1.
        2   -1    0    0  502    0  0.00000000000E+00  0.00000000000E+00 -3.72225231665E+03  3.72225231665E+03  0.00000000000E+00 0.00000000000E+00  1.
       25    1    1    2    0    0  2.34071952590E+02 -1.98282017943E+01 -3.22027556194E+03  3.23125092362E+03  1.25000000000E+02 0.00000000000E+00  1.
        6    2    1    2  501    0 -2.43550011887E+02 -4.38459288613E+01  2.91777891403E+02  4.19897993224E+02  1.73034427308E+02 0.00000000000E+00  1.
        1    1    1    2  502    0  9.47805929701E+00  6.36741306556E+01 -4.30033121952E+02  4.34824923962E+02  1.07895932188E-05 0.00000000000E+00  1.
        5    1    4    4  501    0 -1.04735038909E+02 -7.70435049118E+01  1.75125908712E+02  2.18166854555E+02  4.75000000000E+00 0.00000000000E+00  1.
       24    2    4    4    0    0 -1.38814972978E+02  3.31975760505E+01  1.16651982692E+02  2.01731138669E+02  8.19517630329E+01 0.00000000000E+00  1.
       -1    1    7    7    0  703 -1.45190257500E+02  1.58262879195E+01  1.04717782061E+02  1.79712259298E+02  3.30362473978E-06 0.00000000000E+00  1.
        2    1    7    7  703    0  6.37528452167E+00  1.73712881310E+01  1.19342006305E+01  2.20188793709E+01  1.61703347757E-06 0.00000000000E+00  1.
</event>
<event>
 9 114   1.0000000E+00   3.1250000E+01   7.8125000E-03   1.5660620E-01
        2   -1    0    0  502    0  0.00000000000E+00  0.00000000000E+00  6.38553473553E+02  6.38553473553E+02  0.00000000000E+00 0.00000000000E+00  1.
        5   -1    0    0  501    0  0.00000000000E+00  0.00000000000E+00 -4.21976255879E+02  4.21976255879E+02  0.00000000000E+00 0.00000000000E+00  1.
       25    1    1    2    0    0  3.83470247104E+02  1.37901128168E+02  3.77673236398E+02  5.69498222170E+02  1.25000000000E+02 0.00000000000E+00  1.
        6    2    1    2  501    0 -3.80202226969E+02 -1.09878600097E+02 -1.30151672613E+02  4.49156758410E+02  1.67854983812E+02 0.00000000000E+00  1.
        1    1    1    2  502    0 -3.26802013444E+00 -2.80225280709E+01 -3.09443461119E+01  4.18747488516E+01  5.84003863998E-07 0.00000000000E+00  1.
        5    1    4    4  501    0 -4.93322331762E+01 -3.15687175682E+01  2.84741549600E+01  6.52961955993E+01  4.75000000000E+00 0.00000000000E+00  1.
       24    2    4    4    0    0 -3.30869993793E+02 -7.83098825285E+01 -1.58625827572E+02  3.83860562811E+02  8.11134268446E+01 0.00000000000E+00  1.
       -3    1    7    7    0  703 -2.03584384805E+02 -7.56977384240E+01 -1.30790532317E+02  2.53540751522E+02  2.69739830470E-06 0.00000000000E+00  1.
        4    1    7    7  703    0 -1.27285608988E+02 -2.61214410454E+00 -2.78352952552E+01  1.30319811289E+02  2.02304872852E-06 0.00000000000E+00  1.
</event>
<event>
 9 114   1.0000000E+00   3.1250000E+01   7.8125000E-03   1.5660620E-01
        2   -1    0    0  502    0  0.00000000000E+00  0.00000000000E+00  6.79143826313E+02  6.79143826313E+02  0.00000000000E+00 0.00000000000E+00  1.
        5   -1    0    0  501    0  0.00000000000E+00  0.00000000000E+00 -5.75062187022E+02  5.75062187022E+02  0.00000000000E+00 0.00000000000E+00  1.
       25    1    1    2    0    0 -9.63332353302E+01  9.31391620023E+01  4.27411727943E+02  4.65038472506E+02  1.25000000000E+02 0.00000000000E+00  1.
        6    2    1    2  501    0  6.51173663852E+01 -1.07777245446E+02 -5.34708115379E+02  5.74996174526E+02  1.69857664022E+02 0.00000000000E+00  1.
        1    1    1    2  502    0  3.12158689450E+01  1.46380834434E+01  2.11378026727E+02  2.14171366303E+02  0.00000000000E+00 0.00000000000E+00  1.
        5    1    4    4  501    0  1.46169200989E+01 -7.50910866702E+01 -8.67549027597E+01  1.15763989666E+02  4.75000000000E+00 0.00000000000E+00  1.
       24    2    4    4    0    0  5.05004462863E+01 -3.26861587755E+01 -4.47953212619E+02  4.59232184860E+02  8.13230524849E+01 0.00000000000E+00  1.
      -11    1    7    7    0    0 -1.51857639271E+01 -1.94483299911E+01 -2.27133032330E+02  2.28469383816E+02  5.11019955316E-04 0.00000000000E+00  1.
       12    1    7    7    0    0  6.56862102135E+01 -1.32378287844E+01 -2.20820180289E+02  2.30762801045E+02  2.69739830470E-06 0.00000000000E+00  1.
</event>
<event>
 9 114   1.0000000E+00   3.1250000E+01   7.8125000E-03   1.5660620E-01
        2   -1    0    0  502    0  0.00000000000E+00  0.00000000000E+00  4.69101132844E+03  4.69101132844E+03  0.00000000000E+00 0.00000000000E+00  1.
        5   -1    0    0  501    0  0.00000000000E+00  0.00000000000E+00 -7.13193767900E+02  7.13193767900E+02  0.00000000000E+00 0.00000000000E+00  1.
       25    1    1    2    0    0  4.17669581734E+02 -2.52134893436E+02  7.33630946717E+02  8.89864736899E+02  1.25000000000E+02 0.00000000000E+00  1.
        6    2    1    2  501    0  1.41798770541E+02  4.39576044013E+02 -5.12606131409E+02  7.11495272832E+02  1.73569834668E+02 0.00000000000E+00  1.
        1    1    1    2  502    0 -5.59468352276E+02 -1.87441150577E+02  3.75679274523E+03  3.80284508661E+03  4.31583728752E-05 0.00000000000E+00  1.
        5    1    4    4  501    0 -1.11180297491E+01  9.28895012673E+01 -1.70189410402E+02  1.94265457414E+02  4.75000000000E+00 0.00000000000E+00  1.
       24    2    4    4    0    0  1.52916800290E+02  3.46686542746E+02 -3.42416721007E+02  5.17229815418E+02  8.18679693169E+01 0.00000000000E+00  1.
       -3    1    7    7    0  703  8.48011135153E+01  2.47044144787E+02 -1.90926526977E+02  3.23535124879E+02  2.69739830470E-06 0.00000000000E+00  1.
        4    1    7    7  703    0  6.81156867752E+01  9.96423979593E+01 -1.51490194030E+02  1.93694690539E+02  4.26496119976E-06 0.00000000000E+00  1.
</event>
<event>
 9 114   1.0000000E+00   3.1250000E+01   7.8125000E-03   1.5660620E-01
        2   -1    0    0  502    0  0.00000000000E+00  0.00000000000E+00  2.81348702204E+02  2.81348702204E+02  0.00000000000E+00 0.00000000000E+00  1.
        5   -1    0    0  501    0  0.00000000000E+00  0.00000000000E+00 -5.45205451539E+02  5.45205451539E+02  0.00000000000E+00 0.00000000000E+00  1.
       25    1    1    2    0    0 -6.91714969499E+01  1.24626780675E+02 -2.84273750240E+02  3.41691521006E+02  1.25000000000E+02 0.00000000000E+00  1.
        6    2    1    2  501    0  1.65346815299E+02 -9.37563394813E+01 -1.42247219079E+02  2.93388549733E+02  1.72373864770E+02 0.00000000000E+00  1.
        1    1    1    2  502    0 -9.61753183495E+01 -3.08704411935E+01  1.62664219985E+02  1.91474083005E+02  2.69739830470E-06 0.00000000000E+00  1.
        5    1    4    4  501    0  1.50215950749E+02 -4.28855502081E+01 -1.22609928221E+02  1.98644806815E+02  4.75000000000E+00 0.00000000000E+00  1.
       24    2    4    4    0    0  1.51308645502E+01 -5.08707892731E+01 -1.96372908584E+01  9.47437429180E+01  7.59866657154E+01 0.00000000000E+00  1.
       -3    1    7    7    0  703 -5.92470016602E+00 -4.20093694279E+01 -4.41544900702E+01  6.12332277864E+01  1.58148993986E-06 0.00000000000E+00  1.
        2    1    7    7  703    0  2.10555647162E+01 -8.86141984525E+00  2.45171992118E+01  3.35105151316E+01  1.16800772800E-06 0.00000000000E+00  1.
</event>
<event>
 9 114   1.0000000E+00   3.1250000E+01   7.8125000E-03   1.5660620E-01
        2   -1    0    0  502    0  0.00000000000E+00  0.00000000000E+00  2.44167816255E+03  2.44167816255E+03  0.00000000000E+00 0.00000000000E+00  1.
        5   -1    0    0  501    0  0.00000000000E+00  0.00000000000E+00 -3.03363713490E+02  3.03363713490E+02  0.00000000000E+00 0.00000000000E+00  1.
       25    1    1    2    0    0  2.98748014207E+01 -1.56262464530E+02  4.47799566914E+02  4.91385707677E+02  1.25000000000E+02 0.00000000000E+00  1.
        6    2    1    2  501    0 -1.11896783556E+02 -4.03096082985E+00 -2.38925312049E+02  3.15832375872E+02  1.73573172166E+02 0.00000000000E+00  1.
        1    1    1    2  502    0  8.20219821357E+01  1.60293425360E+02  1.92944019419E+03  1.93782379249E+03  0.00000000000E+00 0.00000000000E+00  1.
        5    1    4    4  501    0 -4.71071298087E+01 -1.00905387060E+01  7.70387566515E+00  4.90184949836E+01  4.75000000000E+00 0.00000000000E+00  1.
       24    2    4    4    0    0 -6.47896537476E+01  6.05957787620E+00 -2.46629187714E+02  2.66813880888E+02  7.82896741933E+01 0.00000000000E+00  1.
       -3    1    7    7    0  703 -1.51774000425E+01 -2.83677414604E+01 -3.88750117235E+01  5.04613591188E+01  2.56784668309E-06 0.00000000000E+00  1.
        2    1    7    7  703    0 -4.96122537051E+01  3.44273193366E+01 -2.07754175991E+02  2.16352521769E+02  4.67203091199E-06 0.00000000000E+00  1.
</event>
<event>
 9 114   1.0000000E+00   3.1250000E+01   7.8125000E-03   1.5660620E-01
        5   -1    0    0  501    0  0.00000000000E+00  0.00000000000E+00  1.70505223730E+02  1.70505223730E+02  0.00000000000E+00 0.00000000000E+00  1.
        2   -1    0    0  502    0  0.00000000000E+00  0.00000000000E+00 -2.69463373889E+03  2.69463373889E+03  0.00000000000E+00 0.00000000000E+00  1.
       25    1    1    2    0    0  9.27839761429E+01 -1.68268496273E+02 -1.06913459788E+03  1.09343355603E+03  1.25000000000E+02 0.00000000000E+00  1.
        6    2    1    2  501    0 -1.33840789206E+02  1.26020045623E+02  5.64697257031E+01  2.59094109020E+02  1.73627528501E+02 0.00000000000E+00  1.
        1    1    1    2  502    0  4.10568130635E+01  4.22484506497E+01 -1.51146364298E+03  1.51261129757E+03  2.15791864376E-05 0.00000000000E+00  1.
        5    1    4    4  501    0 -8.43061593388E+01  1.05497026684E+02  8.60172443244E+01  1.60183269922E+02  4.75000000000E+00 0.00000000000E+00  1.
       24    2    4    4    0    0 -4.95346298676E+01  2.05230189389E+01 -2.95475186212E+01  9.89108390980E+01  7.76879937436E+01 0.00000000000E+00  1.
       -1    1    7    7    0  703  6.93435935731E-01 -4.41458291495E+00 -4.13612625640E+01  4.16019643358E+01  9.53674316406E-07 0.00000000000E+00  1.
        2    1    7    7  703    0 -5.02280658034E+01  2.49376018538E+01  1.18137439427E+01  5.73088747622E+01  5.84003863998E-07 0.00000000000E+00  1.
</event>
<event>
 9 114   1.0000000E+00   3.1250000E+01   7.8125000E-03   1.5660620E-01
        2   -1    0    0  502    0  0.00000000000E+00  0.00000000000E+00  1.10670870344E+03  1.10670870344E+03  0.00000000000E+00 0.00000000000E+00  1.
        5   -1    0    0  501    0  0.00000000000E+00  0.00000000000E+00 -3.89236098288E+02  3.89236098288E+02  0.00000000000E+00 0.00000000000E+00  1.
       25    1    1    2    0    0 -3.52167491188E+01  3.53907747283E+02 -2.15399211480E+02  4.34180530783E+02  1.25000000000E+02 0.00000000000E+00  1.
        6    2    1    2  501    0  1.10608566046E+02 -1.72771895570E+02  7.42368111445E+02  7.88294374018E+02  1.67967926809E+02 0.00000000000E+00  1.
        1    1    1    2  502    0 -7.53918169272E+01 -1.81135851713E+02  1.90503705187E+02  2.73469896927E+02  6.03156597170E-06 0.00000000000E+00  1.
        5    1    4    4  501    0  7.10800963576E+01 -1.26431088873E+02  2.78503937705E+02  3.14044911038E+02  4.75000000000E+00 0.00000000000E+00  1.
       24    2    4    4    0    0  3.95284696884E+01 -4.63408066970E+01  4.63864173740E+02  4.74249462980E+02  7.76698859021E+01 0.00000000000E+00  1.
       -1    1    7    7    0  703 -5.77403865042E+00  1.51680724001E+01  3.43048160151E+01  3.79503668560E+01  2.73922092750E-06 0.00000000000E+00  1.
        2    1    7    7  703    0  4.53025083388E+01 -6.15088790971E+01  4.29559357725E+02  4.36299096124E+02  7.62939453125E-06 0.00000000000E+00  1.
</event>
<event>
 9 114   1.0000000E+00   3.1250000E+01   7.8125000E-03   1.5660620E-01
        2   -1    0    0  502    0  0.00000000000E+00  0.00000000000E+00  1.87894199637E+03  1.87894199637E+03  0.00000000000E+00 0.00000000000E+00  1.
        5   -1    0    0  501    0  0.00000000000E+00  0.00000000000E+00 -5.36332908605E+02  5.36332908605E+02  0.00000000000E+00 0.00000000000E+00  1.
       25    1    1    2    0    0  1.24402801326E+02 -6.80324156782E+02  2.85229776948E+02  7.58484041320E+02  1.25000000000E+02 0.00000000000E+00  1.
        6    2    1    2  501    0  5.41962176311E+01  5.87476217319E+02  3.64422041526E+01  6.16199240973E+02  1.74091741362E+02 0.00000000000E+00  1.
        1    1    1    2  502    0 -1.78599018957E+02  9.28479394627E+01  1.02093710667E+03  1.04059162269E+03  2.15791864376E-05 0.00000000000E+00  1.
        5    1    4    4  501    0  8.22254088751E+01  2.62552807426E+02  4.65951007880E+01  2.79085399958E+02  4.75000000000E+00 0.00000000000E+00  1.
       24    2    4    4    0    0 -2.80291912440E+01  3.24923409893E+02 -1.01528966355E+01  3.37113841015E+02  8.47455169052E+01 0.00000000000E+00  1.
       -1    1    7    7    0  703  2.42343581903E+01  7.66625508217E+01 -2.12708398471E+01  8.31678991149E+01  4.40913248274E-06 0.00000000000E+00  1.
        4    1    7    7  703    0 -5.22635494343E+01  2.48260859071E+02  1.11179432116E+01  2.53945941900E+02  2.55119020451E-06 0.00000000000E+00  1.
</event>
<event>
 9 114   1.0000000E+00   3.1250000E+01   7.8125000E-03   1.5660620E-01
        5   -1    0    0  501    0  0.00000000000E+00  0.00000000000E+00  1.52923662804E+02  1.52923662804E+02  0.00000000000E+00 0.00000000000E+00  1.
        2   -1    0    0  502    0  0.00000000000E+00  0.00000000000E+00 -1.55047302728E+03  1.55047302728E+03  0.00000000000E+00 0.00000000000E+00  1.
       25    1    1    2    0    0  1.56473695494E+02  5.41624998478E+01 -6.88678364839E+02  7.19249945408E+02  1.25000000000E+02 0.00000000000E+00  1.
        6    2    1    2  501    0 -2.18351218524E+02  6.28201284791E+01 -2.39483285645E+01  2.86556013276E+02  1.72965901642E+02 0.00000000000E+00  1.
        1    1    1    2  502    0  6.18775230293E+01 -1.16982628327E+02 -6.84922671076E+02  6.97590731403E+02  7.62939453125E-06 0.00000000000E+00  1.
        5    1    4    4  501    0 -1.54324650621E+02 -1.33892169149E+01 -3.45033642501E+01  1.58771576686E+02  4.75000000000E+00 0.00000000000E+00  1.
       24    2    4    4    0    0 -6.40265679027E+01  7.62093453940E+01  1.05550356856E+01  1.27784436590E+02  7.94366900963E+01 0.00000000000E+00  1.
       -3    1    7    7    0  703  5.46656505726E+00  1.24761547765E+01 -2.38044964787E+01  2.74261157318E+01  8.25906184945E-07 0.00000000000E+00  1.
        4    1    7    7  703    0 -6.94931329599E+01  6.37331906175E+01  3.43595321642E+01  1.00358320858E+02  1.58148993986E-06 0.00000000000E+00  1.
</event>
<event>
 9 114   1.0000000E+00   3.1250000E+01   7.8125000E-03   1.5660620E-01
        5   -1    0    0  501    0  0.00000000000E+00  0.00000000000E+00  9.84584097458E+02  9.84584097458E+02  0.00000000000E+00 0.00000000000E+00  1.
        2   -1    0    0  502    0  0.00000000000E+00  0.00000000000E+00 -2.05627460771E+03  2.05627460771E+03  0.00000000000E+00 0.00000000000E+00  1.
       25    1    1    2    0    0 -2.44486557618E+02  4.70171966374E+02 -2.40796927959E+02  5.95351589680E+02  1.25000000000E+02 0.00000000000E+00  1.
        6    2    1    2  501    0  3.17740102213E+02 -8.36915676452E+01  7.38909416188E+02  8.27170118927E+02  1.73954675891E+02 0.00000000000E+00  1.
        1    1    1    2  502    0 -7.32535445953E+01 -3.86480398729E+02 -1.56980299848E+03  1.61833699656E+03  3.05175781250E-05 0.00000000000E+00  1.
        5    1    4    4  501    0  5.13361816741E+01 -3.24026622487E+00  2.78416965856E+02  2.83168628649E+02  4.75000000001E+00 0.00000000000E+00  1.
       24    2    4    4    0    0  2.66403920539E+02 -8.04513014204E+01  4.60492450332E+02  5.44001490278E+02  8.02549925756E+01 0.00000000000E+00  1.
       -3    1    7    7    0  703  1.70235085683E+02 -1.03461484219E+01  2.77075424590E+02  3.25357984529E+02  3.81469726562E-06 0.00000000000E+00  1.
        4    1    7    7  703    0  9.61688348562E+01 -7.01051529984E+01  1.83417025742E+02  2.18643505749E+02  2.69739830470E-06 0.00000000000E+00  1.
</event>
<event>
 9 114   1.0000000E+00   3.1250000E+01   7.8125000E-03   1.5660620E-01
        5   -1    0    0  501    0  0.00000000000E+00  0.00000000000E+00  5.34496712613E+01  5.34496712613E+01  0.00000000000E+00 0.00000000000E+00  1.
        2   -1    0    0  502    0  0.00000000000E+00  0.00000000000E+00 -1.62339120957E+03  1.62339120957E+03  0.00000000000E+00 0.00000000000E+00  1.
       25    1    1    2    0    0 -2.01532552385E+02  2.05086105270E+01 -6.08821405391E+02  6.53700601529E+02  1.25000000000E+02 0.00000000000E+00  1.
        6    2    1    2  501    0  4.07888544539E+01 -5.03378506295E+01 -4.48202062400E+02  4.84797203697E+02  1.73047999464E+02 0.00000000000E+00  1.
        1    1    1    2  502    0  1.60743697931E+02  2.98292401025E+01 -5.12918070517E+02  5.38343075605E+02  0.00000000000E+00 0.00000000000E+00  1.
        5    1    4    4  501    0 -1.47604254486E+01 -7.72251165718E+01 -1.61696571049E+02  1.79860869501E+02  4.75000000000E+00 0.00000000000E+00  1.
       24    2    4    4    0    0  5.55492799025E+01  2.68872659423E+01 -2.86505491352E+02  3.04936334195E+02  8.42147479376E+01 0.00000000000E+00  1.
       -3    1    7    7    0  703  6.92602999225E+00  1.34204586344E+01 -2.24454313113E+02  2.24961812929E+02  2.69739830470E-06 0.00000000000E+00  1.
        4    1    7    7  703    0  4.86232499103E+01  1.34668073079E+01 -6.20511782389E+01  7.99745212661E+01  1.16800772800E-06 0.00000000000E+00  1.
</event>
<event>
 9 114   1.0000000E+00   3.1250000E+01   7.8125000E-03   1.5660620E-01
        2   -1    0    0  502    0  0.00000000000E+00  0.00000000000E+00  1.34834787800E+03  1.34834787800E+03  0.00000000000E+00 0.00000000000E+00  1.
        5   -1    0    0  501    0  0.00000000000E+00  0.00000000000E+00 -3.36433862933E+02  3.36433862933E+02  0.00000000000E+00 0.00000000000E+00  1.
       25    1    1    2    0    0 -6.39393548889E+01 -1.63191768215E+02  1.01410822398E+01  2.15517135898E+02  1.25000000000E+02 0.00000000000E+00  1.
        6    2    1    2  501    0 -4.20361399681E+01  1.58728259534E+02 -1.69677424352E+02  2.93021999212E+02  1.73521659308E+02 0.00000000000E+00  1.
        1    1    1    2  502    0  1.05975494857E+02  4.46350868017E+00  1.17145035718E+03  1.17624260582E+03  0.00000000000E+00 0.00000000000E+00  1.
        5    1    4    4  501    0  4.65203718158E+01  8.37261326930E+01 -5.28284702531E+01  1.09487990478E+02  4.75000000000E+00 0.00000000000E+00  1.
       24    2    4    4    0    0 -8.85565117839E+01  7.50021268414E+01 -1.16848954099E+02  1.83534008734E+02  8.10153039726E+01 0.00000000000E+00  1.
       -3    1    7    7    0  703  1.54393418842E+01  6.49027127169E+00 -1.04892574866E+01  1.97616148535E+01  2.61446382993E-06 0.00000000000E+00  1.
        4    1    7    7  703    0 -1.03995853668E+02  6.85118555697E+01 -1.06359696612E+02  1.63772393880E+02  1.34869915235E-06 0.00000000000E+00  1.
</event>
<event>
 9 114   1.0000000E+00   3.1250000E+01   7.8125000E-03   1.5660620E-01
        5   -1    0    0  501    0  0.00000000000E+00  0.00000000000E+00  2.92873489466E+02  2.92873489466E+02  0.00000000000E+00 0.00000000000E+00  1.
        2   -1    0    0  502    0  0.00000000000E+00  0.00000000000E+00 -2.15748861164E+03  2.15748861164E+03  0.00000000000E+00 0.00000000000E+00  1.
       25    1    1    2    0    0 -2.20137251378E+02 -5.11027477514E+01 -5.78794062115E+02  6.33797654312E+02  1.25000000000E+02 0.00000000000E+00  1.
        6    2    1    2  501    0  8.10951909316E+01  1.07878534334E+02  2.15674219679E+02  3.07576620603E+02  1.72840389797E+02 0.00000000000E+00  1.
        1    1    1    2  502    0  1.39042060447E+02 -5.67757865826E+01 -1.50149527974E+03  1.50898782619E+03  3.05175781250E-05 0.00000000000E+00  1.
        5    1    4    4  501    0 -4.09006299019E+01  2.12986690420E+01  3.15317370471E+01  5.60652099839E+01  4.75000000000E+00 0.00000000000E+00  1.
       24    2    4    4    0    0  1.21995820834E+02  8.65798652919E+01  1.84142482632E+02  2.51511410619E+02  8.34894148208E+01 0.00000000000E+00  1.
       -1    1    7    7    0  703  5.43949211381E+01  6.01455500732E+00  2.36227739020E+01  5.96071955755E+01  2.13248059988E-06 0.00000000000E+00  1.
        2    1    7    7  703    0  6.76008996954E+01  8.05653102846E+01  1.60519708730E+02  1.91904215044E+02  1.90734863281E-06 0.00000000000E+00  1.
</event>
<event>
 9 114   1.0000000E+00   3.1250000E+01   7.8125000E-03   1.5660620E-01
        2   -1    0    0  502    0  0.00000000000E+00  0.00000000000E+00  1.06702221534E+03  1.06702221534E+03  0.00000000000E+00 0.00000000000E+00  1.
        5   -1    0    0  501    0  0.00000000000E+00  0.00000000000E+00 -2.78723645412E+02  2.78723645412E+02  0.00000000000E+00 0.00000000000E+00  1.
       25    1    1    2    0    0 -3.13649152612E+02  1.77499255734E+02  4.63723852507E+01  3.84261857116E+02  1.25000000000E+02 0.00000000000E+00  1.
        6    2    1    2  501    0  3.78712665173E+02 -2.45000601342E+02  4.70386685077E+02  6.74215153657E+02  1.72782703132E+02 0.00000000000E+00  1.
        1    1    1    2  502    0 -6.50635125613E+01  6.75013456083E+01  2.71539499603E+02  2.87268849983E+02  0.00000000000E+00 0.00000000000E+00  1.
        5    1    4    4  501    0  9.22045738564E+01 -1.15139348548E+01  1.58390407794E+02  1.83696319824E+02  4.75000000000E+00 0.00000000000E+00  1.
       24    2    4    4    0    0  2.86508091317E+02 -2.33486666488E+02  3.11996277283E+02  4.90518833832E+02  8.16341808807E+01 0.00000000000E+00  1.
       -3    1    7    7    0  703  3.38931812690E+01 -4.74051227847E+00  1.13211841703E+01  3.60470443200E+01  2.26811141854E-06 0.00000000000E+00  1.
        4    1    7    7  703    0  2.52614910048E+02 -2.28746154209E+02  3.00675093113E+02  4.54471789512E+02  6.60724947956E-06 0.00000000000E+00  1.
</event>
<event>
 9 114   1.0000000E+00   3.1250000E+01   7.8125000E-03   1.5660620E-01
        2   -1    0    0  502    0  0.00000000000E+00  0.00000000000E+00  1.77801369378E+03  1.77801369378E+03  0.00000000000E+00 0.00000000000E+00  1.
        5   -1    0    0  501    0  0.00000000000E+00  0.00000000000E+00 -1.20634292916E+02  1.20634292916E+02  0.00000000000E+00 0.00000000000E+00  1.
       25    1    1    2    0    0  3.49019477973E+02 -7.40706801747E+01  3.18909562565E+02  4.94600213063E+02  1.25000000000E+02 0.00000000000E+00  1.
        6    2    1    2  501    0 -2.89164798022E+02  3.17202184325E+01  1.20534325637E+03  1.25206477742E+03  1.73756693422E+02 0.00000000000E+00  1.
        1    1    1    2  502    0 -5.98546799510E+01  4.23504617421E+01  1.33126581928E+02  1.51982996212E+02  6.03156597170E-06 0.00000000000E+00  1.
        5    1    4    4  501    0 -1.41051351845E+02 -6.14825134220E+00  7.85767145983E+02  7.98364487598E+02  4.75000000002E+00 0.00000000000E+00  1.
       24    2    4    4    0    0 -1.48113446177E+02  3.78684697747E+01  4.19576110386E+02  4.53700289822E+02  8.01762223857E+01 0.00000000000E+00  1.
       -1    1    7    7    0  703 -1.25463984426E+01  3.33753831251E+01  6.63101218827E+01  7.52885155700E+01  4.57366134959E-06 0.00000000000E+00  1.
        2    1    7    7  703    0 -1.35567047735E+02  4.49308664966E+00  3.53265988503E+02  3.78411774252E+02  5.39479660939E-06 0.00000000000E+00  1.
</event>
<event>
 9 114   1.0000000E+00   3.1250000E+01   7.8125000E-03   1.5660620E-01
        2   -1    0    0  502    0  0.00000000000E+00  0.00000000000E+00  3.37577171795E+03  3.37577171795E+03  0.00000000000E+00 0.00000000000E+00  1.
        5   -1    0    0  501    0  0.00000000000E+00  0.00000000000E+00 -1.07001578786E+02  1.07001578786E+02  0.00000000000E+00 0.00000000000E+00  1.
       25    1    1    2    0    0 -1.38773836907E+02 -1.53360646790E+02  8.38325296286E+02  8.72463161507E+02  1.25000000000E+02 0.00000000000E+00  1.
        6    2    1    2  501    0  8.08166178164E+01  5.72432695372E+01  2.21778077178E+01  1.99429030303E+02  1.71674008952E+02 0.00000000000E+00  1.
        1    1    1    2  502    0  5.79572190903E+01  9.61173772525E+01  2.40826703516E+03  2.41088110492E+03  6.82393791962E-05 0.00000000000E+00  1.
        5    1    4    4  501    0  7.28269126360E+01  2.46908002913E+01  6.69245389115E+01  1.02053178449E+02  4.75000000000E+00 0.00000000000E+00  1.
       24    2    4    4    0    0  7.98970518038E+00  3.25524692458E+01 -4.47467311936E+01  9.73758518532E+01  7.97263314643E+01 0.00000000000E+00  1.
      -15    1    7    7    0    0 -4.38201713924E+00  3.49208792416E+01  1.35342175054E+01  3.77491979112E+01  1.77680000000E+00 0.00000000000E+00  1.
       16    1    7    7    0    0  1.23717223196E+01 -2.36840999579E+00 -5.82809486990E+01  5.96266539420E+01  1.16800772800E-06 0.00000000000E+00  1.
</event>
<event>
 9 114   1.0000000E+00   3.1250000E+01   7.8125000E-03   1.5660620E-01
        5   -1    0    0  501    0  0.00000000000E+00  0.00000000000E+00  6.06271398560E+02  6.06271398560E+02  0.00000000000E+00 0.00000000000E+00  1.
        2   -1    0    0  502    0  0.00000000000E+00  0.00000000000E+00 -3.99791537432E+02  3.99791537432E+02  0.00000000000E+00 0.00000000000E+00  1.
       25    1    1    2    0    0 -7.90666333598E+00  1.42011430983E+02  1.83835477991E+02  2.63913328241E+02  1.25000000000E+02 0.00000000000E+00  1.
        6    2    1    2  501    0 -8.05687625031E+01 -8.28732845161E+01  3.45086484715E+02  4.02599714193E+02  1.72170093681E+02 0.00000000000E+00  1.
        1    1    1    2  502    0  8.84754258391E+01 -5.91381464672E+01 -3.22442101578E+02  3.39549893558E+02  6.60724947956E-06 0.00000000000E+00  1.
        5    1    4    4  501    0 -1.31491147440E+01 -9.45199578976E+01  1.13844819053E+02  1.48627477220E+02  4.75000000000E+00 0.00000000000E+00  1.
       24    2    4    4    0    0 -6.74196477591E+01  1.16466733815E+01  2.31241665662E+02  2.53972236973E+02  7.96751862911E+01 0.00000000000E+00  1.
       -3    1    7    7    0  703 -1.03289862314E+01  6.57504258693E+00  1.68685195383E+02  1.69128987116E+02  0.00000000000E+00 0.00000000000E+00  1.
        4    1    7    7  703    0 -5.70906615278E+01  5.07163079455E+00  6.25564702785E+01  8.48432498570E+01  1.50789149292E-06 0.00000000000E+00  1.
</event>
<event>
 9 114   1.0000000E+00   3.1250000E+01   7.8125000E-03   1.5660620E-01
        2   -1    0    0  502    0  0.00000000000E+00  0.00000000000E+00  1.35504140437E+03  1.35504140437E+03  0.00000000000E+00 0.00000000000E+00  1.
        5   -1    0    0  501    0  0.00000000000E+00  0.00000000000E+00 -8.20699177045E+02  8.20699177045E+02  0.00000000000E+00 0.00000000000E+00  1.
       25    1    1    2    0    0 -3.04615753992E+01 -1.65232571535E+02  3.26676560260E+02  3.88036448411E+02  1.25000000000E+02 0.00000000000E+00  1.
        6    2    1    2  501    0  1.24431915527E+02 -1.19397864096E+02 -7.47628604031E+02  7.86488844417E+02  1.72849707188E+02 0.00000000000E+00  1.
        1    1    1    2  502    0 -9.39703401280E+01  2.84630435631E+02  9.55294271098E+02  1.00121528859E+03  3.73762472959E-05 0.00000000000E+00  1.
        5    1    4    4  501    0  1.08136200053E+02 -1.16835691084E+02 -5.35183080031E+02  5.58379358613E+02  4.75000000000E+00 0.00000000000E+00  1.
       24    2    4    4    0    0  1.62957154743E+01 -2.56217301182E+00 -2.12445524000E+02  2.28109485805E+02  8.14169624413E+01 0.00000000000E+00  1.
       -1    1    7    7    0  703  2.39261045196E+01  2.73148407258E+01 -4.48793583725E+01  5.77296787562E+01  1.96604996949E-06 0.00000000000E+00  1.
        2    1    7    7  703    0 -7.63038904539E+00 -2.98770137376E+01 -1.67566165627E+02  1.70379807049E+02  0.00000000000E+00 0.00000000000E+00  1.
</event>
<event>
 9 114   1.0000000E+00   3.1250000E+01   7.8125000E-03   1.5660620E-01
        5   -1    0    0  501    0  0.00000000000E+00  0.00000000000E+00  2.71891492052E+02  2.71891492052E+02  0.00000000000E+00 0.00000000000E+00  1.
        2   -1    0    0  502    0  0.00000000000E+00  0.00000000000E+00 -2.37043147240E+03  2.37043147240E+03  0.00000000000E+00 0.00000000000E+00  1.
       25    1    1    2    0    0 -2.09979643591E+02  3.88343783221E+01 -9.85931004826E+01  2.66355324942E+02  1.25000000000E+02 0.00000000000E+00  1.
        6    2    1    2  501    0  1.40391115177E+01  8.23580955727E+01  1.31032544125E+02  2.32569959818E+02  1.73029783653E+02 0.00000000000E+00  1.
        1    1    1    2  502    0  1.95940532074E+02 -1.21192473895E+02 -2.13097942399E+03  2.14339767969E+03  6.82393791962E-05 0.00000000000E+00  1.
        5    1    4    4  501    0  3.99404843909E+01  8.83444914057E+01  3.24060722775E+01  1.02336247125E+02  4.75000000000E+00 0.00000000000E+00  1.
       24    2    4    4    0    0 -2.59013728732E+01 -5.98639583297E+00  9.86264718480E+01  1.30233712693E+02  8.07893614335E+01 0.00000000000E+00  1.
      -13    1    7    7    0    0 -8.17147109860E+00 -1.72296356774E+01 -8.63753639383E+00  2.09344568710E+01  1.05659999998E-01 0.00000000000E+00  1.
       14    1    7    7    0    0 -1.77299017746E+01  1.12432398445E+01  1.07264008242E+02  1.09299255822E+02  2.33601545599E-06 0.00000000000E+00  1.
</event>
<event>
 9 114   1.0000000E+00   3.1250000E+01   7.8125000E-03   1.5660620E-01
        5   -1    0    0  501    0  0.00000000000E+00  0.00000000000E+00  3.18308063863E+02  3.18308063863E+02  0.00000000000E+00 0.00000000000E+00  1.
        2   -1    0    0  502    0  0.00000000000E+00  0.00000000000E+00 -7.11284951765E+02  7.11284951765E+02  0.00000000000E+00 0.00000000000E+00  1.
       25    1    1    2    0    0 -7.72351528465E+01  1.04487271887E+01 -5.88199215811E+02  6.06364380728E+02  1.25000000000E+02 0.00000000000E+00  1.
        6    2    1    2  501    0  1.92642175969E+02 -4.41061425332E+00  1.58204118467E+02  3.01879602666E+02  1.70212484636E+02 0.00000000000E+00  1.
        1    1    1    2  502    0 -1.15407023122E+02 -6.03811293534E+00  3.70182094422E+01  1.21349032234E+02  5.17977737961E-06 0.00000000000E+00  1.
        5    1    4    4  501    0  6.93274971427E+01 -6.64497301990E+01  4.60805860043E+01  1.06620126665E+02  4.75000000000E+00 0.00000000000E+00  1.
       24    2    4    4    0    0  1.23314678826E+02  6.20391159457E+01  1.12123532463E+02  1.95259476001E+02  8.06177059648E+01 0.00000000000E+00  1.
       -3    1    7    7    0  703 -3.60173292580E+00 -4.23147499360E+00  2.93637477261E+01  2.98849049055E+01  3.12683035102E-06 0.00000000000E+00  1.
        4    1    7    7  703    0  1.26916411752E+02  6.62705909393E+01  8.27597847366E+01  1.65374571096E+02  0.00000000000E+00 0.00000000000E+00  1.
</event>
<event>
 9 114   1.0000000E+00   3.1250000E+01   7.8125000E-03   1.5660620E-01
        2   -1    0    0  502    0  0.00000000000E+00  0.00000000000E+00  2.32967988379E+03  2.32967988379E+03  0.00000000000E+00 0.00000000000E+00  1.
        5   -1    0    0  501    0  0.00000000000E+00  0.00000000000E+00 -1.62736672968E+02  1.62736672968E+02  0.00000000000E+00 0.00000000000E+00  1.
       25    1    1    2    0    0 -1.11590648626E+02 -5.37051034524E+01  2.65600971507E+02  3.18599414725E+02  1.25000000000E+02 0.00000000000E+00  1.
        6    2    1    2  501    0 -6.67868939094E+01  4.33940584340E+01 -6.85817405038E+01  1.95806689180E+02  1.65206751955E+02 0.00000000000E+00  1.
        1    1    1    2  502    0  1.78377542536E+02  1.03110450184E+01  1.96992397982E+03  1.97801045286E+03  2.15791864376E-05 0.00000000000E+00  1.
        5    1    4    4  501    0 -1.15494157349E+01 -4.09122352337E+01 -4.97541710613E+01  6.56143279599E+01  4.75000000000E+00 0.00000000000E+00  1.
       24    2    4    4    0    0 -5.52374781745E+01  8.43062936677E+01 -1.88275694425E+01  1.30192361220E+02  8.02299408067E+01 0.00000000000E+00  1.
      -11    1    7    7    0    0  9.87163088495E+00  4.06667472991E+01  1.54969336415E+01  4.46249748994E+01  5.10996762245E-04 0.00000000000E+00  1.
       12    1    7    7    0    0 -6.51091090595E+01  4.36395463686E+01 -3.43245030840E+01  8.55673863206E+01  1.78416127528E-06 0.00000000000E+00  1.
</event>
<event>
 9 114   1.0000000E+00   3.1250000E+01   7.8125000E-03   1.5660620E-01
        2   -1    0    0  502    0  0.00000000000E+00  0.00000000000E+00  1.64111596861E+03  1.64111596861E+03  0.00000000000E+00 0.00000000000E+00  1.
        5   -1    0    0  501    0  0.00000000000E+00  0.00000000000E+00 -1.21972580765E+02  1.21972580765E+02  0.00000000000E+00 0.00000000000E+00  1.
       25    1    1    2    0    0 -1.45192945541E+02 -6.28723851658E+01  8.51768557639E+02  8.75310575758E+02  1.25000000000E+02 0.00000000000E+00  1.
        6    2    1    2  501    0 -5.60197178410E+01 -3.69459709048E+01 -3.06275368274E-01  1.83329040866E+02  1.70605480180E+02 0.00000000000E+00  1.
        1    1    1    2  502    0  2.01212663382E+02  9.98183560706E+01  6.67681105578E+02  7.04448932755E+02  1.52587890625E-05 0.00000000000E+00  1.
        5    1    4    4  501    0 -8.17000393132E+01 -3.90448011838E+01 -2.72327870430E+01  9.46761855664E+01  4.75000000000E+00 0.00000000000E+00  1.
       24    2    4    4    0    0  2.56803214722E+01  2.09883027901E+00  2.69265116747E+01  8.86528553000E+01  8.04388446113E+01 0.00000000000E+00  1.
       -3    1    7    7    0  703  3.22848400927E+01  1.12393992497E+01 -2.05290791122E+01  3.98757831835E+01  1.03924249257E-06 0.00000000000E+00  1.
        4    1    7    7  703    0 -6.60451862046E+00 -9.14056897070E+00  4.74555907869E+01  4.87770721164E+01  1.16800772800E-06 0.00000000000E+00  1.
</event>
<event>
 9 114   1.0000000E+00   3.1250000E+01   7.8125000E-03   1.5660620E-01
        2   -1    0    0  502    0  0.00000000000E+00  0.00000000000E+00  4.88216319014E+03  4.88216319014E+03  0.00000000000E+00 0.00000000000E+00  1.
        5   -1    0    0  501    0  0.00000000000E+00  0.00000000000E+00 -6.26119455635E+02  6.26119455635E+02  0.00000000000E+00 0.00000000000E+00  1.
       25    1    1    2    0    0  4.14026089300E+02  4.44904178436E+01  1.17890959989E+03  1.25652291846E+03  1.25000000000E+02 0.00000000000E+00  1.
        6    2    1    2  501    0 -2.95380773697E+02  4.45599853876E+02 -4.30506941368E+02  7.08059527909E+02  1.73790210462E+02 0.00000000000E+00  1.
        1    1    1    2  502    0 -1.18645315603E+02 -4.90090271720E+02  3.50764107598E+03  3.54370019941E+03  4.31583728752E-05 0.00000000000E+00  1.
        5    1    4    4  501    0 -1.28322382954E+02  1.92647480294E+02 -2.68996367125E+02  3.54910261415E+02  4.75000000000E+00 0.00000000000E+00  1.
       24    2    4    4    0    0 -1.67058390742E+02  2.52952373582E+02 -1.61510574243E+02  3.53149266494E+02  8.20690539429E+01 0.00000000000E+00  1.
       -3    1    7    7    0  703 -1.74490013738E+01  9.32110748601E+01 -4.11266365118E+01  1.03364270211E+02  1.34869915235E-06 0.00000000000E+00  1.
        4    1    7    7  703    0 -1.49609389368E+02  1.59741298722E+02 -1.20383937731E+02  2.49784996283E+02  0.00000000000E+00 0.00000000000E+00  1.
</event>
<event>
 9 114   1.0000000E+00   3.1250000E+01   7.8125000E-03   1.5660620E-01
        5   -1    0    0  501    0  0.00000000000E+00  0.00000000000E+00  1.91976274550E+02  1.91976274550E+02  0.00000000000E+00 0.00000000000E+00  1.
        2   -1    0    0  502    0  0.00000000000E+00  0.00000000000E+00 -3.48858009811E+03  3.48858009811E+03  0.00000000000E+00 0.00000000000E+00  1.
       25    1    1    2    0    0 -1.07020542351E+02 -2.09614343142E+01  1.19008260566E+02  2.04158625330E+02  1.25000000000E+02 0.00000000000E+00  1.
        6    2    1    2  501    0  6.57868626533E+01  1.75883832828E+01 -2.42428423713E+02  3.02944401756E+02  1.68423595162E+02 0.00000000000E+00  1.
        1    1    1    2  502    0  4.12336796977E+01  3.37305103145E+00 -3.17318366042E+03  3.17345334558E+03  4.31583728752E-05 0.00000000000E+00  1.
        5    1    4    4  501    0 -1.09855402999E+01  2.82932166433E+01  5.03056259833E+00  3.11296846075E+01  4.75000000000E+00 0.00000000000E+00  1.
       24    2    4    4    0    0  7.67724029532E+01 -1.07048333606E+01 -2.47458986311E+02  2.71814717149E+02  8.14781887389E+01 0.00000000000E+00  1.
       -3    1    7    7    0  703  4.99608998649E+00 -1.81185565909E+01 -5.88568134256E+00  1.96947773016E+01  4.64304497103E-06 0.00000000000E+00  1.
        4    1    7    7  703    0  7.17763129667E+01  7.41372323039E+00 -2.41573304968E+02  2.52119939847E+02  4.67203091199E-06 0.00000000000E+00  1.
</event>
<event>
 9 114   1.0000000E+00   3.1250000E+01   7.8125000E-03   1.5660620E-01
        2   -1    0    0  502    0  0.00000000000E+00  0.00000000000E+00  1.44014999401E+03  1.44014999401E+03  0.00000000000E+00 0.00000000000E+00  1.
        5   -1    0    0  501    0  0.00000000000E+00  0.00000000000E+00 -3.77929140286E+02  3.77929140286E+02  0.00000000000E+00 0.00000000000E+00  1.
       25    1    1    2    0    0  5.28253027779E+02  1.98439858531E+02  7.84603372024E+01  5.83275803823E+02  1.25000000000E+02 0.00000000000E+00  1.
        6    2    1    2  501    0 -4.11507007377E+02 -7.97088676275E+01  3.29417412767E+02  5.59605893488E+02  1.70151119576E+02 0.00000000000E+00  1.
        1    1    1    2  502    0 -1.16746020402E+02 -1.18730990903E+02  6.54343103752E+02  6.75197436983E+02  0.00000000000E+00 0.00000000000E+00  1.
        5    1    4    4  501    0 -6.04013933121E+01  3.27727938862E+01  2.04835707301E+01  7.18646192712E+01  4.75000000000E+00 0.00000000000E+00  1.
       24    2    4    4    0    0 -3.51105614065E+02 -1.12481661514E+02  3.08933842037E+02  4.87741274216E+02  8.07722440783E+01 0.00000000000E+00  1.
      -11    1    7    7    0    0 -3.65976364638E+01 -2.44718145433E+01  7.14886983030E+01  8.39576719966E+01  5.11023514830E-04 0.00000000000E+00  1.
       12    1    7    7    0    0 -3.14507977601E+02 -8.80098469703E+01  2.37445143734E+02  4.03783602220E+02  6.60724947956E-06 0.00000000000E+00  1.
</event>
<event>
 9 114   1.0000000E+00   3.1250000E+01   7.8125000E-03   1.5660620E-01
        2   -1    0    0  502    0  0.00000000000E+00  0.00000000000E+00  1.16907463578E+03  1.16907463578E+03  0.00000000000E+00 0.00000000000E+00  1.
        5   -1    0    0  501    0  0.00000000000E+00  0.00000000000E+00 -5.71448233463E+02  5.71448233463E+02  0.00000000000E+00 0.00000000000E+00  1.
       25    1    1    2    0    0 -3.17283895782E+02 -2.06300602454E+02  2.40069278313E+02  4.65281922586E+02  1.25000000000E+02 0.00000000000E+00  1.
        6    2    1    2  501    0  2.51429783878E+02  2.73908159795E+02 -3.63185010284E+02  5.48345651583E+02  1.74748349610E+02 0.00000000000E+00  1.
        1    1    1    2  502    0  6.58541119042E+01 -6.76075573408E+01  7.20742134289E+02  7.26895295076E+02  1.70598447990E-05 0.00000000000E+00  1.
        5    1    4    4  501    0  6.56735363211E+00  8.47837392467E+01 -1.15704744651E+02  1.43671719587E+02  4.75000000000E+00 0.00000000000E+00  1.
       24    2    4    4    0    0  2.44862430246E+02  1.89124420548E+02 -2.47480265633E+02  4.04673931995E+02  8.23944971782E+01 0.00000000000E+00  1.
      -15    1    7    7    0    0  1.17855217875E+02  5.97818350365E+01 -6.43433983257E+01  1.46993027410E+02  1.77680000000E+00 0.00000000000E+00  1.
       16    1    7    7    0    0  1.27007212371E+02  1.29342585512E+02 -1.83136867307E+02  2.57680904586E+02  2.69739830470E-06 0.00000000000E+00  1.
</event>
<event>
 9 114   1.0000000E+00   3.1250000E+01   7.8125000E-03   1.5660620E-01
        2   -1    0    0  502    0  0.00000000000E+00  0.00000000000E+00  1.18630628633E+03  1.18630628633E+03  0.00000000000E+00 0.00000000000E+00  1.
        5   -1    0    0  501    0  0.00000000000E+00  0.00000000000E+00 -5.87871910474E+01  5.87871910474E+01  0.00000000000E+00 0.00000000000E+00  1.
       25    1    1    2    0    0  1.15391772076E+02  5.63729320516E+01  4.24630085212E+02  4.60900073550E+02  1.25000000000E+02 0.00000000000E+00  1.
        6    2    1    2  501    0 -1.36468033692E+02 -1.10347531312E+02  3.42087954185E+02  4.18769173518E+02  1.65961894435E+02 0.00000000000E+00  1.
        1    1    1    2  502    0  2.10762616160E+01  5.39745992606E+01  3.60801055889E+02  3.65424230313E+02  5.39479660939E-06 0.00000000000E+00  1.
        5    1    4    4  501    0 -6.98449164136E+01 -1.91799085841E+00  1.96275008923E+02  2.08394895968E+02  4.75000000000E+00 0.00000000000E+00  1.
       24    2    4    4    0    0 -6.66231172781E+01 -1.08429540454E+02  1.45812945262E+02  2.10374277551E+02  8.24640324633E+01 0.00000000000E+00  1.
       -1    1    7    7    0  703  1.36459723567E+01 -1.79478459762E+01  5.40072075936E+01  5.85244923840E+01  1.78416127528E-06 0.00000000000E+00  1.
        4    1    7    7  703    0 -8.02690896348E+01 -9.04816944775E+01  9.18057376686E+01  1.51849785167E+02  1.34869915235E-06 0.00000000000E+00  1.
</event>
<event>
 9 114   1.0000000E+00   3.1250000E+01   7.8125000E-03   1.5660620E-01
        2   -1    0    0  502    0  0.00000000000E+00  0.00000000000E+00  1.58698400011E+03  1.58698400011E+03  0.00000000000E+00 0.00000000000E+00  1.
        5   -1    0    0  501    0  0.00000000000E+00  0.00000000000E+00 -2.52849999725E+02  2.52849999725E+02  0.00000000000E+00 0.00000000000E+00  1.
       25    1    1    2    0    0 -9.72956393261E+01  4.74105104304E+01  1.83027325331E+01  1.66355606907E+02  1.25000000000E+02 0.00000000000E+00  1.
        6    2    1    2  501    0 -1.93689656804E+02 -1.14204113721E+02 -3.91363577578E+01  2.86009079951E+02  1.72369592945E+02 0.00000000000E+00  1.
        1    1    1    2  502    0  2.90985296130E+02  6.67936032907E+01  1.35496762561E+03  1.38746931298E+03  0.00000000000E+00 0.00000000000E+00  1.
        5    1    4    4  501    0 -9.57129439082E+01 -8.55497411548E+01  4.01024793352E+01  1.34575247323E+02  4.75000000000E+00 0.00000000000E+00  1.
       24    2    4    4    0    0 -9.79767128957E+01 -2.86543725664E+01 -7.92388370930E+01  1.51433832628E+02  7.89487366804E+01 0.00000000000E+00  1.
       -1    1    7    7    0  703 -3.71088285155E+01  2.75046073804E+01 -2.65686126770E+01  5.32865814302E+01  5.84003863998E-07 0.00000000000E+00  1.
        2    1    7    7  703    0 -6.08678843802E+01 -5.61589799467E+01 -5.26702244160E+01  9.81472511974E+01  1.34869915235E-06 0.00000000000E+00  1.
</event>
<event>
 9 114   1.0000000E+00   3.1250000E+01   7.8125000E-03   1.5660620E-01
        2   -1    0    0  502    0  0.00000000000E+00  0.00000000000E+00  3.19315368299E+03  3.19315368299E+03  0.00000000000E+00 0.00000000000E+00  1.
        5   -1    0    0  501    0  0.00000000000E+00  0.00000000000E+00 -2.77175141850E+01  2.77175141850E+01  0.00000000000E+00 0.00000000000E+00  1.
       25    1    1    2    0    0 -5.99502025144E+01  1.40243764270E+02  7.94613509526E+02  8.18717270930E+02  1.25000000000E+02 0.00000000000E+00  1.
        6    2    1    2  501    0  6.29553477803E+01 -6.91250152877E+01  6.28963107214E+02  6.58840527434E+02  1.72437254675E+02 0.00000000000E+00  1.
        1    1    1    2  502    0 -3.00514526588E+00 -7.11187489827E+01  1.74185955206E+03  1.74331339881E+03  2.15791864376E-05 0.00000000000E+00  1.
        5    1    4    4  501    0  1.38376159580E+01 -5.77206230059E+01  4.57215121157E+02  4.61076327141E+02  4.75000000001E+00 0.00000000000E+00  1.
       24    2    4    4    0    0  4.91177318223E+01 -1.14043922817E+01  1.71747986058E+02  1.97764200293E+02  8.40874334241E+01 0.00000000000E+00  1.
      -13    1    7    7    0    0 -2.02328056642E+01 -1.91996941870E+01  4.15859097699E+01  5.00738827868E+01  1.05659999996E-01 0.00000000000E+00  1.
       14    1    7    7    0    0  6.93505374864E+01  7.79530190527E+00  1.30162076288E+02  1.47690317506E+02  0.00000000000E+00 0.00000000000E+00  1.
</event>
<event>
 9 114   1.0000000E+00   3.1250000E+01   7.8125000E-03   1.5660620E-01
        2   -1    0    0  502    0  0.00000000000E+00  0.00000000000E+00  4.12705444607E+02  4.12705444607E+02  0.00000000000E+00 0.00000000000E+00  1.
        5   -1    0    0  501    0  0.00000000000E+00  0.00000000000E+00 -9.78735515114E+01  9.78735515114E+01  0.00000000000E+00 0.00000000000E+00  1.
       25    1    1    2    0    0  1.17519933225E+01  1.26614962123E+02  1.32318568425E+02  2.22042026497E+02  1.25000000000E+02 0.00000000000E+00  1.
        6    2    1    2  501    0 -1.91460350591E+01 -1.26405708671E+02  1.79612975416E+02  2.80591677556E+02  1.73568127065E+02 0.00000000000E+00  1.
        1    1    1    2  502    0  7.39404173654E+00 -2.09253452844E-01  2.90034925368E+00  7.94529206528E+00  1.46000966000E-07 0.00000000000E+00  1.
        5    1    4    4  501    0 -3.17151125828E+01 -1.28333349936E+02  1.03412869894E+02  1.67904976792E+02  4.75000000000E+00 0.00000000000E+00  1.
       24    2    4    4    0    0  1.25690775238E+01  1.92764126552E+00  7.62001055225E+01  1.12686700764E+02  8.20374240014E+01 0.00000000000E+00  1.
      -11    1    7    7    0    0 -2.02369727344E+01  9.47650188793E+00 -6.60401120538E+00  2.33013329607E+01  5.10999682294E-04 0.00000000000E+00  1.
       12    1    7    7    0    0  3.28060502582E+01 -7.54886062242E+00  8.28041167278E+01  8.93853678032E+01  9.53674316406E-07 0.00000000000E+00  1.
</event>
<event>
 9 114   1.0000000E+00   3.1250000E+01   7.8125000E-03   1.5660620E-01
        2   -1    0    0  502    0  0.00000000000E+00  0.00000000000E+00  2.06142245908E+03  2.06142245908E+03  0.00000000000E+00 0.00000000000E+00  1.
        5   -1    0    0  501    0  0.00000000000E+00  0.00000000000E+00 -3.14658062498E+01  3.14658062498E+01  0.00000000000E+00 0.00000000000E+00  1.
       25    1    1    2    0    0 -1.78091267798E+00  6.19703969917E+01  4.85607343263E+02  5.05255374622E+02  1.25000000000E+02 0.00000000000E+00  1.
        6    2    1    2  501    0  1.14132765073E+02  1.60750340937E+01  1.16231104589E+03  1.18184074814E+03  1.80266169321E+02 0.00000000000E+00  1.
        1    1    1    2  502    0 -1.12351852395E+02 -7.80454310855E+01  3.82038263686E+02  4.05792142568E+02  5.39479660939E-06 0.00000000000E+00  1.
        5    1    4    4  501    0  1.26896915283E+02  3.66340979969E+01  6.38534746392E+02  6.52069067733E+02  4.75000000001E+00 0.00000000000E+00  1.
       24    2    4    4    0    0 -1.27641502099E+01 -2.05590639032E+01  5.23776299494E+02  5.29771680411E+02  7.57021982186E+01 0.00000000000E+00  1.
       -1    1    7    7    0  703 -1.73618222006E+01  2.37711182098E+01  3.10276969031E+02  3.11670172526E+02  3.81469726562E-06 0.00000000000E+00  1.
        2    1    7    7  703    0  4.59767199075E+00 -4.43301821130E+01  2.13499330462E+02  2.18101507885E+02  0.00000000000E+00 0.00000000000E+00  1.
</event>
<event>
 9 114   1.0000000E+00   3.1250000E+01   7.8125000E-03   1.5660620E-01
        2   -1    0    0  502    0  0.00000000000E+00  0.00000000000E+00  1.35068438513E+03  1.35068438513E+03  0.00000000000E+00 0.00000000000E+00  1.
        5   -1    0    0  501    0  0.00000000000E+00  0.00000000000E+00 -3.70461981660E+02  3.70461981660E+02  0.00000000000E+00 0.00000000000E+00  1.
       25    1    1    2    0    0 -4.37083633029E+01  2.22428166782E+02  1.79001467073E+02  3.14724062656E+02  1.25000000000E+02 0.00000000000E+00  1.
        6    2    1    2  501    0  9.62378115899E+01 -6.24457683770E+01 -2.58488573725E+02  3.33418130527E+02  1.76607238385E+02 0.00000000000E+00  1.
        1    1    1    2  502    0 -5.25294482869E+01 -1.59982398405E+02  1.05970951012E+03  1.07300417361E+03  2.15791864376E-05 0.00000000000E+00  1.
        5    1    4    4  501    0  8.00759264218E+01 -2.80249476320E+01 -2.22369015033E+02  2.38050610225E+02  4.75000000000E+00 0.00000000000E+00  1.
       24    2    4    4    0    0  1.61618851681E+01 -3.44208207451E+01 -3.61195586922E+01  9.53675203016E+01  7.96513777370E+01 0.00000000000E+00  1.
      -15    1    7    7    0    0 -1.54098052730E+01  1.69506619613E+01 -2.51760999966E+01  3.40848950235E+01  1.77680000000E+00 0.00000000000E+00  1.
       16    1    7    7    0    0  3.15716904410E+01 -5.13714827064E+01 -1.09434586956E+01  6.12826252782E+01  7.53945746462E-07 0.00000000000E+00  1.
</event>
<event>
 9 114   1.0000000E+00   3.1250000E+01   7.8125000E-03   1.5660620E-01
        2   -1    0    0  502    0  0.00000000000E+00  0.00000000000E+00  5.61368834832E+02  5.61368834832E+02  0.00000000000E+00 0.00000000000E+00  1.
        5   -1    0    0  501    0  0.00000000000E+00  0.00000000000E+00 -4.44180381113E+02  4.44180381113E+02  0.00000000000E+00 0.00000000000E+00  1.
       25    1    1    2    0    0  4.47012264567E+00  1.76986512665E+02 -1.26016279037E+02  2.50697647065E+02  1.25000000000E+02 0.00000000000E+00  1.
        6    2    1    2  501    0 -4.41326041415E+01 -2.89533833430E+02 -1.28531488794E+02  3.64431499900E+02  1.74678124156E+02 0.00000000000E+00  1.
        1    1    1    2  502    0  3.96624814958E+01  1.12547320766E+02  3.71736221551E+02  3.90420068980E+02  5.39479660939E-06 0.00000000000E+00  1.
        5    1    4    4  501    0 -7.52734462710E+01 -1.13851043690E+02 -1.49035752424E+01  1.37378422315E+02  4.75000000000E+00 0.00000000000E+00  1.
       24    2    4    4    0    0  3.11408421294E+01 -1.75682789740E+02 -1.13627913552E+02  2.27053077585E+02  8.25081974304E+01 0.00000000000E+00  1.
      -15    1    7    7    0    0  2.95933424688E+01 -5.17551843281E+01 -7.78167921826E+01  9.80457810777E+01  1.77680000000E+00 0.00000000000E+00  1.
       16    1    7    7    0    0  1.54749966067E+00 -1.23927605412E+02 -3.58111213693E+01  1.29007296507E+02  2.02304872852E-06 0.00000000000E+00  1.
</event>
<event>
 9 114   1.0000000E+00   3.1250000E+01   7.8125000E-03   1.5660620E-01
        2   -1    0    0  502    0  0.00000000000E+00  0.00000000000E+00  1.54831148402E+03  1.54831148402E+03  0.00000000000E+00 0.00000000000E+00  1.
        5   -1    0    0  501    0  0.00000000000E+00  0.00000000000E+00 -4.22176368576E+02  4.22176368576E+02  0.00000000000E+00 0.00000000000E+00  1.
       25    1    1    2    0    0 -3.20872936524E+02  4.86147637795E+01  5.30292234293E+02  6.34159041883E+02  1.25000000000E+02 0.00000000000E+00  1.
        6    2    1    2  501    0  2.22026213449E+02  1.26134771756E+02 -2.92812979710E+02  4.25275950625E+02  1.72958298411E+02 0.00000000000E+00  1.
        1    1    1    2  502    0  9.88467230747E+01 -1.74749535535E+02  8.88655860858E+02  9.11052860085E+02  1.52587890625E-05 0.00000000000E+00  1.
        5    1    4    4  501    0  1.92051983340E+02  8.34500228127E+01 -1.72802625447E+02  2.71534860513E+02  4.75000000000E+00 0.00000000000E+00  1.
       24    2    4    4    0    0  2.99742301089E+01  4.26847489431E+01 -1.20010354263E+02  1.53741090112E+02  8.07056094442E+01 0.00000000000E+00  1.
       -1    1    7    7    0  703 -8.07120139106E+00 -1.17642675495E+01  2.40257067126E+00  1.44677098637E+01  1.26264811542E-06 0.00000000000E+00  1.
        4    1    7    7  703    0  3.80454315000E+01  5.44490164925E+01 -1.22412924934E+02  1.39273380249E+02  1.34869915235E-06 0.00000000000E+00  1.
</event>
<event>
 9 114   1.0000000E+00   3.1250000E+01   7.8125000E-03   1.5660620E-01
        2   -1    0    0  502    0  0.00000000000E+00  0.00000000000E+00  1.96186477984E+03  1.96186477984E+03  0.00000000000E+00 0.00000000000E+00  1.
        5   -1    0    0  501    0  0.00000000000E+00  0.00000000000E+00 -4.88693979586E+02  4.88693979586E+02  0.00000000000E+00 0.00000000000E+00  1.
       25    1    1    2    0    0  1.76999666983E+02 -1.22695481060E+02  7.99853851039E+02  8.37719670418E+02  1.25000000000E+02 0.00000000000E+00  1.
        6    2    1    2  501    0 -1.68136076616E+02  1.80478362607E+01 -4.35804006054E+02  4.98756961777E+02  1.73890513183E+02 0.00000000000E+00  1.
        1    1    1    2  502    0 -8.86359036725E+00  1.04647644800E+02  1.10912095527E+03  1.11408212723E+03  1.52587890625E-05 0.00000000000E+00  1.
        5    1    4    4  501    0 -1.54096381001E+02  3.34637730767E-01 -3.27836111051E+02  3.62277358979E+02  4.75000000001E+00 0.00000000000E+00  1.
       24    2    4    4    0    0 -1.40396956147E+01  1.77131985300E+01 -1.07967895003E+02  1.36479602798E+02  8.03663186499E+01 0.00000000000E+00  1.
       -3    1    7    7    0  703 -4.54068995770E+00 -4.43644727630E+00  1.22888213170E+01  1.38316687023E+01  1.25027757665E-06 0.00000000000E+00  1.
        4    1    7    7  703    0 -9.49900565702E+00  2.21496458063E+01 -1.20256716320E+02  1.22647934096E+02  0.00000000000E+00 0.00000000000E+00  1.
</event>
<event>
 9 114   1.0000000E+00   3.1250000E+01   7.8125000E-03   1.5660620E-01
        2   -1    0    0  502    0  0.00000000000E+00  0.00000000000E+00  1.57348555092E+03  1.57348555092E+03  0.00000000000E+00 0.00000000000E+00  1.
        5   -1    0    0  501    0  0.00000000000E+00  0.00000000000E+00 -5.60672395981E+01  5.60672395981E+01  0.00000000000E+00 0.00000000000E+00  1.
       25    1    1    2    0    0  1.57380467066E+01 -1.55418533876E+02  2.72277803101E+02  3.37879873399E+02  1.25000000000E+02 0.00000000000E+00  1.
        6    2    1    2  501    0 -2.10043863766E+01  1.11620985368E+02  4.50892552455E+02  4.96200871836E+02  1.73236205021E+02 0.00000000000E+00  1.
        1    1    1    2  502    0  5.26633966992E+00  4.37975485085E+01  7.94247955761E+02  7.95472045278E+02  1.07895932188E-05 0.00000000000E+00  1.
        5    1    4    4  501    0  2.68629497971E+01  9.96167427527E+01  3.06690069459E+02  3.23614701015E+02  4.75000000000E+00 0.00000000000E+00  1.
       24    2    4    4    0    0 -4.78673361737E+01  1.20042426148E+01  1.44202482996E+02  1.72586170821E+02  8.09706523580E+01 0.00000000000E+00  1.
      -13    1    7    7    0    0  1.69353898401E+00  1.20103062226E-01  1.12610036155E+02  1.12622883580E+02  1.05660000021E-01 0.00000000000E+00  1.
       14    1    7    7    0    0 -4.95608751577E+01  1.18841395525E+01  3.15924468407E+01  5.99632872405E+01  7.53945746462E-07 0.00000000000E+00  1.
</event>
</LesHouchesEvents>
