<LesHouchesEvents version="1.0">
<!--
Output from the JHUGenerator v7.4.1 described in arXiv:1001.3396 [hep-ph], arXiv:1208.4018 [hep-ph], arXiv:1309.4819 [hep-ph], arXiv:1606.03107 [hep-ph]
   
   Command line: ./JHUGen Seed=765543533 PDFSet=3 Process=111 VegasNc0=100000 VegasNc2=100 DataFile=compare_to_reference/tqH_111 TopDK=1 DecayMode1=11 ghg2=0.383432074687728,0.918260989345657 ghg3=6294.49296087723,2253.12941717723 ghg4=0.335495485382528,0.17285803562226 ghz1=0.154934976270359,0.453918144016304 ghz2=0.469297059144414,0.745302300947002 ghz3=3947.40921062637,3597.4885961919 ghz4=0.177791270766536,0.920170534486048 ghzgs2=0.0240331049939919,0.232175381101053 ghzgs3=0.331962910170583,0.0450183240308457 ghzgs4=0.808286540247172,0.133184346613754 ghgsgs2=0.530394804029869,0.211218112389125 ghgsgs3=0.914978695198138,0.055650585081425 ghgsgs4=0.694524307167701,0.511424456076726 ghz1_prime=0.143354267833606,0.0910761280837012 ghz1_prime2=7416.7007267243,4861.35525489789 ghz1_prime3=4431.44656075298,4436.48625894176 ghz1_prime4=2441.69123517064,6946.16318931911 ghz1_prime5=78314042.889773,69465359.939181 ghz1_prime6=51233058.8130761,29537873.5850789 ghz1_prime7=47832192.9001564,59559649.9633293 g
   
   Input Parameter:
    Collider: P-P, sqrt(s)=13000.00
    Resonance: spin=0, mass= 125.00 width=   0.00407
    DecayMode1:11
    W boson: mass=80.399, width=2.0850
    Top quark mass=173.2000, width=2.0000
    Top quark decay= 1
    Random seed:   765543533
    To reproduce results using this seed, JHUGen should be compiled with the same compiler:
      GNU Fortran (GCC) 6.3.0
    
    WidthScheme:   2
    PDFSet:   3
    Unweighted: T
    
    
    LHE output: compare_to_reference/tqH_111.lhe
    Histogram output: compare_to_reference/tqH_111.dat
    Log file: compare_to_reference/tqH_111.log
    
-->
<init>
2212 2212   6500.0000000000000000    6500.0000000000000000 0 0  263000  263000  3  1
 1.9352603E+02  5.7253272E+00  1.0000000E+00 111
</init>
<event>
 9 111   1.0000000E+00   3.1250000E+01   7.8125000E-03   1.5660620E-01
        3   -1    0    0  502    0  0.00000000000E+00  0.00000000000E+00  2.18123758476E+02  2.18123758476E+02  0.00000000000E+00 0.00000000000E+00  1.
       -5   -1    0    0    0  501  0.00000000000E+00  0.00000000000E+00 -7.78744194418E+02  7.78744194418E+02  0.00000000000E+00 0.00000000000E+00  1.
       25    1    1    2    0    0  1.42553137895E+01  1.99263100613E+01 -2.25801900339E+02  2.59252328824E+02  1.25000000000E+02 0.00000000000E+00  1.
       -6    2    1    2    0  501 -6.95562929458E+01 -5.46026947364E+00 -5.15238492243E+02  5.48357003712E+02  1.74232049865E+02 0.00000000000E+00  1.
        4    1    1    2  502    0  5.53009791563E+01 -1.44660405877E+01  1.80419956640E+02  1.89258620358E+02  6.87704329579E-06 0.00000000000E+00  1.
       -5    1    4    4    0  501  1.54207605538E+00  4.80124531400E+01 -2.80406390950E+02  2.84530982919E+02  4.74999999999E+00 0.00000000000E+00  1.
      -24    2    4    4    0    0 -7.10983690012E+01 -5.34727226136E+01 -2.34832101292E+02  2.63826020793E+02  8.08934070959E+01 0.00000000000E+00  1.
        3    1    7    7  704    0 -3.95336833201E+01 -7.25970224953E+01 -1.74727517654E+02  1.93294969458E+02  1.90734863281E-06 0.00000000000E+00  1.
       -4    1    7    7    0  704 -3.15646856811E+01  1.91242998816E+01 -6.01045836381E+01  7.05310513350E+01  1.16800772800E-06 0.00000000000E+00  1.
</event>
<event>
 9 111   1.0000000E+00   3.1250000E+01   7.8125000E-03   1.5660620E-01
        1   -1    0    0  502    0  0.00000000000E+00  0.00000000000E+00  6.17496303461E+02  6.17496303461E+02  0.00000000000E+00 0.00000000000E+00  1.
       -5   -1    0    0    0  501  0.00000000000E+00  0.00000000000E+00 -1.30414954572E+02  1.30414954572E+02  0.00000000000E+00 0.00000000000E+00  1.
       25    1    1    2    0    0 -7.19065363879E+01 -5.96076147327E+01 -2.07088019978E+01  1.57408615360E+02  1.25000000000E+02 0.00000000000E+00  1.
       -6    2    1    2    0  501  5.38643657214E+01  5.82426789791E+01  1.79103190667E+02  2.61318042805E+02  1.72961229872E+02 0.00000000000E+00  1.
        2    1    1    2  502    0  1.80421706665E+01  1.36493575359E+00  3.28686960219E+02  3.29184599868E+02  5.39479660939E-06 0.00000000000E+00  1.
       -5    1    4    4    0  501  1.36364087747E+01 -2.20957281236E+01  1.28576397209E+02  1.31257857916E+02  4.75000000000E+00 0.00000000000E+00  1.
      -24    2    4    4    0    0  4.02279569467E+01  8.03384071027E+01  5.05267934586E+01  1.30060184888E+02  7.93104448361E+01 0.00000000000E+00  1.
       13    1    7    7    0    0  1.73565233582E+01  4.74248095651E+00  4.77541857366E+01  5.10314946686E+01  1.05660000012E-01 0.00000000000E+00  1.
      -14    1    7    7    0    0  2.28714335884E+01  7.55959261462E+01  2.77260772204E+00  7.90286902199E+01  1.02504393589E-06 0.00000000000E+00  1.
</event>
<event>
 9 111   1.0000000E+00   3.1250000E+01   7.8125000E-03   1.5660620E-01
        1   -1    0    0  502    0  0.00000000000E+00  0.00000000000E+00  5.30484933687E+02  5.30484933687E+02  0.00000000000E+00 0.00000000000E+00  1.
       -5   -1    0    0    0  501  0.00000000000E+00  0.00000000000E+00 -1.23527444968E+03  1.23527444968E+03  0.00000000000E+00 0.00000000000E+00  1.
       25    1    1    2    0    0 -1.03357787765E+01  6.65583730257E+01 -2.20264885976E+02  2.62065765289E+02  1.25000000000E+02 0.00000000000E+00  1.
       -6    2    1    2    0  501  6.25758524721E+01 -9.58070310748E+01 -9.81415639773E+02  1.00320866838E+03  1.73655549312E+02 0.00000000000E+00  1.
        2    1    1    2  502    0 -5.22400736957E+01  2.92486580491E+01  4.96891009756E+02  5.00484949698E+02  2.22433162493E-05 0.00000000000E+00  1.
       -5    1    4    4    0  501  5.34550390466E+01 -1.14012163222E+02 -5.64918302985E+02  5.78801750265E+02  4.75000000001E+00 0.00000000000E+00  1.
      -24    2    4    4    0    0  9.12081342557E+00  1.82051321474E+01 -4.16497336788E+02  4.24406918116E+02  7.89720489735E+01 0.00000000000E+00  1.
        1    1    7    7  704    0 -3.44738993863E+01  8.28033248880E+00 -2.23780860539E+02  2.26572035319E+02  6.60724947956E-06 0.00000000000E+00  1.
       -2    1    7    7    0  704  4.35947128119E+01  9.92479965863E+00 -1.92716476249E+02  1.97834882797E+02  4.67203091199E-06 0.00000000000E+00  1.
</event>
<event>
 9 111   1.0000000E+00   3.1250000E+01   7.8125000E-03   1.5660620E-01
        1   -1    0    0  502    0  0.00000000000E+00  0.00000000000E+00  4.17634058183E+02  4.17634058183E+02  0.00000000000E+00 0.00000000000E+00  1.
       -5   -1    0    0    0  501  0.00000000000E+00  0.00000000000E+00 -1.94653203142E+02  1.94653203142E+02  0.00000000000E+00 0.00000000000E+00  1.
       25    1    1    2    0    0 -9.97326231314E+01 -6.13127860998E+01 -5.89997237348E+01  1.81140335808E+02  1.25000000000E+02 0.00000000000E+00  1.
       -6    2    1    2    0  501  5.38002677407E+00  7.86156604254E+01  7.99443891335E+01  2.07494463369E+02  1.74509255407E+02 0.00000000000E+00  1.
        2    1    1    2  502    0  9.43525963573E+01 -1.73028743255E+01  2.02036189642E+02  2.23652462147E+02  2.69739830470E-06 0.00000000000E+00  1.
       -5    1    4    4    0  501 -2.86333514281E+01  3.36147071793E+01  9.89203762325E+01  1.08432562852E+02  4.75000000000E+00 0.00000000000E+00  1.
      -24    2    4    4    0    0  3.40133782022E+01  4.50009532460E+01 -1.89759870990E+01  9.90619005169E+01  7.91907592959E+01 0.00000000000E+00  1.
        3    1    7    7  704    0 -2.98551986860E+00 -2.00525182604E+01  4.22500750896E+00  2.07091164930E+01  9.32960262448E-07 0.00000000000E+00  1.
       -4    1    7    7    0  704  3.69988980708E+01  6.50534715065E+01 -2.32009946079E+01  7.83527840239E+01  4.76837158203E-07 0.00000000000E+00  1.
</event>
<event>
 9 111   1.0000000E+00   3.1250000E+01   7.8125000E-03   1.5660620E-01
       -5   -1    0    0    0  501  0.00000000000E+00  0.00000000000E+00  1.10013240894E+02  1.10013240894E+02  0.00000000000E+00 0.00000000000E+00  1.
        3   -1    0    0  502    0  0.00000000000E+00  0.00000000000E+00 -5.31727508658E+02  5.31727508658E+02  0.00000000000E+00 0.00000000000E+00  1.
       25    1    1    2    0    0 -3.55601828980E+01  1.05611392070E+02 -5.09496355794E+01  1.75040447064E+02  1.25000000000E+02 0.00000000000E+00  1.
       -6    2    1    2    0  501  5.80815422828E+01 -7.44415210607E+01 -1.63298510578E+02  2.55700387555E+02  1.72630469579E+02 0.00000000000E+00  1.
        4    1    1    2  502    0 -2.25213593848E+01 -3.11698710093E+01 -2.07466121607E+02  2.10999914933E+02  2.69739830470E-06 0.00000000000E+00  1.
       -5    1    4    4    0  501  8.73900356573E+01 -1.04036807402E+01 -8.76867078249E+01  1.24325283568E+02  4.75000000000E+00 0.00000000000E+00  1.
      -24    2    4    4    0    0 -2.93084933745E+01 -6.40378403205E+01 -7.56118027527E+01  1.31375103987E+02  8.11322405414E+01 0.00000000000E+00  1.
       15    1    7    7    0    0  8.95695723929E+00 -2.01982193951E+01 -6.93997026420E+01  7.28537637652E+01  1.77680000000E+00 0.00000000000E+00  1.
      -16    1    7    7    0    0 -3.82654506137E+01 -4.38396209254E+01 -6.21210011071E+00  5.85213402217E+01  1.91107029222E-06 0.00000000000E+00  1.
</event>
<event>
 9 111   1.0000000E+00   3.1250000E+01   7.8125000E-03   1.5660620E-01
        3   -1    0    0  502    0  0.00000000000E+00  0.00000000000E+00  3.04647340665E+02  3.04647340665E+02  0.00000000000E+00 0.00000000000E+00  1.
       -5   -1    0    0    0  501  0.00000000000E+00  0.00000000000E+00 -1.54323494237E+02  1.54323494237E+02  0.00000000000E+00 0.00000000000E+00  1.
       25    1    1    2    0    0  1.06561597068E+01 -5.92839468988E+01 -5.00199371541E+01  1.47496217621E+02  1.25000000000E+02 0.00000000000E+00  1.
       -6    2    1    2    0  501  4.66608395796E+00  5.05228175885E+01  9.46664761292E+01  2.04333486766E+02  1.73827801788E+02 0.00000000000E+00  1.
        4    1    1    2  502    0 -1.53222436648E+01  8.76112931030E+00  1.05677307453E+02  1.07141130515E+02  1.34869915235E-06 0.00000000000E+00  1.
       -5    1    4    4    0  501  5.78001445284E+01  2.12442474615E+01 -4.83860142892E+00  6.19527991417E+01  4.75000000000E+00 0.00000000000E+00  1.
      -24    2    4    4    0    0 -5.31340605704E+01  2.92785701270E+01  9.95050775581E+01  1.42380687624E+02  8.17957009079E+01 0.00000000000E+00  1.
        1    1    7    7  704    0 -1.24482494649E+01 -1.24935602502E+01 -8.54694045141E+00  1.95984222209E+01  2.03355814329E-06 0.00000000000E+00  1.
       -2    1    7    7    0  704 -4.06858111055E+01  4.17721303772E+01  1.08052018009E+02  1.22782265403E+02  1.34869915235E-06 0.00000000000E+00  1.
</event>
<event>
 9 111   1.0000000E+00   3.1250000E+01   7.8125000E-03   1.5660620E-01
       -5   -1    0    0    0  501  0.00000000000E+00  0.00000000000E+00  1.06818952187E+02  1.06818952187E+02  0.00000000000E+00 0.00000000000E+00  1.
       -2   -1    0    0    0  502  0.00000000000E+00  0.00000000000E+00 -4.43974130410E+02  4.43974130410E+02  0.00000000000E+00 0.00000000000E+00  1.
       25    1    1    2    0    0  8.85801054391E-01 -1.37195357520E+01 -1.02402861575E+02  1.62173846115E+02  1.25000000000E+02 0.00000000000E+00  1.
       -6    2    1    2    0  501  4.02477810388E+01 -7.77053339584E+00 -3.88929154859E+01  1.87336600193E+02  1.78611527705E+02 0.00000000000E+00  1.
       -1    1    1    2    0  502 -4.11335820932E+01  2.14900691479E+01 -1.95859401162E+02  2.01282636289E+02  4.67203091199E-06 0.00000000000E+00  1.
       -5    1    4    4    0  501 -9.96001228994E+00 -4.89823476767E+01 -6.39248724198E+01  8.12860630282E+01  4.75000000000E+00 0.00000000000E+00  1.
      -24    2    4    4    0    0  5.02077933288E+01  4.12118142808E+01  2.50319569339E+01  1.06050537165E+02  8.00055086713E+01 0.00000000000E+00  1.
        1    1    7    7  704    0  2.36230784870E+01 -5.63110068965E+00  4.29053535072E+01  4.93014045617E+01  8.25906184945E-07 0.00000000000E+00  1.
       -2    1    7    7    0  704  2.65847148418E+01  4.68429149705E+01 -1.78733965733E+01  5.67491326032E+01  9.83024984745E-07 0.00000000000E+00  1.
</event>
<event>
 9 111   1.0000000E+00   3.1250000E+01   7.8125000E-03   1.5660620E-01
       -5   -1    0    0    0  501  0.00000000000E+00  0.00000000000E+00  4.43381401517E+01  4.43381401517E+01  0.00000000000E+00 0.00000000000E+00  1.
       -2   -1    0    0    0  502  0.00000000000E+00  0.00000000000E+00 -1.05701150043E+03  1.05701150043E+03  0.00000000000E+00 0.00000000000E+00  1.
       25    1    1    2    0    0 -2.81811550295E+01  1.20546883493E+02 -3.28627605451E+02  3.72755726560E+02  1.25000000000E+02 0.00000000000E+00  1.
       -6    2    1    2    0  501  1.69464099703E+01 -1.24739627275E+02 -4.92666826639E+02  5.36839663087E+02  1.72130957035E+02 0.00000000000E+00  1.
       -1    1    1    2    0  502  1.12347450592E+01  4.19274378128E+00 -1.91378928185E+02  1.91754250931E+02  0.00000000000E+00 0.00000000000E+00  1.
       -5    1    4    4    0  501 -4.16720545398E+01 -9.86500481577E+01 -2.06563997487E+02  2.32722237204E+02  4.75000000000E+00 0.00000000000E+00  1.
      -24    2    4    4    0    0  5.86184645101E+01 -2.60895791169E+01 -2.86102829151E+02  3.04117425883E+02  8.07204395276E+01 0.00000000000E+00  1.
        1    1    7    7  704    0  6.45911492186E+01 -3.68930365574E+01 -1.49750448994E+02  1.67207385236E+02  2.69739830470E-06 0.00000000000E+00  1.
       -2    1    7    7    0  704 -5.97268470850E+00  1.08034574405E+01 -1.36352380157E+02  1.36910040647E+02  2.69739830470E-06 0.00000000000E+00  1.
</event>
<event>
 9 111   1.0000000E+00   3.1250000E+01   7.8125000E-03   1.5660620E-01
       -2   -1    0    0    0  502  0.00000000000E+00  0.00000000000E+00  5.48584712691E+02  5.48584712691E+02  0.00000000000E+00 0.00000000000E+00  1.
       -5   -1    0    0    0  501  0.00000000000E+00  0.00000000000E+00 -5.41176351990E+02  5.41176351990E+02  0.00000000000E+00 0.00000000000E+00  1.
       25    1    1    2    0    0  1.96376680014E+01 -9.81205955763E+01 -8.33393260551E+01  1.80509646690E+02  1.25000000000E+02 0.00000000000E+00  1.
       -6    2    1    2    0  501 -5.54392523508E+01 -2.33457275682E+02 -2.82681708667E+02  4.08576721690E+02  1.71610544029E+02 0.00000000000E+00  1.
       -1    1    1    2    0  502  3.58015843494E+01  3.31577871258E+02  3.73429395424E+02  5.00674696301E+02  1.52587890625E-05 0.00000000000E+00  1.
       -5    1    4    4    0  501  4.71588438421E+00 -1.23307906843E+02 -5.08775618577E+01  1.33559605631E+02  4.75000000000E+00 0.00000000000E+00  1.
      -24    2    4    4    0    0 -6.01551367350E+01 -1.10149368838E+02 -2.31804146809E+02  2.75017116059E+02  7.84201996711E+01 0.00000000000E+00  1.
        1    1    7    7  704    0 -7.89940352656E+01 -9.53620121239E+01 -1.88598421792E+02  2.25617675873E+02  3.81469726562E-06 0.00000000000E+00  1.
       -2    1    7    7    0  704  1.88388985306E+01 -1.47873567144E+01 -4.32057250171E+01  4.93994401861E+01  2.33601545599E-06 0.00000000000E+00  1.
</event>
<event>
 9 111   1.0000000E+00   3.1250000E+01   7.8125000E-03   1.5660620E-01
       -2   -1    0    0    0  502  0.00000000000E+00  0.00000000000E+00  1.08898958402E+03  1.08898958402E+03  0.00000000000E+00 0.00000000000E+00  1.
       -5   -1    0    0    0  501  0.00000000000E+00  0.00000000000E+00 -5.35567763209E+01  5.35567763209E+01  0.00000000000E+00 0.00000000000E+00  1.
       25    1    1    2    0    0  2.26255652595E+01  1.23629483453E+02  5.91591368714E+02  6.17577131150E+02  1.25000000000E+02 0.00000000000E+00  1.
       -6    2    1    2    0  501 -6.06212106928E+01 -7.38675559912E+01  2.46417366824E+02  3.17855292515E+02  1.76576106236E+02 0.00000000000E+00  1.
       -1    1    1    2    0  502  3.79956454333E+01 -4.97619274623E+01  1.97424072156E+02  2.07113936671E+02  3.81469726562E-06 0.00000000000E+00  1.
       -5    1    4    4    0  501 -4.29570422814E+01 -8.28372339969E+01  5.60568121859E+01  1.08959825212E+02  4.75000000000E+00 0.00000000000E+00  1.
      -24    2    4    4    0    0 -1.76641684114E+01  8.96967800573E+00  1.90360554638E+02  2.08895467303E+02  8.37119915448E+01 0.00000000000E+00  1.
        3    1    7    7  704    0 -3.48444846711E+01  1.02853326970E+01  1.88030272483E+02  1.91507988217E+02  2.69739830470E-06 0.00000000000E+00  1.
       -4    1    7    7    0  704  1.71803162597E+01 -1.31565469129E+00  2.33028215472E+00  1.73874790861E+01  2.06045937746E-06 0.00000000000E+00  1.
</event>
<event>
 9 111   1.0000000E+00   3.1250000E+01   7.8125000E-03   1.5660620E-01
       -5   -1    0    0    0  501  0.00000000000E+00  0.00000000000E+00  8.86855019245E+02  8.86855019245E+02  0.00000000000E+00 0.00000000000E+00  1.
        3   -1    0    0  502    0  0.00000000000E+00  0.00000000000E+00 -1.33147241189E+03  1.33147241189E+03  0.00000000000E+00 0.00000000000E+00  1.
       25    1    1    2    0    0 -7.52285382135E+01 -7.01391000341E+00  1.31843801946E+02  1.96764620821E+02  1.25000000000E+02 0.00000000000E+00  1.
       -6    2    1    2    0  501  6.86526383612E+01  6.63797566476E+01  7.08173708254E+02  7.35540112297E+02  1.74326701598E+02 0.00000000000E+00  1.
        4    1    1    2  502    0  6.57589985230E+00 -5.93658466441E+01 -1.28463490284E+03  1.28602269802E+03  3.41196895981E-05 0.00000000000E+00  1.
       -5    1    4    4    0  501  8.97046853451E+01  5.22246324411E+01  5.03087569606E+02  5.13706149465E+02  4.74999999999E+00 0.00000000000E+00  1.
      -24    2    4    4    0    0 -2.10520469839E+01  1.41551242064E+01  2.05086138648E+02  2.21833962832E+02  8.06624235736E+01 0.00000000000E+00  1.
       13    1    7    7    0    0 -3.63293999568E+01  3.28647377021E+01  7.53970314621E+01  8.99146250773E+01  1.05660000012E-01 0.00000000000E+00  1.
      -14    1    7    7    0    0  1.52773529729E+01 -1.87096134957E+01  1.29689107186E+02  1.31919337755E+02  0.00000000000E+00 0.00000000000E+00  1.
</event>
<event>
 9 111   1.0000000E+00   3.1250000E+01   7.8125000E-03   1.5660620E-01
       -5   -1    0    0    0  501  0.00000000000E+00  0.00000000000E+00  1.76695849536E+02  1.76695849536E+02  0.00000000000E+00 0.00000000000E+00  1.
        1   -1    0    0  502    0  0.00000000000E+00  0.00000000000E+00 -8.65061200654E+02  8.65061200654E+02  0.00000000000E+00 0.00000000000E+00  1.
       25    1    1    2    0    0 -1.35777342576E+02 -8.96969274917E+01 -1.36196007252E+02  2.46283125589E+02  1.25000000000E+02 0.00000000000E+00  1.
       -6    2    1    2    0  501  1.58312110774E+02 -2.09732382849E+01 -2.82341176391E+00  2.34638249480E+02  1.71885238817E+02 0.00000000000E+00  1.
        2    1    1    2  502    0 -2.25347681984E+01  1.10670165777E+02 -5.49345932102E+02  5.60835675121E+02  1.32144989591E-05 0.00000000000E+00  1.
       -5    1    4    4    0  501  4.94765906271E+01  5.74912571472E+01 -1.50430912941E+01  7.74728001567E+01  4.75000000000E+00 0.00000000000E+00  1.
      -24    2    4    4    0    0  1.08835520147E+02 -7.84644954321E+01  1.22196795302E+01  1.57165449323E+02  8.09308989449E+01 0.00000000000E+00  1.
        3    1    7    7  704    0  7.49268491022E+01 -6.07202810684E+01 -2.92064336003E+01  1.00767063136E+02  1.75201159199E-06 0.00000000000E+00  1.
       -4    1    7    7    0  704  3.39086710449E+01 -1.77442143637E+01  4.14261131305E+01  5.63983861872E+01  1.06624029994E-06 0.00000000000E+00  1.
</event>
<event>
 9 111   1.0000000E+00   3.1250000E+01   7.8125000E-03   1.5660620E-01
        1   -1    0    0  502    0  0.00000000000E+00  0.00000000000E+00  1.75887463044E+03  1.75887463044E+03  0.00000000000E+00 0.00000000000E+00  1.
       -5   -1    0    0    0  501  0.00000000000E+00  0.00000000000E+00 -1.18561494848E+02  1.18561494848E+02  0.00000000000E+00 0.00000000000E+00  1.
       25    1    1    2    0    0 -6.95248512035E+01 -2.13156181487E+01 -5.91752377118E+01  1.56252261648E+02  1.25000000000E+02 0.00000000000E+00  1.
       -6    2    1    2    0  501  8.38379086084E+01  1.22115024521E+01  8.29963654383E+02  8.51493697346E+02  1.70364119784E+02 0.00000000000E+00  1.
        2    1    1    2  502    0 -1.43130574049E+01  9.10411569655E+00  8.69524718924E+02  8.69690166298E+02  1.07895932188E-05 0.00000000000E+00  1.
       -5    1    4    4    0  501  2.17831815542E+01 -5.85112776158E+01  2.09628239784E+02  2.18779884865E+02  4.75000000000E+00 0.00000000000E+00  1.
      -24    2    4    4    0    0  6.20547270541E+01  7.07227800679E+01  6.20335414599E+02  6.32713812480E+02  8.15980460951E+01 0.00000000000E+00  1.
        1    1    7    7  704    0  7.00015409136E+01  7.93757724933E+01  4.63064631918E+02  4.75004823473E+02  0.00000000000E+00 0.00000000000E+00  1.
       -2    1    7    7    0  704 -7.94681385951E+00 -8.65299242540E+00  1.57270782681E+02  1.57708989007E+02  6.03156597170E-06 0.00000000000E+00  1.
</event>
<event>
 9 111   1.0000000E+00   3.1250000E+01   7.8125000E-03   1.5660620E-01
       -4   -1    0    0    0  502  0.00000000000E+00  0.00000000000E+00  5.40199421035E+01  5.40199421035E+01  0.00000000000E+00 0.00000000000E+00  1.
       -5   -1    0    0    0  501  0.00000000000E+00  0.00000000000E+00 -2.41750301289E+03  2.41750301289E+03  0.00000000000E+00 0.00000000000E+00  1.
       25    1    1    2    0    0 -5.33814635918E+01  2.30537126663E+01 -8.84246361487E+02  8.94928869869E+02  1.25000000000E+02 0.00000000000E+00  1.
       -6    2    1    2    0  501  3.74283950778E+01  8.86348543702E+00 -1.51543887890E+03  1.52576294296E+03  1.72968541295E+02 0.00000000000E+00  1.
       -3    1    1    2    0  502  1.59530685140E+01 -3.19171981033E+01  3.62021696048E+01  5.08311421657E+01  8.40911487987E-06 0.00000000000E+00  1.
       -5    1    4    4    0  501  6.13857851873E+01 -2.18683249194E+01 -1.04466530705E+03  1.04670655129E+03  4.75000000002E+00 0.00000000000E+00  1.
      -24    2    4    4    0    0 -2.39573901095E+01  3.07318103564E+01 -4.70773571857E+02  4.79056391672E+02  7.96797950168E+01 0.00000000000E+00  1.
        1    1    7    7  704    0  1.12100859362E+01 -1.09357823984E+01 -2.21247091747E+01  2.71064589983E+01  4.23151000721E-06 0.00000000000E+00  1.
       -2    1    7    7    0  704 -3.51674760456E+01  4.16675927549E+01 -4.48648862683E+02  4.51949932674E+02  5.39479660939E-06 0.00000000000E+00  1.
</event>
<event>
 9 111   1.0000000E+00   3.1250000E+01   7.8125000E-03   1.5660620E-01
       -5   -1    0    0    0  501  0.00000000000E+00  0.00000000000E+00  1.04740704284E+02  1.04740704284E+02  0.00000000000E+00 0.00000000000E+00  1.
        3   -1    0    0  502    0  0.00000000000E+00  0.00000000000E+00 -6.93305722356E+02  6.93305722356E+02  0.00000000000E+00 0.00000000000E+00  1.
       25    1    1    2    0    0  6.94037883270E+01 -4.20954812223E+01 -9.65757643606E+01  1.77597279358E+02  1.25000000000E+02 0.00000000000E+00  1.
       -6    2    1    2    0  501 -3.97077917846E+01  5.79187480114E+01 -7.40039673506E+01  2.01111660766E+02  1.73314808407E+02 0.00000000000E+00  1.
        4    1    1    2  502    0 -2.96959965424E+01 -1.58232667891E+01 -4.17985286361E+02  4.19337486516E+02  5.39479660939E-06 0.00000000000E+00  1.
       -5    1    4    4    0  501  3.30327526082E+01  1.43647405038E+00  2.64342273678E+01  4.25976182328E+01  4.75000000000E+00 0.00000000000E+00  1.
      -24    2    4    4    0    0 -7.27405443929E+01  5.64822739611E+01 -1.00438194718E+02  1.58514042534E+02  8.09780010355E+01 0.00000000000E+00  1.
        1    1    7    7  704    0 -7.60361372329E+01  1.07618984876E+01 -6.27907210968E+01  9.91967100272E+01  1.50789149292E-06 0.00000000000E+00  1.
       -2    1    7    7    0  704  3.29559284003E+00  4.57203754735E+01 -3.76474736215E+01  5.93173325065E+01  1.71926082395E-06 0.00000000000E+00  1.
</event>
<event>
 9 111   1.0000000E+00   3.1250000E+01   7.8125000E-03   1.5660620E-01
       -5   -1    0    0    0  501  0.00000000000E+00  0.00000000000E+00  1.52493781082E+02  1.52493781082E+02  0.00000000000E+00 0.00000000000E+00  1.
        1   -1    0    0  502    0  0.00000000000E+00  0.00000000000E+00 -1.48304276030E+03  1.48304276030E+03  0.00000000000E+00 0.00000000000E+00  1.
       25    1    1    2    0    0  7.56279852119E+01  1.43747403628E+02 -1.09103517967E+02  2.32188470493E+02  1.25000000000E+02 0.00000000000E+00  1.
       -6    2    1    2    0  501 -6.55792988616E+01 -1.04572609414E+02 -3.37803408761E+01  2.14994554988E+02  1.72758421404E+02 0.00000000000E+00  1.
        2    1    1    2  502    0 -1.00486863503E+01 -3.91747942135E+01 -1.18766512038E+03  1.18835351590E+03  1.52587890625E-05 0.00000000000E+00  1.
       -5    1    4    4    0  501 -7.23468799854E+01 -2.21018502597E+01  3.13450820916E+01  8.20221890701E+01  4.75000000000E+00 0.00000000000E+00  1.
      -24    2    4    4    0    0  6.76758112373E+00 -8.24707591545E+01 -6.51254229677E+01  1.32972365918E+02  8.11979255357E+01 0.00000000000E+00  1.
        3    1    7    7  704    0  1.15789171109E+00  1.66233347627E+01 -1.01455199295E+01  1.95091657045E+01  2.04748678652E-06 0.00000000000E+00  1.
       -4    1    7    7    0  704  5.60968941264E+00 -9.90940939172E+01 -5.49799030383E+01  1.13463200213E+02  1.16800772800E-06 0.00000000000E+00  1.
</event>
<event>
 9 111   1.0000000E+00   3.1250000E+01   7.8125000E-03   1.5660620E-01
       -2   -1    0    0    0  502  0.00000000000E+00  0.00000000000E+00  3.54459821754E+02  3.54459821754E+02  0.00000000000E+00 0.00000000000E+00  1.
       -5   -1    0    0    0  501  0.00000000000E+00  0.00000000000E+00 -1.69152038850E+02  1.69152038850E+02  0.00000000000E+00 0.00000000000E+00  1.
       25    1    1    2    0    0 -5.19263118578E+01 -1.83689204783E+01 -5.38692354182E+00  1.36703248125E+02  1.25000000000E+02 0.00000000000E+00  1.
       -6    2    1    2    0  501  5.16443278271E+01  7.98003888552E+00 -1.43824408735E+01  1.81568298053E+02  1.73289857277E+02 0.00000000000E+00  1.
       -1    1    1    2    0  502  2.81984030622E-01  1.03888815928E+01  2.05077147319E+02  2.05340314425E+02  2.69739830470E-06 0.00000000000E+00  1.
       -5    1    4    4    0  501 -3.36743442771E+01  3.42836881894E+01 -3.64360342440E+01  6.04936346221E+01  4.75000000000E+00 0.00000000000E+00  1.
      -24    2    4    4    0    0  8.53186721042E+01 -2.63036493039E+01  2.20535933705E+01  1.21074663431E+02  7.87499547174E+01 0.00000000000E+00  1.
       15    1    7    7    0    0  2.25573194916E+01  2.67145908212E+01 -3.11591856722E+00  3.51478020956E+01  1.77680000000E+00 0.00000000000E+00  1.
      -16    1    7    7    0    0  6.27613526127E+01 -5.30182401251E+01  2.51695119377E+01  8.59268613352E+01  1.01152436426E-06 0.00000000000E+00  1.
</event>
<event>
 9 111   1.0000000E+00   3.1250000E+01   7.8125000E-03   1.5660620E-01
       -2   -1    0    0    0  502  0.00000000000E+00  0.00000000000E+00  3.59630188405E+02  3.59630188405E+02  0.00000000000E+00 0.00000000000E+00  1.
       -5   -1    0    0    0  501  0.00000000000E+00  0.00000000000E+00 -1.28579841474E+02  1.28579841474E+02  0.00000000000E+00 0.00000000000E+00  1.
       25    1    1    2    0    0  3.56310908732E+01  7.55456040562E+00  5.48648027119E+01  1.41286208090E+02  1.25000000000E+02 0.00000000000E+00  1.
       -6    2    1    2    0  501  1.14732054700E+01 -2.73550076225E+01  1.43111409333E+01  1.77176377381E+02  1.74088279506E+02 0.00000000000E+00  1.
       -1    1    1    2    0  502 -4.71042963431E+01  1.98004472168E+01  1.61874403286E+02  1.69747444408E+02  2.69739830470E-06 0.00000000000E+00  1.
       -5    1    4    4    0  501  4.37994797737E+01 -6.29608103558E+01 -1.50921431900E+01  7.83121533044E+01  4.75000000000E+00 0.00000000000E+00  1.
      -24    2    4    4    0    0 -3.23262743037E+01  3.56058027333E+01  2.94032841233E+01  9.88642240767E+01  8.12208131357E+01 0.00000000000E+00  1.
       15    1    7    7    0    0  1.36739675627E+01 -1.16202136693E+01  2.75312989880E+01  3.29110345756E+01  1.77680000000E+00 0.00000000000E+00  1.
      -16    1    7    7    0    0 -4.60002418664E+01  4.72260164026E+01  1.87198513531E+00  6.59531895012E+01  4.80085721421E-07 0.00000000000E+00  1.
</event>
<event>
 9 111   1.0000000E+00   3.1250000E+01   7.8125000E-03   1.5660620E-01
       -5   -1    0    0    0  501  0.00000000000E+00  0.00000000000E+00  1.24571324485E+02  1.24571324485E+02  0.00000000000E+00 0.00000000000E+00  1.
        3   -1    0    0  502    0  0.00000000000E+00  0.00000000000E+00 -5.38562624798E+02  5.38562624798E+02  0.00000000000E+00 0.00000000000E+00  1.
       25    1    1    2    0    0  5.39116360496E+01  5.70629585325E+01 -6.28240931492E+01  1.60419800580E+02  1.25000000000E+02 0.00000000000E+00  1.
       -6    2    1    2    0  501  7.83419610013E+01  3.59097916721E+01 -1.98274390553E+02  2.80203116202E+02  1.78252843984E+02 0.00000000000E+00  1.
        4    1    1    2  502    0 -1.32253597051E+02 -9.29727502046E+01 -1.52892816611E+02  2.22511032501E+02  4.26496119976E-06 0.00000000000E+00  1.
       -5    1    4    4    0  501 -2.35174815288E+01 -8.69081766727E+00  1.25924287090E+01  2.84558255894E+01  4.75000000000E+00 0.00000000000E+00  1.
      -24    2    4    4    0    0  1.01859442530E+02  4.46006093394E+01 -2.10866819262E+02  2.51747290612E+02  8.09155268094E+01 0.00000000000E+00  1.
        1    1    7    7  704    0 -3.19303994202E-01 -1.76323387555E+01 -2.23178217025E+01  2.84444456894E+01  4.64763371697E-06 0.00000000000E+00  1.
       -2    1    7    7    0  704  1.02178746524E+02  6.22329480950E+01 -1.88548997560E+02  2.23302844923E+02  3.81469726562E-06 0.00000000000E+00  1.
</event>
<event>
 9 111   1.0000000E+00   3.1250000E+01   7.8125000E-03   1.5660620E-01
       -5   -1    0    0    0  501  0.00000000000E+00  0.00000000000E+00  7.34075355339E+01  7.34075355339E+01  0.00000000000E+00 0.00000000000E+00  1.
        1   -1    0    0  502    0  0.00000000000E+00  0.00000000000E+00 -1.78764229098E+03  1.78764229098E+03  0.00000000000E+00 0.00000000000E+00  1.
       25    1    1    2    0    0 -8.88716207677E-01  2.46670400158E+01 -5.74909591932E+01  1.39783629473E+02  1.25000000000E+02 0.00000000000E+00  1.
       -6    2    1    2    0  501 -1.54300735583E+01  1.27301282267E+01 -2.07205650167E+02  2.71153895166E+02  1.73753014558E+02 0.00000000000E+00  1.
        2    1    1    2  502    0  1.63187897659E+01 -3.73971682425E+01 -1.44953814609E+03  1.45011230188E+03  2.15791864376E-05 0.00000000000E+00  1.
       -5    1    4    4    0  501 -5.09061718014E+00  6.52730112796E+01 -1.48176882358E+02  1.62066132644E+02  4.75000000000E+00 0.00000000000E+00  1.
      -24    2    4    4    0    0 -1.03394563781E+01 -5.25428830529E+01 -5.90287678093E+01  1.09087762522E+02  7.44854723107E+01 0.00000000000E+00  1.
        3    1    7    7  704    0 -3.99084128562E+01 -2.22974575090E+01 -1.51957429156E+01  4.81743565688E+01  1.32745846816E-06 0.00000000000E+00  1.
       -4    1    7    7    0  704  2.95689564780E+01 -3.02454255439E+01 -4.38330248936E+01  6.09134059535E+01  1.16800772800E-06 0.00000000000E+00  1.
</event>
<event>
 9 111   1.0000000E+00   3.1250000E+01   7.8125000E-03   1.5660620E-01
       -5   -1    0    0    0  501  0.00000000000E+00  0.00000000000E+00  6.07727487355E+02  6.07727487355E+02  0.00000000000E+00 0.00000000000E+00  1.
       -2   -1    0    0    0  502  0.00000000000E+00  0.00000000000E+00 -1.68693017191E+02  1.68693017191E+02  0.00000000000E+00 0.00000000000E+00  1.
       25    1    1    2    0    0  4.22009398243E+01  1.81381955893E+01  9.12671108274E+01  1.61445343631E+02  1.25000000000E+02 0.00000000000E+00  1.
       -6    2    1    2    0  501 -1.23593008508E+02  7.04882992739E+01  4.19405585045E+02  4.74934596009E+02  1.71516744469E+02 0.00000000000E+00  1.
       -1    1    1    2    0  502  8.13920686839E+01 -8.86264948632E+01 -7.16382257081E+01  1.40040564905E+02  3.69356474515E-06 0.00000000000E+00  1.
       -5    1    4    4    0  501  1.45921308916E+00 -3.95399932715E+01  9.11005653189E+01  9.94354859805E+01  4.75000000000E+00 0.00000000000E+00  1.
      -24    2    4    4    0    0 -1.25052221597E+02  1.10028292545E+02  3.28305019726E+02  3.75499110029E+02  7.39669680901E+01 0.00000000000E+00  1.
        1    1    7    7  704    0 -3.64800796966E+01  9.38310681164E+00  1.35670456036E+02  1.40802384742E+02  2.69739830470E-06 0.00000000000E+00  1.
       -2    1    7    7    0  704 -8.85721419008E+01  1.00645185734E+02  1.92634563690E+02  2.34696725287E+02  6.03156597170E-06 0.00000000000E+00  1.
</event>
<event>
 9 111   1.0000000E+00   3.1250000E+01   7.8125000E-03   1.5660620E-01
        1   -1    0    0  502    0  0.00000000000E+00  0.00000000000E+00  9.06058046170E+02  9.06058046170E+02  0.00000000000E+00 0.00000000000E+00  1.
       -5   -1    0    0    0  501  0.00000000000E+00  0.00000000000E+00 -1.96686850671E+02  1.96686850671E+02  0.00000000000E+00 0.00000000000E+00  1.
       25    1    1    2    0    0 -1.67969815279E+02 -3.05846382768E+01 -4.98416573402E+01  2.17390132596E+02  1.25000000000E+02 0.00000000000E+00  1.
       -6    2    1    2    0  501  1.83545361933E+02 -1.27028902798E+00  1.91702948095E+02  3.16738174591E+02  1.72865662912E+02 0.00000000000E+00  1.
        2    1    1    2  502    0 -1.55755466534E+01  3.18549273048E+01  5.67509904745E+02  5.68616589655E+02  0.00000000000E+00 0.00000000000E+00  1.
       -5    1    4    4    0  501  8.35977902638E+01  2.65212745699E+01  1.58876538058E+02  1.81538660861E+02  4.75000000000E+00 0.00000000000E+00  1.
      -24    2    4    4    0    0  9.99475716690E+01 -2.77915635979E+01  3.28264100365E+01  1.35199513730E+02  8.02461664337E+01 0.00000000000E+00  1.
        1    1    7    7  704    0  8.27946561537E+00 -4.25557055689E+00  3.92515217539E+01  4.03403196770E+01  1.43051147461E-06 0.00000000000E+00  1.
       -2    1    7    7    0  704  9.16681060536E+01 -2.35359930410E+01 -6.42511171740E+00  9.48591940534E+01  1.14961275589E-06 0.00000000000E+00  1.
</event>
<event>
 9 111   1.0000000E+00   3.1250000E+01   7.8125000E-03   1.5660620E-01
        1   -1    0    0  502    0  0.00000000000E+00  0.00000000000E+00  1.57970962285E+03  1.57970962285E+03  0.00000000000E+00 0.00000000000E+00  1.
       -5   -1    0    0    0  501  0.00000000000E+00  0.00000000000E+00 -3.33285259335E+02  3.33285259335E+02  0.00000000000E+00 0.00000000000E+00  1.
       25    1    1    2    0    0 -2.63391199410E+02  9.41009732492E+01 -1.13657611569E+02  3.26761334556E+02  1.25000000000E+02 0.00000000000E+00  1.
       -6    2    1    2    0  501  6.42347830281E+00 -5.59401168716E+01 -1.87551783225E+01  1.83136773965E+02  1.73253466099E+02 0.00000000000E+00  1.
        2    1    1    2  502    0  2.56967721107E+02 -3.81608563776E+01  1.37883715341E+03  1.40309677366E+03  2.15791864376E-05 0.00000000000E+00  1.
       -5    1    4    4    0  501 -2.53973721850E+00  2.56147821098E+01 -5.56261428325E+01  6.14768053341E+01  4.75000000000E+00 0.00000000000E+00  1.
      -24    2    4    4    0    0  8.96321552132E+00 -8.15548989815E+01  3.68709645100E+01  1.21659968631E+02  8.19154391005E+01 0.00000000000E+00  1.
       15    1    7    7    0    0 -1.79960383265E+01 -8.40326852214E+01  1.58992728313E+01  8.74144923670E+01  1.77680000000E+00 0.00000000000E+00  1.
      -16    1    7    7    0    0  2.69592538478E+01  2.47778623995E+00  2.09716916787E+01  3.42454762640E+01  1.41050333574E-06 0.00000000000E+00  1.
</event>
<event>
 9 111   1.0000000E+00   3.1250000E+01   7.8125000E-03   1.5660620E-01
       -5   -1    0    0    0  501  0.00000000000E+00  0.00000000000E+00  7.34952713211E+02  7.34952713211E+02  0.00000000000E+00 0.00000000000E+00  1.
       -2   -1    0    0    0  502  0.00000000000E+00  0.00000000000E+00 -7.25369619998E+02  7.25369619998E+02  0.00000000000E+00 0.00000000000E+00  1.
       25    1    1    2    0    0 -2.60467773681E+01  6.86053658694E+01  4.49040819086E+02  4.71855685610E+02  1.25000000000E+02 0.00000000000E+00  1.
       -6    2    1    2    0  501  8.18079208748E+00 -7.52444290896E+01  2.41778311398E+02  3.06964036403E+02  1.73324892368E+02 0.00000000000E+00  1.
       -1    1    1    2    0  502  1.78659852807E+01  6.63906322022E+00 -6.81236037271E+02  6.81502611196E+02  1.07895932188E-05 0.00000000000E+00  1.
       -5    1    4    4    0  501  3.71267084031E+01  2.36948397877E+01  1.20367943622E+02  1.28260836818E+02  4.75000000000E+00 0.00000000000E+00  1.
      -24    2    4    4    0    0 -2.89459163156E+01 -9.89392688773E+01  1.21410367775E+02  1.78703199585E+02  8.10401822632E+01 0.00000000000E+00  1.
        1    1    7    7  704    0  1.82496142071E+01 -7.41292341696E+01  8.43580371926E+01  1.13773767698E+02  1.65181236989E-06 0.00000000000E+00  1.
       -2    1    7    7    0  704 -4.71955305227E+01 -2.48100347077E+01  3.70523305828E+01  6.49294318868E+01  6.74349576174E-07 0.00000000000E+00  1.
</event>
<event>
 9 111   1.0000000E+00   3.1250000E+01   7.8125000E-03   1.5660620E-01
       -2   -1    0    0    0  502  0.00000000000E+00  0.00000000000E+00  3.47374724988E+02  3.47374724988E+02  0.00000000000E+00 0.00000000000E+00  1.
       -5   -1    0    0    0  501  0.00000000000E+00  0.00000000000E+00 -4.39396998783E+02  4.39396998783E+02  0.00000000000E+00 0.00000000000E+00  1.
       25    1    1    2    0    0  1.13802118913E+02  1.61872586423E+01 -1.64721180159E+02  2.36581945221E+02  1.25000000000E+02 0.00000000000E+00  1.
       -6    2    1    2    0  501 -1.70194792096E+02 -3.05879072095E+01 -1.71399109728E+02  2.99248841819E+02  1.73983698059E+02 0.00000000000E+00  1.
       -1    1    1    2    0  502  5.63926731824E+01  1.44006485673E+01  2.44098016092E+02  2.50940936732E+02  7.13664510112E-06 0.00000000000E+00  1.
       -5    1    4    4    0  501 -7.60536166500E+01  4.02774003210E+01 -1.20748477425E+02  1.48354908522E+02  4.75000000000E+00 0.00000000000E+00  1.
      -24    2    4    4    0    0 -9.41411754457E+01 -7.08653075305E+01 -5.06506323033E+01  1.50893933296E+02  7.94923884863E+01 0.00000000000E+00  1.
        1    1    7    7  704    0 -3.76583654681E+01 -7.57371173200E+01 -2.21217628829E+01  8.74278892729E+01  1.09257118582E-06 0.00000000000E+00  1.
       -2    1    7    7    0  704 -5.64828099777E+01  4.87180978944E+00 -2.85288694204E+01  6.34660440236E+01  1.39020726558E-06 0.00000000000E+00  1.
</event>
<event>
 9 111   1.0000000E+00   3.1250000E+01   7.8125000E-03   1.5660620E-01
       -5   -1    0    0    0  501  0.00000000000E+00  0.00000000000E+00  1.24922897688E+02  1.24922897688E+02  0.00000000000E+00 0.00000000000E+00  1.
        1   -1    0    0  502    0  0.00000000000E+00  0.00000000000E+00 -1.06222557555E+03  1.06222557555E+03  0.00000000000E+00 0.00000000000E+00  1.
       25    1    1    2    0    0  2.19661236209E+02 -1.72913436223E+02 -2.64767038297E+02  4.04816871793E+02  1.25000000000E+02 0.00000000000E+00  1.
       -6    2    1    2    0  501 -2.16163246173E+02  1.72549472774E+02 -4.16011616799E+02  5.25783472121E+02  1.63959521509E+02 0.00000000000E+00  1.
        2    1    1    2  502    0 -3.49799003607E+00  3.63963449885E-01 -2.56524022767E+02  2.56548129326E+02  5.39479660939E-06 0.00000000000E+00  1.
       -5    1    4    4    0  501 -1.23861744185E+02  1.53289118008E+02 -2.74529908143E+02  3.37977097356E+02  4.75000000000E+00 0.00000000000E+00  1.
      -24    2    4    4    0    0 -9.23015019883E+01  1.92603547659E+01 -1.41481708656E+02  1.87806374766E+02  7.97723760666E+01 0.00000000000E+00  1.
       13    1    7    7    0    0 -6.86108729389E+01  3.27807136028E+00 -1.43566740065E+02  1.59152812272E+02  1.05659999987E-01 0.00000000000E+00  1.
      -14    1    7    7    0    0 -2.36906290494E+01  1.59822834057E+01  2.08503140807E+00  2.86535624939E+01  1.96220627086E-06 0.00000000000E+00  1.
</event>
<event>
 9 111   1.0000000E+00   3.1250000E+01   7.8125000E-03   1.5660620E-01
       -2   -1    0    0    0  502  0.00000000000E+00  0.00000000000E+00  3.52282722568E+02  3.52282722568E+02  0.00000000000E+00 0.00000000000E+00  1.
       -5   -1    0    0    0  501  0.00000000000E+00  0.00000000000E+00 -1.16593957878E+03  1.16593957878E+03  0.00000000000E+00 0.00000000000E+00  1.
       25    1    1    2    0    0  4.57378341711E+01 -1.22207144944E+02 -7.60309513771E+02  7.81487103208E+02  1.25000000000E+02 0.00000000000E+00  1.
       -6    2    1    2    0  501 -1.62242199826E+02  1.54772644375E+02 -3.30512378185E+02  4.34321183894E+02  1.70643944501E+02 0.00000000000E+00  1.
       -1    1    1    2    0  502  1.16504365654E+02 -3.25654994310E+01  2.77165035747E+02  3.02414014243E+02  1.26519195189E-05 0.00000000000E+00  1.
       -5    1    4    4    0  501 -1.46110847944E+02  1.28016743466E+02 -2.37058889455E+02  3.06522668108E+02  4.75000000000E+00 0.00000000000E+00  1.
      -24    2    4    4    0    0 -1.61313518820E+01  2.67559009094E+01 -9.34534887298E+01  1.27798515786E+02  8.13806324281E+01 0.00000000000E+00  1.
        3    1    7    7  704    0 -1.01797649041E+01  1.33463791149E+01  1.24405157908E+01  2.08930582281E+01  4.76837158203E-07 0.00000000000E+00  1.
       -4    1    7    7    0  704 -5.95158697789E+00  1.34095217945E+01 -1.05894004521E+02  1.06905457558E+02  1.34869915235E-06 0.00000000000E+00  1.
</event>
<event>
 9 111   1.0000000E+00   3.1250000E+01   7.8125000E-03   1.5660620E-01
       -5   -1    0    0    0  501  0.00000000000E+00  0.00000000000E+00  5.24623802313E+02  5.24623802313E+02  0.00000000000E+00 0.00000000000E+00  1.
       -2   -1    0    0    0  502  0.00000000000E+00  0.00000000000E+00 -1.41363995006E+02  1.41363995006E+02  0.00000000000E+00 0.00000000000E+00  1.
       25    1    1    2    0    0 -1.01931688613E+01 -3.33381079321E+01  1.64015232915E+02  2.09144272597E+02  1.25000000000E+02 0.00000000000E+00  1.
       -6    2    1    2    0  501 -5.22065691932E+01  1.96048688818E+01  2.98610456468E+02  3.54954995426E+02  1.83616359062E+02 0.00000000000E+00  1.
       -1    1    1    2    0  502  6.23997380545E+01  1.37332390503E+01 -7.93658820766E+01  1.01888529295E+02  1.34869915235E-06 0.00000000000E+00  1.
       -5    1    4    4    0  501  3.08692901872E+01 -3.66979179312E+01  1.52918287151E+02  1.60331579243E+02  4.75000000000E+00 0.00000000000E+00  1.
      -24    2    4    4    0    0 -8.30758593804E+01  5.63027868130E+01  1.45692169317E+02  1.94623416184E+02  8.11200573965E+01 0.00000000000E+00  1.
        3    1    7    7  704    0 -4.72605854256E+01 -1.14651790145E+01  3.47228175666E+01  5.97552284271E+01  8.25906184945E-07 0.00000000000E+00  1.
       -4    1    7    7    0  704 -3.58152739547E+01  6.77679658275E+01  1.10969351751E+02  1.34868187757E+02  2.33601545599E-06 0.00000000000E+00  1.
</event>
<event>
 9 111   1.0000000E+00   3.1250000E+01   7.8125000E-03   1.5660620E-01
       -2   -1    0    0    0  502  0.00000000000E+00  0.00000000000E+00  4.08751826728E+02  4.08751826728E+02  0.00000000000E+00 0.00000000000E+00  1.
       -5   -1    0    0    0  501  0.00000000000E+00  0.00000000000E+00 -2.15725198464E+02  2.15725198464E+02  0.00000000000E+00 0.00000000000E+00  1.
       25    1    1    2    0    0 -6.19907538506E+01  1.48096763966E+02 -9.71300869043E+01  2.25465648919E+02  1.25000000000E+02 0.00000000000E+00  1.
       -6    2    1    2    0  501  8.88584729956E+01 -1.08805685168E+02  2.20606203929E+02  3.14732453529E+02  1.75085449837E+02 0.00000000000E+00  1.
       -1    1    1    2    0  502 -2.68677191450E+01 -3.92910787982E+01  6.95505112400E+01  8.42789227442E+01  0.00000000000E+00 0.00000000000E+00  1.
       -5    1    4    4    0  501  8.26314063545E+01 -9.87135903126E+01  1.87504914162E+02  2.27492807718E+02  4.75000000000E+00 0.00000000000E+00  1.
      -24    2    4    4    0    0  6.22706664109E+00 -1.00920948554E+01  3.31012897670E+01  8.72396458112E+01  7.98400505981E+01 0.00000000000E+00  1.
        1    1    7    7  704    0 -9.22630770014E-01 -3.80428962861E+01 -6.12726402504E+00  3.85442157762E+01  1.43794275305E-06 0.00000000000E+00  1.
       -4    1    7    7    0  704  7.14969741110E+00  2.79508014306E+01  3.92285537920E+01  4.86954300350E+01  1.43051147461E-06 0.00000000000E+00  1.
</event>
<event>
 9 111   1.0000000E+00   3.1250000E+01   7.8125000E-03   1.5660620E-01
       -5   -1    0    0    0  501  0.00000000000E+00  0.00000000000E+00  1.33885616751E+03  1.33885616751E+03  0.00000000000E+00 0.00000000000E+00  1.
       -2   -1    0    0    0  502  0.00000000000E+00  0.00000000000E+00 -3.99474572382E+02  3.99474572382E+02  0.00000000000E+00 0.00000000000E+00  1.
       25    1    1    2    0    0  1.23906369495E+02  1.39707370239E+02  1.76218939256E+02  2.85567946824E+02  1.25000000000E+02 0.00000000000E+00  1.
       -6    2    1    2    0  501  2.03427479741E+02  1.25975608139E+01  9.90716229576E+02  1.02600188837E+03  1.72104007323E+02 0.00000000000E+00  1.
       -1    1    1    2    0  502 -3.27333849237E+02 -1.52304931053E+02 -2.27553573701E+02  4.26760904704E+02  2.10673542351E-05 0.00000000000E+00  1.
       -5    1    4    4    0  501  1.70920248263E+02  3.45814578676E+01  6.66956136491E+02  6.89392964134E+02  4.74999999997E+00 0.00000000000E+00  1.
      -24    2    4    4    0    0  3.25072314782E+01 -2.19838970537E+01  3.23760093085E+02  3.36608924234E+02  8.33364156374E+01 0.00000000000E+00  1.
       11    1    7    7    0    0 -1.75756788501E+01  1.99109883716E+01  8.25292323732E+01  8.66973248800E+01  5.10989698439E-04 0.00000000000E+00  1.
      -12    1    7    7    0    0  5.00829103283E+01 -4.18948854253E+01  2.41230860712E+02  2.49911599354E+02  2.69739830470E-06 0.00000000000E+00  1.
</event>
<event>
 9 111   1.0000000E+00   3.1250000E+01   7.8125000E-03   1.5660620E-01
       -5   -1    0    0    0  501  0.00000000000E+00  0.00000000000E+00  7.89642546073E+02  7.89642546073E+02  0.00000000000E+00 0.00000000000E+00  1.
        1   -1    0    0  502    0  0.00000000000E+00  0.00000000000E+00 -1.24431928431E+03  1.24431928431E+03  0.00000000000E+00 0.00000000000E+00  1.
       25    1    1    2    0    0 -2.54632239603E+02 -6.03400420721E+01  2.27811658069E+02  3.68784014939E+02  1.25000000000E+02 0.00000000000E+00  1.
       -6    2    1    2    0  501 -3.42173595108E+02 -4.66087116968E+01  3.14300605094E+02  4.98471531244E+02  1.74453019185E+02 0.00000000000E+00  1.
        2    1    1    2  502    0  5.96805834711E+02  1.06948753769E+02 -9.96789001399E+02  1.16670628420E+03  1.86881236479E-05 0.00000000000E+00  1.
       -5    1    4    4    0  501 -1.94138021057E+02  3.46176645474E+01  1.91144757735E+02  2.74675872308E+02  4.75000000000E+00 0.00000000000E+00  1.
      -24    2    4    4    0    0 -1.48035574052E+02 -8.12263762442E+01  1.23155847359E+02  2.23795658936E+02  8.00304869237E+01 0.00000000000E+00  1.
       13    1    7    7    0    0 -1.29604291945E+02 -4.44227604537E+01  6.27335194795E+01  1.50685632252E+02  1.05659999987E-01 0.00000000000E+00  1.
      -14    1    7    7    0    0 -1.84312821070E+01 -3.68036157905E+01  6.04223278796E+01  7.31100266841E+01  1.50789149292E-06 0.00000000000E+00  1.
</event>
<event>
 9 111   1.0000000E+00   3.1250000E+01   7.8125000E-03   1.5660620E-01
        3   -1    0    0  502    0  0.00000000000E+00  0.00000000000E+00  5.16059056104E+02  5.16059056104E+02  0.00000000000E+00 0.00000000000E+00  1.
       -5   -1    0    0    0  501  0.00000000000E+00  0.00000000000E+00 -3.86342481421E+02  3.86342481421E+02  0.00000000000E+00 0.00000000000E+00  1.
       25    1    1    2    0    0  4.96847509780E+01  1.39256143783E+02 -2.32825002448E+02  3.02809064967E+02  1.25000000000E+02 0.00000000000E+00  1.
       -6    2    1    2    0  501 -2.37367485285E+01 -1.39486394635E+02 -1.14553206435E+01  2.24696445116E+02  1.74176291607E+02 0.00000000000E+00  1.
        4    1    1    2  502    0 -2.59480024495E+01  2.30250851398E-01  3.73996897775E+02  3.74896027442E+02  5.39479660939E-06 0.00000000000E+00  1.
       -5    1    4    4    0  501  1.02304617257E+01 -4.66500048912E+01 -7.12882200981E+01  8.59386881924E+01  4.75000000000E+00 0.00000000000E+00  1.
      -24    2    4    4    0    0 -3.39672102542E+01 -9.28363897433E+01  5.98328994546E+01  1.38757756924E+02  7.68203919302E+01 0.00000000000E+00  1.
        3    1    7    7  704    0 -4.51510866145E+01 -2.10338820771E+01  3.87052576237E+01  6.30804390078E+01  1.34869915235E-06 0.00000000000E+00  1.
       -4    1    7    7    0  704  1.11838763602E+01 -7.18025076662E+01  2.11276418309E+01  7.56773179159E+01  1.03924249257E-06 0.00000000000E+00  1.
</event>
<event>
 9 111   1.0000000E+00   3.1250000E+01   7.8125000E-03   1.5660620E-01
       -5   -1    0    0    0  501  0.00000000000E+00  0.00000000000E+00  9.94793046210E+01  9.94793046210E+01  0.00000000000E+00 0.00000000000E+00  1.
        1   -1    0    0  502    0  0.00000000000E+00  0.00000000000E+00 -3.84627477023E+02  3.84627477023E+02  0.00000000000E+00 0.00000000000E+00  1.
       25    1    1    2    0    0  3.92597731149E+01 -5.51586546640E+01 -9.20920228682E+01  1.69380481890E+02  1.25000000000E+02 0.00000000000E+00  1.
       -6    2    1    2    0  501 -3.95921749673E+01  6.08058796156E+01 -8.70848663803E+01  2.08604131976E+02  1.75120000601E+02 0.00000000000E+00  1.
        2    1    1    2  502    0  3.32401852378E-01 -5.64722495157E+00 -1.05971283153E+02  1.06122167777E+02  1.90734863281E-06 0.00000000000E+00  1.
       -5    1    4    4    0  501  1.11089268647E+01  8.81398132908E+01 -2.71127724450E+01  9.30037626802E+01  4.75000000000E+00 0.00000000000E+00  1.
      -24    2    4    4    0    0 -5.07011018320E+01 -2.73339336752E+01 -5.99720939353E+01  1.15600369296E+02  8.03059628746E+01 0.00000000000E+00  1.
        1    1    7    7  704    0 -2.81017450348E+01  2.75469446831E+01 -2.67566087045E+01  4.75863251863E+01  8.25906184945E-07 0.00000000000E+00  1.
       -2    1    7    7    0  704 -2.25993567973E+01 -5.48808783583E+01 -3.32154852308E+01  6.80140441096E+01  1.16800772800E-06 0.00000000000E+00  1.
</event>
<event>
 9 111   1.0000000E+00   3.1250000E+01   7.8125000E-03   1.5660620E-01
       -5   -1    0    0    0  501  0.00000000000E+00  0.00000000000E+00  8.39639218825E+01  8.39639218825E+01  0.00000000000E+00 0.00000000000E+00  1.
        1   -1    0    0  502    0  0.00000000000E+00  0.00000000000E+00 -1.56825140363E+03  1.56825140363E+03  0.00000000000E+00 0.00000000000E+00  1.
       25    1    1    2    0    0  8.20124466063E+01 -6.96744483145E+01 -1.98659489943E+02  2.58207596888E+02  1.25000000000E+02 0.00000000000E+00  1.
       -6    2    1    2    0  501 -2.07648016506E+01  8.41244849652E+01 -1.21474814168E+02  2.28154951224E+02  1.72599088447E+02 0.00000000000E+00  1.
        2    1    1    2  502    0 -6.12476449557E+01 -1.44500366507E+01 -1.16415317763E+03  1.16585277740E+03  2.15791864376E-05 0.00000000000E+00  1.
       -5    1    4    4    0  501  8.56944400043E+00  6.33192577710E+01  1.48678926167E+01  6.57752271452E+01  4.75000000000E+00 0.00000000000E+00  1.
      -24    2    4    4    0    0 -2.93342456510E+01  2.08052271942E+01 -1.36342706785E+02  1.62379724079E+02  8.05263040997E+01 0.00000000000E+00  1.
        1    1    7    7  704    0 -2.99742738067E+01  3.77809606547E+01 -1.37140480481E+02  1.45373207521E+02  1.90734863281E-06 0.00000000000E+00  1.
       -2    1    7    7    0  704  6.40028155645E-01 -1.69757334605E+01  7.97773696580E-01  1.70065165579E+01  1.18985562191E-06 0.00000000000E+00  1.
</event>
<event>
 9 111   1.0000000E+00   3.1250000E+01   7.8125000E-03   1.5660620E-01
       -5   -1    0    0    0  501  0.00000000000E+00  0.00000000000E+00  8.59668016902E+02  8.59668016902E+02  0.00000000000E+00 0.00000000000E+00  1.
       -2   -1    0    0    0  502  0.00000000000E+00  0.00000000000E+00 -2.15373890503E+02  2.15373890503E+02  0.00000000000E+00 0.00000000000E+00  1.
       25    1    1    2    0    0  3.37579717960E+01  4.70501712881E+01  3.07338679643E+02  3.36801697268E+02  1.25000000000E+02 0.00000000000E+00  1.
       -6    2    1    2    0  501 -5.53169799124E+01 -6.06556581025E+01  5.19627550689E+02  5.53797813553E+02  1.73032221664E+02 0.00000000000E+00  1.
       -1    1    1    2    0  502  2.15590081164E+01  1.36054868144E+01 -1.82672103933E+02  1.84442396584E+02  1.32144989591E-05 0.00000000000E+00  1.
       -5    1    4    4    0  501 -6.68999035760E+01 -5.01382072475E+00  3.52180033184E+02  3.58544381869E+02  4.75000000000E+00 0.00000000000E+00  1.
      -24    2    4    4    0    0  1.15829236636E+01 -5.56418373777E+01  1.67447517505E+02  1.95253431683E+02  8.27952491275E+01 0.00000000000E+00  1.
       13    1    7    7    0    0  3.74218945783E+01  2.35496487236E-01  7.98780476280E+01  8.82097914595E+01  1.05660000000E-01 0.00000000000E+00  1.
      -14    1    7    7    0    0 -2.58389709148E+01 -5.58773338650E+01  8.75694698774E+01  1.07043640224E+02  1.90734863281E-06 0.00000000000E+00  1.
</event>
<event>
 9 111   1.0000000E+00   3.1250000E+01   7.8125000E-03   1.5660620E-01
        3   -1    0    0  502    0  0.00000000000E+00  0.00000000000E+00  1.11388885213E+03  1.11388885213E+03  0.00000000000E+00 0.00000000000E+00  1.
       -5   -1    0    0    0  501  0.00000000000E+00  0.00000000000E+00 -1.21652039469E+02  1.21652039469E+02  0.00000000000E+00 0.00000000000E+00  1.
       25    1    1    2    0    0  1.65844705116E+01 -7.30810143668E+01  4.18819247108E+01  1.51640940845E+02  1.25000000000E+02 0.00000000000E+00  1.
       -6    2    1    2    0  501 -9.97060758567E+01  1.06480858338E+02  1.34610009169E+02  2.63251147604E+02  1.72921477530E+02 0.00000000000E+00  1.
        4    1    1    2  502    0  8.31216053450E+01 -3.33998439709E+01  8.15744878785E+02  8.20648803153E+02  0.00000000000E+00 0.00000000000E+00  1.
       -5    1    4    4    0  501  2.04178478158E+01  2.48883616736E+01  8.24850298755E+01  8.86716511056E+01  4.75000000000E+00 0.00000000000E+00  1.
      -24    2    4    4    0    0 -1.20123923672E+02  8.15924966641E+01  5.21249792936E+01  1.74579496498E+02  8.16939078564E+01 0.00000000000E+00  1.
        3    1    7    7  704    0  5.36549982467E+00 -9.79164677648E+00  5.77432153063E+00  1.25701123345E+01  1.66893005371E-06 0.00000000000E+00  1.
       -4    1    7    7    0  704 -1.25489423497E+02  9.13841434406E+01  4.63506577629E+01  1.62009384164E+02  3.16297987972E-06 0.00000000000E+00  1.
</event>
<event>
 9 111   1.0000000E+00   3.1250000E+01   7.8125000E-03   1.5660620E-01
       -5   -1    0    0    0  501  0.00000000000E+00  0.00000000000E+00  8.63739418534E+01  8.63739418534E+01  0.00000000000E+00 0.00000000000E+00  1.
        1   -1    0    0  502    0  0.00000000000E+00  0.00000000000E+00 -9.38794868105E+02  9.38794868105E+02  0.00000000000E+00 0.00000000000E+00  1.
       25    1    1    2    0    0 -6.09874402058E+01 -8.79868051605E+01 -9.18801004841E+01  1.88488988034E+02  1.25000000000E+02 0.00000000000E+00  1.
       -6    2    1    2    0  501  3.03180449817E+01  1.25916583023E+02 -2.68836585047E+02  3.42562082722E+02  1.68230500585E+02 0.00000000000E+00  1.
        2    1    1    2  502    0  3.06693952241E+01 -3.79297778627E+01 -4.91704240721E+02  4.94117739203E+02  1.07895932188E-05 0.00000000000E+00  1.
       -5    1    4    4    0  501 -3.79657865950E+01  2.86334299166E+01 -1.44111050385E+02  1.51828296453E+02  4.75000000000E+00 0.00000000000E+00  1.
      -24    2    4    4    0    0  6.82838315767E+01  9.72831531066E+01 -1.24725534662E+02  1.90733786269E+02  8.18304631214E+01 0.00000000000E+00  1.
        1    1    7    7  704    0  4.11334071749E+01  1.80155369188E+01 -8.89197029969E+01  9.96154121476E+01  9.53674316406E-07 0.00000000000E+00  1.
       -2    1    7    7    0  704  2.71504244018E+01  7.92676161878E+01 -3.58058316648E+01  9.11183741213E+01  6.74349576174E-07 0.00000000000E+00  1.
</event>
<event>
 9 111   1.0000000E+00   3.1250000E+01   7.8125000E-03   1.5660620E-01
       -5   -1    0    0    0  501  0.00000000000E+00  0.00000000000E+00  7.17025053430E+02  7.17025053430E+02  0.00000000000E+00 0.00000000000E+00  1.
       -2   -1    0    0    0  502  0.00000000000E+00  0.00000000000E+00 -2.42987985680E+02  2.42987985680E+02  0.00000000000E+00 0.00000000000E+00  1.
       25    1    1    2    0    0  7.83111032897E+01  1.93324109746E+02  2.22882140141E+02  3.29861014219E+02  1.25000000000E+02 0.00000000000E+00  1.
       -6    2    1    2    0  501 -8.02702853067E+01  9.12236641952E+01  2.76580246983E+02  3.44463871628E+02  1.65510272259E+02 0.00000000000E+00  1.
       -1    1    1    2    0  502  1.95918201694E+00 -2.84547773942E+02 -2.54253193746E+01  2.85688153263E+02  6.27181360148E-06 0.00000000000E+00  1.
       -5    1    4    4    0  501 -1.90919234749E+01  4.81779242741E+01  6.13616210014E+00  5.24006575784E+01  4.75000000000E+00 0.00000000000E+00  1.
      -24    2    4    4    0    0 -6.11783618318E+01  4.30457399211E+01  2.70444084883E+02  2.92063214049E+02  8.10258617412E+01 0.00000000000E+00  1.
        3    1    7    7  704    0 -1.80268982574E+01  3.85587129069E+01  2.25930358163E+02  2.29904915436E+02  2.69739830470E-06 0.00000000000E+00  1.
       -4    1    7    7    0  704 -4.31514635744E+01  4.48702701417E+00  4.45137267195E+01  6.21582986133E+01  9.53674316406E-07 0.00000000000E+00  1.
</event>
<event>
 9 111   1.0000000E+00   3.1250000E+01   7.8125000E-03   1.5660620E-01
        3   -1    0    0  502    0  0.00000000000E+00  0.00000000000E+00  3.81607373814E+03  3.81607373814E+03  0.00000000000E+00 0.00000000000E+00  1.
       -5   -1    0    0    0  501  0.00000000000E+00  0.00000000000E+00 -3.64833335334E+01  3.64833335334E+01  0.00000000000E+00 0.00000000000E+00  1.
       25    1    1    2    0    0  6.94268021945E+01 -4.40999115028E+01  3.50913579713E+02  3.81484237531E+02  1.25000000000E+02 0.00000000000E+00  1.
       -6    2    1    2    0  501  6.67940459273E+00  1.83971733832E+02  8.29477170132E+02  8.67000038174E+02  1.72529641301E+02 0.00000000000E+00  1.
        4    1    1    2  502    0 -7.61062067873E+01 -1.39871822329E+02  2.59919965476E+03  2.60407279597E+03  3.05175781250E-05 0.00000000000E+00  1.
       -5    1    4    4    0  501  1.79397585545E+01  1.56966322632E+02  4.31165671848E+02  4.59223976354E+02  4.74999999999E+00 0.00000000000E+00  1.
      -24    2    4    4    0    0 -1.12603539617E+01  2.70054112001E+01  3.98311498284E+02  4.07776061820E+02  8.22993263813E+01 0.00000000000E+00  1.
       11    1    7    7    0    0 -1.63472985148E+01  2.86834481180E+01  5.31243147296E+01  6.25473195303E+01  5.10980799017E-04 0.00000000000E+00  1.
      -12    1    7    7    0    0  5.08694455306E+00 -1.67803691797E+00  3.45187183554E+02  3.45228742290E+02  6.60724947956E-06 0.00000000000E+00  1.
</event>
<event>
 9 111   1.0000000E+00   3.1250000E+01   7.8125000E-03   1.5660620E-01
       -5   -1    0    0    0  501  0.00000000000E+00  0.00000000000E+00  3.98880952228E+02  3.98880952228E+02  0.00000000000E+00 0.00000000000E+00  1.
        1   -1    0    0  502    0  0.00000000000E+00  0.00000000000E+00 -7.69314437584E+01  7.69314437584E+01  0.00000000000E+00 0.00000000000E+00  1.
       25    1    1    2    0    0  2.08087252906E+01  1.07601813772E+01  9.10084444953E+01  1.56385170400E+02  1.25000000000E+02 0.00000000000E+00  1.
       -6    2    1    2    0  501  1.58638709089E+01 -3.15398145959E+01  1.99063987882E+02  2.66580083290E+02  1.73758588940E+02 0.00000000000E+00  1.
        2    1    1    2  502    0 -3.66725961995E+01  2.07796332187E+01  3.18770760916E+01  5.28471422961E+01  9.53674316406E-07 0.00000000000E+00  1.
       -5    1    4    4    0  501 -6.78417859638E+00  3.17865650183E+01 -8.44500522915E+00  3.39159462232E+01  4.75000000000E+00 0.00000000000E+00  1.
      -24    2    4    4    0    0  2.26480495052E+01 -6.33263796143E+01  2.07508993112E+02  2.32664137067E+02  8.09286967249E+01 0.00000000000E+00  1.
        3    1    7    7  704    0  6.34125786431E+00  2.58419739446E+00 -5.69710424330E+00  8.90767221188E+00  4.45243105816E-06 0.00000000000E+00  1.
       -4    1    7    7    0  704  1.63067916409E+01 -6.59105770087E+01  2.13206097355E+02  2.23756464855E+02  4.67203091199E-06 0.00000000000E+00  1.
</event>
<event>
 9 111   1.0000000E+00   3.1250000E+01   7.8125000E-03   1.5660620E-01
        1   -1    0    0  502    0  0.00000000000E+00  0.00000000000E+00  1.12721795632E+03  1.12721795632E+03  0.00000000000E+00 0.00000000000E+00  1.
       -5   -1    0    0    0  501  0.00000000000E+00  0.00000000000E+00 -2.82679419346E+02  2.82679419346E+02  0.00000000000E+00 0.00000000000E+00  1.
       25    1    1    2    0    0  8.31153275801E+00 -3.31914685214E+01 -1.88805393184E+02  2.29004872556E+02  1.25000000000E+02 0.00000000000E+00  1.
       -6    2    1    2    0  501 -3.97696715477E+00 -5.21798451245E+00  3.27637194131E+01  1.79565966621E+02  1.76429678424E+02 0.00000000000E+00  1.
        2    1    1    2  502    0 -4.33456560324E+00  3.84094530339E+01  1.00058021074E+03  1.00132653649E+03  1.52587890625E-05 0.00000000000E+00  1.
       -5    1    4    4    0  501  1.98819737098E+01 -6.72370893390E+01  2.24202163034E+00  7.03115084632E+01  4.75000000000E+00 0.00000000000E+00  1.
      -24    2    4    4    0    0 -2.38589408645E+01  6.20191048266E+01  3.05216977828E+01  1.09254458158E+02  8.11747754489E+01 0.00000000000E+00  1.
       13    1    7    7    0    0 -2.50941416069E+01  5.29171665212E+01 -1.68967797561E+01  6.09545304779E+01  1.05660000002E-01 0.00000000000E+00  1.
      -14    1    7    7    0    0  1.23520074233E+00  9.10193830539E+00  4.74184775389E+01  4.82999276800E+01  6.74349576174E-07 0.00000000000E+00  1.
</event>
<event>
 9 111   1.0000000E+00   3.1250000E+01   7.8125000E-03   1.5660620E-01
        1   -1    0    0  502    0  0.00000000000E+00  0.00000000000E+00  5.12277883802E+02  5.12277883802E+02  0.00000000000E+00 0.00000000000E+00  1.
       -5   -1    0    0    0  501  0.00000000000E+00  0.00000000000E+00 -8.49693408126E+01  8.49693408126E+01  0.00000000000E+00 0.00000000000E+00  1.
       25    1    1    2    0    0  6.91570407687E+01  2.96101215733E+01  4.16156888153E+01  1.51711308554E+02  1.25000000000E+02 0.00000000000E+00  1.
       -6    2    1    2    0  501 -7.99724280344E+01 -2.44344317233E+01  2.72319182988E+02  3.31529996542E+02  1.69592955292E+02 0.00000000000E+00  1.
        2    1    1    2  502    0  1.08153872657E+01 -5.17568985005E+00  1.13373671186E+02  1.14005919519E+02  0.00000000000E+00 0.00000000000E+00  1.
       -5    1    4    4    0  501  1.76631783697E+01 -1.26727978508E+01  1.62622917394E+02  1.64138244896E+02  4.75000000000E+00 0.00000000000E+00  1.
      -24    2    4    4    0    0 -9.76356064040E+01 -1.17616338725E+01  1.09696265593E+02  1.67391751647E+02  7.94712537016E+01 0.00000000000E+00  1.
        1    1    7    7  704    0 -3.63296114099E+01 -4.21126545766E+01  6.55968591990E+01  8.60015364831E+01  1.34869915235E-06 0.00000000000E+00  1.
       -2    1    7    7    0  704 -6.13059949941E+01  3.03510207041E+01  4.40994063945E+01  8.13902151634E+01  1.26159253648E-06 0.00000000000E+00  1.
</event>
<event>
 9 111   1.0000000E+00   3.1250000E+01   7.8125000E-03   1.5660620E-01
       -5   -1    0    0    0  501  0.00000000000E+00  0.00000000000E+00  1.07571103198E+02  1.07571103198E+02  0.00000000000E+00 0.00000000000E+00  1.
        1   -1    0    0  502    0  0.00000000000E+00  0.00000000000E+00 -5.77563425843E+02  5.77563425843E+02  0.00000000000E+00 0.00000000000E+00  1.
       25    1    1    2    0    0 -1.65066595369E+01  3.63060540779E+01 -1.07691082331E+02  1.69743832246E+02  1.25000000000E+02 0.00000000000E+00  1.
       -6    2    1    2    0  501  7.80491408935E+01  9.58432024980E+01 -1.59712190589E+02  2.65804587218E+02  1.72819289734E+02 0.00000000000E+00  1.
        2    1    1    2  502    0 -6.15424813567E+01 -1.32149256576E+02 -2.02589049725E+02  2.49586109577E+02  4.67203091199E-06 0.00000000000E+00  1.
       -5    1    4    4    0  501  1.04405914020E+02  6.63194443908E+01 -1.02308864826E+02  1.60588075238E+02  4.75000000000E+00 0.00000000000E+00  1.
      -24    2    4    4    0    0 -2.63567731269E+01  2.95237581072E+01 -5.74033257635E+01  1.05216511980E+02  7.87974669780E+01 0.00000000000E+00  1.
       11    1    7    7    0    0 -8.69752137994E+00 -2.48504351012E+01 -3.50379469713E+01  4.38274883047E+01  5.10999932583E-04 0.00000000000E+00  1.
      -12    1    7    7    0    0 -1.76592517470E+01  5.43741932084E+01 -2.23653787922E+01  6.13890236756E+01  2.38418579102E-07 0.00000000000E+00  1.
</event>
<event>
 9 111   1.0000000E+00   3.1250000E+01   7.8125000E-03   1.5660620E-01
       -5   -1    0    0    0  501  0.00000000000E+00  0.00000000000E+00  2.15755447931E+02  2.15755447931E+02  0.00000000000E+00 0.00000000000E+00  1.
        1   -1    0    0  502    0  0.00000000000E+00  0.00000000000E+00 -1.68070018801E+03  1.68070018801E+03  0.00000000000E+00 0.00000000000E+00  1.
       25    1    1    2    0    0  1.69876360099E+02 -1.52618736166E+01  1.17811689606E+02  2.42065067109E+02  1.25000000000E+02 0.00000000000E+00  1.
       -6    2    1    2    0  501 -1.21378972318E+02 -1.18543994563E+02 -4.33785426454E+02  4.96638275272E+02  1.72320186550E+02 0.00000000000E+00  1.
        2    1    1    2  502    0 -4.84973877801E+01  1.33805868180E+02 -1.14897100323E+03  1.15775229356E+03  3.05175781250E-05 0.00000000000E+00  1.
       -5    1    4    4    0  501 -7.71104860711E+01 -1.10552099584E+02 -1.91203657635E+02  2.33985458902E+02  4.75000000000E+00 0.00000000000E+00  1.
      -24    2    4    4    0    0 -4.42684862474E+01 -7.99189497939E+00 -2.42581768820E+02  2.62652816370E+02  9.00944955227E+01 0.00000000000E+00  1.
        3    1    7    7  704    0 -4.26765180063E+01 -4.03276547283E+01 -2.04027512820E+02  2.12308339244E+02  4.67203091199E-06 0.00000000000E+00  1.
       -4    1    7    7    0  704 -1.59196824108E+00  3.23357597489E+01 -3.85542560000E+01  5.03444771264E+01  1.71926082395E-06 0.00000000000E+00  1.
</event>
<event>
 9 111   1.0000000E+00   3.1250000E+01   7.8125000E-03   1.5660620E-01
       -5   -1    0    0    0  501  0.00000000000E+00  0.00000000000E+00  3.40436755614E+02  3.40436755614E+02  0.00000000000E+00 0.00000000000E+00  1.
        1   -1    0    0  502    0  0.00000000000E+00  0.00000000000E+00 -3.84354624696E+02  3.84354624696E+02  0.00000000000E+00 0.00000000000E+00  1.
       25    1    1    2    0    0 -1.00989852141E+01 -4.86440036241E+01  1.44843378235E+02  1.97668492202E+02  1.25000000000E+02 0.00000000000E+00  1.
       -6    2    1    2    0  501 -3.17817650093E+01  4.23073662303E+01  1.12779964265E+02  2.22621241979E+02  1.84501770225E+02 0.00000000000E+00  1.
        2    1    1    2  502    0  4.18807502234E+01  6.33663739382E+00 -3.01541211582E+02  3.04501646128E+02  3.81469726562E-06 0.00000000000E+00  1.
       -5    1    4    4    0  501  2.63230589141E+01  4.74644331142E+01  1.11490998134E+02  1.24091019040E+02  4.75000000000E+00 0.00000000000E+00  1.
      -24    2    4    4    0    0 -5.81048239234E+01 -5.15706688385E+00  1.28896613068E+00  9.85302229391E+01  7.93963317586E+01 0.00000000000E+00  1.
        1    1    7    7  704    0  1.70695503562E+01 -9.44085082700E+00 -1.07579305289E+01  2.22762717474E+01  1.95880850853E-06 0.00000000000E+00  1.
       -2    1    7    7    0  704 -7.51743742797E+01  4.28378394315E+00  1.20468966596E+01  7.62539511916E+01  1.71097518139E-06 0.00000000000E+00  1.
</event>
<event>
 9 111   1.0000000E+00   3.1250000E+01   7.8125000E-03   1.5660620E-01
        3   -1    0    0  502    0  0.00000000000E+00  0.00000000000E+00  2.33072103992E+03  2.33072103992E+03  0.00000000000E+00 0.00000000000E+00  1.
       -5   -1    0    0    0  501  0.00000000000E+00  0.00000000000E+00 -6.72024176030E+01  6.72024176030E+01  0.00000000000E+00 0.00000000000E+00  1.
       25    1    1    2    0    0  2.64654672389E+01 -1.52821126923E+02  1.39691324338E+02  2.43296904801E+02  1.25000000000E+02 0.00000000000E+00  1.
       -6    2    1    2    0  501  7.04588266445E+00  1.77337176975E+02  1.01235003527E+03  1.04237399471E+03  1.73760847548E+02 0.00000000000E+00  1.
        4    1    1    2  502    0 -3.35113499034E+01 -2.45160500517E+01  1.11147726271E+03  1.11225255801E+03  1.52587890625E-05 0.00000000000E+00  1.
       -5    1    4    4    0  501  5.20749263274E+00 -1.13257782997E+01  4.83114323808E+00  1.41878003440E+01  4.75000000003E+00 0.00000000000E+00  1.
      -24    2    4    4    0    0  1.83839003171E+00  1.88662955275E+02  1.00751889203E+03  1.02818619437E+03  8.04701318282E+01 0.00000000000E+00  1.
        3    1    7    7  704    0 -1.61574078800E+01  1.82933357954E+02  8.54849339537E+02  8.74352942803E+02  1.52587890625E-05 0.00000000000E+00  1.
       -4    1    7    7    0  704  1.79957979117E+01  5.72959732063E+00  1.52669552497E+02  1.53833251567E+02  1.16019487959E-05 0.00000000000E+00  1.
</event>
<event>
 9 111   1.0000000E+00   3.1250000E+01   7.8125000E-03   1.5660620E-01
        1   -1    0    0  502    0  0.00000000000E+00  0.00000000000E+00  4.61253847204E+03  4.61253847204E+03  0.00000000000E+00 0.00000000000E+00  1.
       -5   -1    0    0    0  501  0.00000000000E+00  0.00000000000E+00 -1.30331670744E+02  1.30331670744E+02  0.00000000000E+00 0.00000000000E+00  1.
       25    1    1    2    0    0 -2.06807670904E+02  1.52229778073E+02  2.31397836963E+02  3.67577579604E+02  1.25000000000E+02 0.00000000000E+00  1.
       -6    2    1    2    0  501  1.09753806413E+02 -1.53991010610E+02  2.05051404882E+02  3.28370673101E+02  1.73268840065E+02 0.00000000000E+00  1.
        2    1    1    2  502    0  9.70538644907E+01  1.76123253797E+00  4.04575755945E+03  4.04692189008E+03  8.63167457503E-05 0.00000000000E+00  1.
       -5    1    4    4    0  501  2.56154675963E+01  3.86868890476E+00 -1.68030563662E+01  3.12413850087E+01  4.75000000000E+00 0.00000000000E+00  1.
      -24    2    4    4    0    0  8.41383388169E+01 -1.57859699515E+02  2.21854461249E+02  2.97129288092E+02  8.40682286979E+01 0.00000000000E+00  1.
        3    1    7    7  704    0  7.59748390553E+01 -5.54944044339E+01  1.20092400878E+02  1.52558152327E+02  0.00000000000E+00 0.00000000000E+00  1.
       -4    1    7    7    0  704  8.16349976163E+00 -1.02365295081E+02  1.01762060371E+02  1.44571135765E+02  1.90734863281E-06 0.00000000000E+00  1.
</event>
<event>
 9 111   1.0000000E+00   3.1250000E+01   7.8125000E-03   1.5660620E-01
       -5   -1    0    0    0  501  0.00000000000E+00  0.00000000000E+00  1.45140118445E+02  1.45140118445E+02  0.00000000000E+00 0.00000000000E+00  1.
        1   -1    0    0  502    0  0.00000000000E+00  0.00000000000E+00 -5.58026584004E+02  5.58026584004E+02  0.00000000000E+00 0.00000000000E+00  1.
       25    1    1    2    0    0  9.28234670743E+01  2.76094946489E+01  6.04382812402E+00  1.58240349130E+02  1.25000000000E+02 0.00000000000E+00  1.
       -6    2    1    2    0  501 -1.12271398621E+02 -3.51124052881E+01 -1.10648168539E+02  2.35940294745E+02  1.72008887939E+02 0.00000000000E+00  1.
        2    1    1    2  502    0  1.94479315462E+01  7.50291063925E+00 -3.08282125144E+02  3.08986058573E+02  3.81469726562E-06 0.00000000000E+00  1.
       -5    1    4    4    0  501 -1.07948748466E+02  1.55579544946E+01 -7.97401205085E+01  1.35188873663E+02  4.75000000000E+00 0.00000000000E+00  1.
      -24    2    4    4    0    0 -4.32265015407E+00 -5.06703597827E+01 -3.09080480304E+01  1.00751421082E+02  8.12980365825E+01 0.00000000000E+00  1.
       11    1    7    7    0    0 -2.63694340020E+01 -2.77222305783E+01  1.80937769077E+01  4.23232073556E+01  5.10999988203E-04 0.00000000000E+00  1.
      -12    1    7    7    0    0  2.20467838479E+01 -2.29481292045E+01 -4.90018249380E+01  5.84282137266E+01  9.53674316406E-07 0.00000000000E+00  1.
</event>
<event>
 9 111   1.0000000E+00   3.1250000E+01   7.8125000E-03   1.5660620E-01
       -5   -1    0    0    0  501  0.00000000000E+00  0.00000000000E+00  3.19152099096E+01  3.19152099096E+01  0.00000000000E+00 0.00000000000E+00  1.
        1   -1    0    0  502    0  0.00000000000E+00  0.00000000000E+00 -4.63001663499E+03  4.63001663499E+03  0.00000000000E+00 0.00000000000E+00  1.
       25    1    1    2    0    0 -1.02969103592E+02 -3.92787952596E+01 -2.84279715741E+02  3.29523014118E+02  1.25000000000E+02 0.00000000000E+00  1.
       -6    2    1    2    0  501  2.80819162994E+01  1.73002155776E+02 -2.57065586695E+03  2.58251821076E+03  1.74385729617E+02 0.00000000000E+00  1.
        2    1    1    2  502    0  7.48871872928E+01 -1.33723360516E+02 -1.74316584239E+03  1.74989062002E+03  2.15791864376E-05 0.00000000000E+00  1.
       -5    1    4    4    0  501 -2.56158180670E+01  1.05918477545E+02 -1.79878644670E+03  1.80209049088E+03  4.75000000010E+00 0.00000000000E+00  1.
      -24    2    4    4    0    0  5.36977343664E+01  6.70836782308E+01 -7.71869420256E+02  7.80427719876E+02  7.68202933112E+01 0.00000000000E+00  1.
       11    1    7    7    0    0  1.76149222067E+01 -1.63446940648E+01 -1.86860160004E+02  1.88398922251E+02  5.11055549347E-04 0.00000000000E+00  1.
      -12    1    7    7    0    0  3.60828121598E+01  8.34283722956E+01 -5.85009260252E+02  5.92028797626E+02  1.52587890625E-05 0.00000000000E+00  1.
</event>
<event>
 9 111   1.0000000E+00   3.1250000E+01   7.8125000E-03   1.5660620E-01
       -5   -1    0    0    0  501  0.00000000000E+00  0.00000000000E+00  4.56115022723E+02  4.56115022723E+02  0.00000000000E+00 0.00000000000E+00  1.
       -2   -1    0    0    0  502  0.00000000000E+00  0.00000000000E+00 -5.41018738770E+02  5.41018738770E+02  0.00000000000E+00 0.00000000000E+00  1.
       25    1    1    2    0    0  5.37465651149E+01  1.11286885037E+02  2.68569326791E+02  3.20979668104E+02  1.25000000000E+02 0.00000000000E+00  1.
       -6    2    1    2    0  501 -6.06497412034E+01 -3.04338369470E+01  1.01912198371E+02  2.13595354268E+02  1.75020769193E+02 0.00000000000E+00  1.
       -1    1    1    2    0  502  6.90317608848E+00 -8.08530480895E+01 -4.55385241209E+02  4.62558739121E+02  5.39479660939E-06 0.00000000000E+00  1.
       -5    1    4    4    0  501 -7.46948363536E+01 -5.42571117701E+01  7.25396156829E+01  1.17506217278E+02  4.75000000000E+00 0.00000000000E+00  1.
      -24    2    4    4    0    0  1.40450951502E+01  2.38232748231E+01  2.93725826882E+01  9.60891369906E+01  8.72098647674E+01 0.00000000000E+00  1.
       11    1    7    7    0    0  5.09164797237E+01  1.44763243487E+01  1.20284944725E+01  5.42838516839E+01  5.11000155062E-04 0.00000000000E+00  1.
      -12    1    7    7    0    0 -3.68713845735E+01  9.34695047438E+00  1.73440882157E+01  4.18052853067E+01  1.43051147461E-06 0.00000000000E+00  1.
</event>
<event>
 9 111   1.0000000E+00   3.1250000E+01   7.8125000E-03   1.5660620E-01
       -5   -1    0    0    0  501  0.00000000000E+00  0.00000000000E+00  3.83474394472E+02  3.83474394472E+02  0.00000000000E+00 0.00000000000E+00  1.
        1   -1    0    0  502    0  0.00000000000E+00  0.00000000000E+00 -1.11035823785E+03  1.11035823785E+03  0.00000000000E+00 0.00000000000E+00  1.
       25    1    1    2    0    0 -7.81974617184E+01  1.48355768892E+00  1.75388393202E+02  2.29135620174E+02  1.25000000000E+02 0.00000000000E+00  1.
       -6    2    1    2    0  501 -4.54442060785E+01  6.89778310702E+01  1.25458324918E+02  2.27160421778E+02  1.70408183154E+02 0.00000000000E+00  1.
        2    1    1    2  502    0  1.23641667797E+02 -7.04613887591E+01 -1.02773056150E+03  1.03753659037E+03  0.00000000000E+00 0.00000000000E+00  1.
       -5    1    4    4    0  501  1.21123439839E+01  1.95282237579E+01 -2.89260478915E+01  3.72470018463E+01  4.75000000000E+00 0.00000000000E+00  1.
      -24    2    4    4    0    0 -5.75565500624E+01  4.94496073124E+01  1.54384372810E+02  1.89913419932E+02  8.04646032986E+01 0.00000000000E+00  1.
        1    1    7    7  704    0  1.30238590746E+01  2.64908420226E+01  1.78136331936E+01  3.44776905232E+01  8.92080637640E-07 0.00000000000E+00  1.
       -2    1    7    7    0  704 -7.05804091370E+01  2.29587652898E+01  1.36570739616E+02  1.55435729409E+02  2.69739830470E-06 0.00000000000E+00  1.
</event>
<event>
 9 111   1.0000000E+00   3.1250000E+01   7.8125000E-03   1.5660620E-01
        1   -1    0    0  502    0  0.00000000000E+00  0.00000000000E+00  3.63753338663E+03  3.63753338663E+03  0.00000000000E+00 0.00000000000E+00  1.
       -5   -1    0    0    0  501  0.00000000000E+00  0.00000000000E+00 -5.71967251203E+01  5.71967251203E+01  0.00000000000E+00 0.00000000000E+00  1.
       25    1    1    2    0    0  7.80313570590E+01 -4.00266729423E+01  1.95672690213E+02  2.48201186392E+02  1.25000000000E+02 0.00000000000E+00  1.
       -6    2    1    2    0  501 -1.15617114947E+02  1.72610337376E+01  3.24539812201E+02  3.86089278411E+02  1.73417359703E+02 0.00000000000E+00  1.
        2    1    1    2  502    0  3.75857578880E+01  2.27656392047E+01  3.06012415909E+03  3.06043964695E+03  6.10351562500E-05 0.00000000000E+00  1.
       -5    1    4    4    0  501 -2.24241917680E+01 -4.88616052482E+01  3.50718938535E+01  6.43653717642E+01  4.75000000000E+00 0.00000000000E+00  1.
      -24    2    4    4    0    0 -9.31929231790E+01  6.61226389858E+01  2.89467918347E+02  3.21723906647E+02  8.15933332977E+01 0.00000000000E+00  1.
        1    1    7    7  704    0 -3.42471765095E+01  5.87189454956E+01  8.52137195333E+01  1.09005328566E+02  3.16297987972E-06 0.00000000000E+00  1.
       -2    1    7    7    0  704 -5.89457466695E+01  7.40369349019E+00  2.04254198814E+02  2.12718578081E+02  2.69739830470E-06 0.00000000000E+00  1.
</event>
<event>
 9 111   1.0000000E+00   3.1250000E+01   7.8125000E-03   1.5660620E-01
       -5   -1    0    0    0  501  0.00000000000E+00  0.00000000000E+00  1.66379351087E+02  1.66379351087E+02  0.00000000000E+00 0.00000000000E+00  1.
       -2   -1    0    0    0  502  0.00000000000E+00  0.00000000000E+00 -4.67381263037E+02  4.67381263037E+02  0.00000000000E+00 0.00000000000E+00  1.
       25    1    1    2    0    0 -9.46087869719E+01 -4.59832119124E+01 -7.99003233638E+01  1.81863520321E+02  1.25000000000E+02 0.00000000000E+00  1.
       -6    2    1    2    0  501  1.02227248611E+02  2.83049390885E+01  2.62470441532E+01  2.03800523076E+02  1.72029549624E+02 0.00000000000E+00  1.
       -1    1    1    2    0  502 -7.61846163913E+00  1.76782728240E+01 -2.47348632740E+02  2.48096570726E+02  3.81469726562E-06 0.00000000000E+00  1.
       -5    1    4    4    0  501  1.16248216778E+02  1.16219367349E+01  2.71706840624E+00  1.16955813359E+02  4.75000000000E+00 0.00000000000E+00  1.
      -24    2    4    4    0    0 -1.40209681674E+01  1.66830023536E+01  2.35299757469E+01  8.68447097175E+01  8.07058469467E+01 0.00000000000E+00  1.
        3    1    7    7  704    0  8.39546741500E+00 -1.25797433867E+01 -2.29726856131E+01  2.75041469795E+01  3.37174788087E-07 0.00000000000E+00  1.
       -4    1    7    7    0  704 -2.24164355824E+01  2.92627457403E+01  4.65026613601E+01  5.93405627379E+01  9.53674316406E-07 0.00000000000E+00  1.
</event>
<event>
 9 111   1.0000000E+00   3.1250000E+01   7.8125000E-03   1.5660620E-01
       -5   -1    0    0    0  501  0.00000000000E+00  0.00000000000E+00  2.71168653702E+01  2.71168653702E+01  0.00000000000E+00 0.00000000000E+00  1.
        1   -1    0    0  502    0  0.00000000000E+00  0.00000000000E+00 -2.26070116864E+03  2.26070116864E+03  0.00000000000E+00 0.00000000000E+00  1.
       25    1    1    2    0    0 -6.41707556428E+01 -6.31298609217E+01 -9.82813325539E+02  9.94811689757E+02  1.25000000000E+02 0.00000000000E+00  1.
       -6    2    1    2    0  501  7.84559956921E+01  1.10368407935E+02 -5.68434031125E+02  6.08887014669E+02  1.71142105169E+02 0.00000000000E+00  1.
        2    1    1    2  502    0 -1.42852400493E+01 -4.72385470131E+01 -6.82336946607E+02  6.84119329585E+02  1.32144989591E-05 0.00000000000E+00  1.
       -5    1    4    4    0  501  1.67924332096E+01 -2.95928597060E+01 -1.81266968589E+02  1.84493901146E+02  4.75000000001E+00 0.00000000000E+00  1.
      -24    2    4    4    0    0  6.16635624825E+01  1.39961267641E+02 -3.87167062536E+02  4.24393113523E+02  8.25810457399E+01 0.00000000000E+00  1.
        3    1    7    7  704    0  2.93079558132E+01  7.40809835849E+00 -1.27789924360E+02  1.31316796196E+02  2.69739830470E-06 0.00000000000E+00  1.
       -4    1    7    7    0  704  3.23556066693E+01  1.32553169282E+02 -2.59377138176E+02  2.93076317327E+02  3.81469726562E-06 0.00000000000E+00  1.
</event>
<event>
 9 111   1.0000000E+00   3.1250000E+01   7.8125000E-03   1.5660620E-01
        3   -1    0    0  502    0  0.00000000000E+00  0.00000000000E+00  1.72388758642E+02  1.72388758642E+02  0.00000000000E+00 0.00000000000E+00  1.
       -5   -1    0    0    0  501  0.00000000000E+00  0.00000000000E+00 -1.08992315319E+03  1.08992315319E+03  0.00000000000E+00 0.00000000000E+00  1.
       25    1    1    2    0    0  9.54265923281E+01 -3.81949381356E+01 -7.26176288649E+02  7.43990651836E+02  1.25000000000E+02 0.00000000000E+00  1.
       -6    2    1    2    0  501 -7.73162427413E+01  2.53356995481E+01 -3.27956692745E+02  3.79928634806E+02  1.73696505914E+02 0.00000000000E+00  1.
        4    1    1    2  502    0 -1.81103495868E+01  1.28592385874E+01  1.36598586845E+02  1.38392625191E+02  5.39479660939E-06 0.00000000000E+00  1.
       -5    1    4    4    0  501 -1.68170052537E+01 -2.17492710671E+00 -2.45042220910E+02  2.45674163278E+02  4.74999999999E+00 0.00000000000E+00  1.
      -24    2    4    4    0    0 -6.04992374876E+01  2.75106266548E+01 -8.29144718345E+01  1.34254471529E+02  8.20515762818E+01 0.00000000000E+00  1.
        1    1    7    7  704    0 -5.32477631360E+01 -3.28923768326E-01 -9.00487643830E+01  1.04614589980E+02  9.53674316406E-07 0.00000000000E+00  1.
       -2    1    7    7    0  704 -7.25147435156E+00  2.78395504232E+01  7.13429254850E+00  2.96398815484E+01  1.10228312069E-06 0.00000000000E+00  1.
</event>
<event>
 9 111   1.0000000E+00   3.1250000E+01   7.8125000E-03   1.5660620E-01
       -5   -1    0    0    0  501  0.00000000000E+00  0.00000000000E+00  1.83367966276E+02  1.83367966276E+02  0.00000000000E+00 0.00000000000E+00  1.
        1   -1    0    0  502    0  0.00000000000E+00  0.00000000000E+00 -8.54266801321E+02  8.54266801321E+02  0.00000000000E+00 0.00000000000E+00  1.
       25    1    1    2    0    0  2.21099260938E+02  5.19642289286E+01 -9.10667975713E+00  2.59409128390E+02  1.25000000000E+02 0.00000000000E+00  1.
       -6    2    1    2    0  501 -2.52118660861E+02 -1.15096834218E+01 -3.63885066648E+02  4.75988303848E+02  1.74517138709E+02 0.00000000000E+00  1.
        2    1    1    2  502    0  3.10193999227E+01 -4.04545455069E+01 -2.97907088640E+02  3.02237335360E+02  0.00000000000E+00 0.00000000000E+00  1.
       -5    1    4    4    0  501  1.62486564196E+01  1.08282336822E+00 -2.63734918614E-01  1.69653587641E+01  4.75000000000E+00 0.00000000000E+00  1.
      -24    2    4    4    0    0 -2.68367317281E+02 -1.25925067900E+01 -3.63621331730E+02  4.59022945083E+02  7.93851561218E+01 0.00000000000E+00  1.
        1    1    7    7  704    0 -8.63866887596E+01 -3.79918768564E+01 -1.50362622389E+02  1.77524536089E+02  2.69739830470E-06 0.00000000000E+00  1.
       -4    1    7    7    0  704 -1.81980628521E+02  2.53993700664E+01 -2.13258709340E+02  2.81498408994E+02  2.69739830470E-06 0.00000000000E+00  1.
</event>
<event>
 9 111   1.0000000E+00   3.1250000E+01   7.8125000E-03   1.5660620E-01
        1   -1    0    0  502    0  0.00000000000E+00  0.00000000000E+00  1.46796218535E+03  1.46796218535E+03  0.00000000000E+00 0.00000000000E+00  1.
       -5   -1    0    0    0  501  0.00000000000E+00  0.00000000000E+00 -2.19056926935E+02  2.19056926935E+02  0.00000000000E+00 0.00000000000E+00  1.
       25    1    1    2    0    0  3.52838424961E+01  8.86548347548E+00 -1.09958588353E+02  1.70409616780E+02  1.25000000000E+02 0.00000000000E+00  1.
       -6    2    1    2    0  501  2.80681515552E+01 -8.74210198954E+00  2.40542843461E+01  1.80297384392E+02  1.76250653174E+02 0.00000000000E+00  1.
        2    1    1    2  502    0 -6.33519940512E+01 -1.23381485946E-01  1.33480956242E+03  1.33631211111E+03  3.41196895981E-05 0.00000000000E+00  1.
       -5    1    4    4    0  501  7.04341045050E+01 -4.17013959167E+00  4.85326234737E+01  8.57690572577E+01  4.75000000000E+00 0.00000000000E+00  1.
      -24    2    4    4    0    0 -4.23659529498E+01 -4.57196239787E+00 -2.44783391276E+01  9.45283271344E+01  8.07504720411E+01 0.00000000000E+00  1.
        3    1    7    7  704    0  9.41657717569E+00 -5.84242691099E+00  2.21927778579E+01  2.48057506834E+01  2.38418579102E-07 0.00000000000E+00  1.
       -4    1    7    7    0  704 -5.17825301255E+01  1.27046451312E+00 -4.66711169856E+01  6.97225764509E+01  0.00000000000E+00 0.00000000000E+00  1.
</event>
<event>
 9 111   1.0000000E+00   3.1250000E+01   7.8125000E-03   1.5660620E-01
       -5   -1    0    0    0  501  0.00000000000E+00  0.00000000000E+00  2.96415561667E+02  2.96415561667E+02  0.00000000000E+00 0.00000000000E+00  1.
        1   -1    0    0  502    0  0.00000000000E+00  0.00000000000E+00 -3.32991082490E+02  3.32991082490E+02  0.00000000000E+00 0.00000000000E+00  1.
       25    1    1    2    0    0  6.90882932663E+01  2.17301221761E+01  1.42689478033E+02  2.03053386127E+02  1.25000000000E+02 0.00000000000E+00  1.
       -6    2    1    2    0  501 -3.25648587613E+01 -4.82203258033E+01  5.06829977130E+01  1.92020645528E+02  1.75833706112E+02 0.00000000000E+00  1.
        2    1    1    2  502    0 -3.65234345050E+01  2.64902036272E+01 -2.29947996569E+02  2.34332612503E+02  5.39479660939E-06 0.00000000000E+00  1.
       -5    1    4    4    0  501 -5.98853220557E+01 -3.55470830297E+01  8.16743967222E+01  1.07438896539E+02  4.75000000000E+00 0.00000000000E+00  1.
      -24    2    4    4    0    0  2.73204632944E+01 -1.26732427736E+01 -3.09913990091E+01  8.45817489887E+01  7.27089172827E+01 0.00000000000E+00  1.
        1    1    7    7  704    0 -2.08241148256E+01  1.25038550397E+01 -1.13421973322E+01  2.68073793842E+01  5.05762182131E-07 0.00000000000E+00  1.
       -2    1    7    7    0  704  4.81445781200E+01 -2.51770978133E+01 -1.96492016769E+01  5.77743696045E+01  3.37174788087E-07 0.00000000000E+00  1.
</event>
<event>
 9 111   1.0000000E+00   3.1250000E+01   7.8125000E-03   1.5660620E-01
        1   -1    0    0  502    0  0.00000000000E+00  0.00000000000E+00  1.83551074136E+03  1.83551074136E+03  0.00000000000E+00 0.00000000000E+00  1.
       -5   -1    0    0    0  501  0.00000000000E+00  0.00000000000E+00 -3.61133747454E+01  3.61133747454E+01  0.00000000000E+00 0.00000000000E+00  1.
       25    1    1    2    0    0  1.43703184630E+02  9.52663052198E+01  8.01790465757E+02  8.29589793309E+02  1.25000000000E+02 0.00000000000E+00  1.
       -6    2    1    2    0  501 -1.50057190395E+02 -8.08507649064E+01  6.47059943489E+02  6.91133552617E+02  1.72988469300E+02 0.00000000000E+00  1.
        2    1    1    2  502    0  6.35400576527E+00 -1.44155403134E+01  3.50546957369E+02  3.50900770179E+02  0.00000000000E+00 0.00000000000E+00  1.
       -5    1    4    4    0  501 -1.29200755269E+02 -8.94089006066E+01  3.82048401627E+02  4.13122657761E+02  4.74999999999E+00 0.00000000000E+00  1.
      -24    2    4    4    0    0 -2.08564351260E+01  8.55813570022E+00  2.65011541861E+02  2.78010894856E+02  8.09364427571E+01 0.00000000000E+00  1.
       15    1    7    7    0    0 -4.13290571098E+01  1.43156664850E+01  7.52085739068E+01  8.70202038370E+01  1.77680000000E+00 0.00000000000E+00  1.
      -16    1    7    7    0    0  2.04726219838E+01 -5.75753078482E+00  1.89802967955E+02  1.90990691019E+02  2.69739830470E-06 0.00000000000E+00  1.
</event>
<event>
 9 111   1.0000000E+00   3.1250000E+01   7.8125000E-03   1.5660620E-01
        3   -1    0    0  502    0  0.00000000000E+00  0.00000000000E+00  9.84961800248E+02  9.84961800248E+02  0.00000000000E+00 0.00000000000E+00  1.
       -5   -1    0    0    0  501  0.00000000000E+00  0.00000000000E+00 -4.95735507431E+01  4.95735507431E+01  0.00000000000E+00 0.00000000000E+00  1.
       25    1    1    2    0    0 -4.18387473116E+01  9.36582438875E+00  1.67334740776E+02  2.13223157545E+02  1.25000000000E+02 0.00000000000E+00  1.
       -6    2    1    2    0  501  1.44701122271E+01 -7.12110157926E+00  2.61696576462E+02  3.14211193819E+02  1.73157390700E+02 0.00000000000E+00  1.
        4    1    1    2  502    0  2.73686350845E+01 -2.24472280950E+00  5.06356932267E+02  5.07100999626E+02  5.39479660939E-06 0.00000000000E+00  1.
       -5    1    4    4    0  501  8.41969065720E+00 -1.14915049051E+01 -1.78735153146E+01  2.33446123431E+01  4.75000000000E+00 0.00000000000E+00  1.
      -24    2    4    4    0    0  6.05042156987E+00  4.37040332589E+00  2.79570091776E+02  2.90866581476E+02  7.99263659719E+01 0.00000000000E+00  1.
        3    1    7    7  704    0 -3.15318710418E+00  3.50805386293E+01  2.23664499441E+02  2.26420836253E+02  2.69739830470E-06 0.00000000000E+00  1.
       -4    1    7    7    0  704  9.20360867404E+00 -3.07101353035E+01  5.59055923351E+01  6.44457452228E+01  1.78416127528E-06 0.00000000000E+00  1.
</event>
<event>
 9 111   1.0000000E+00   3.1250000E+01   7.8125000E-03   1.5660620E-01
       -5   -1    0    0    0  501  0.00000000000E+00  0.00000000000E+00  3.44927478077E+01  3.44927478077E+01  0.00000000000E+00 0.00000000000E+00  1.
        1   -1    0    0  502    0  0.00000000000E+00  0.00000000000E+00 -1.87879164335E+03  1.87879164335E+03  0.00000000000E+00 0.00000000000E+00  1.
       25    1    1    2    0    0 -4.51759446158E+01 -4.06538713922E+01 -2.73150629698E+02  3.06479803145E+02  1.25000000000E+02 0.00000000000E+00  1.
       -6    2    1    2    0  501  6.31458331355E+01 -2.34394130680E+01 -4.78755107948E+02  5.12385254565E+02  1.69692054564E+02 0.00000000000E+00  1.
        2    1    1    2  502    0 -1.79698885197E+01  6.40932844602E+01 -1.09239315790E+03  1.09441933345E+03  2.15791864376E-05 0.00000000000E+00  1.
       -5    1    4    4    0  501 -2.30217005212E+01 -3.57206994015E+01 -2.48100116655E+02  2.51758212269E+02  4.75000000000E+00 0.00000000000E+00  1.
      -24    2    4    4    0    0  8.61675336566E+01  1.22812863335E+01 -2.30654991293E+02  2.60627042297E+02  8.45520923292E+01 0.00000000000E+00  1.
        3    1    7    7  704    0 -2.19934149168E-01 -1.04081947452E+01 -1.10094348627E+02  1.10585462374E+02  3.01578298585E-06 0.00000000000E+00  1.
       -4    1    7    7    0  704  8.63874678058E+01  2.26894810787E+01 -1.20560642666E+02  1.50041579923E+02  0.00000000000E+00 0.00000000000E+00  1.
</event>
<event>
 9 111   1.0000000E+00   3.1250000E+01   7.8125000E-03   1.5660620E-01
        1   -1    0    0  502    0  0.00000000000E+00  0.00000000000E+00  9.45934576902E+02  9.45934576902E+02  0.00000000000E+00 0.00000000000E+00  1.
       -5   -1    0    0    0  501  0.00000000000E+00  0.00000000000E+00 -6.85595969956E+02  6.85595969956E+02  0.00000000000E+00 0.00000000000E+00  1.
       25    1    1    2    0    0  2.20318431837E+02  1.99107803507E+02 -2.01060891388E+02  3.79782320376E+02  1.25000000000E+02 0.00000000000E+00  1.
       -6    2    1    2    0  501 -2.13238371952E+02 -2.40738015358E+02 -3.10646524263E+02  4.78548211741E+02  1.70533670027E+02 0.00000000000E+00  1.
        2    1    1    2  502    0 -7.08005988506E+00  4.16302118508E+01  7.72046022597E+02  7.73200014740E+02  1.07895932188E-05 0.00000000000E+00  1.
       -5    1    4    4    0  501 -1.89541288602E+01 -1.05962396059E+02 -5.45911637598E+01  1.20789262934E+02  4.75000000000E+00 0.00000000000E+00  1.
      -24    2    4    4    0    0 -1.94284243092E+02 -1.34775619299E+02 -2.56055360503E+02  3.57758948807E+02  8.07234980555E+01 0.00000000000E+00  1.
        1    1    7    7  704    0 -1.02569526375E+02 -1.16169924888E+02 -1.41651513340E+02  2.09955019994E+02  3.30362473978E-06 0.00000000000E+00  1.
       -2    1    7    7    0  704 -9.17147167170E+01 -1.86056944112E+01 -1.14403847163E+02  1.47803928813E+02  3.56832255056E-06 0.00000000000E+00  1.
</event>
<event>
 9 111   1.0000000E+00   3.1250000E+01   7.8125000E-03   1.5660620E-01
       -5   -1    0    0    0  501  0.00000000000E+00  0.00000000000E+00  9.82303838158E+01  9.82303838158E+01  0.00000000000E+00 0.00000000000E+00  1.
        1   -1    0    0  502    0  0.00000000000E+00  0.00000000000E+00 -3.30945345350E+02  3.30945345350E+02  0.00000000000E+00 0.00000000000E+00  1.
       25    1    1    2    0    0 -5.23882115081E+01 -1.99709186625E+00 -2.30551354826E+01  1.37495644851E+02  1.25000000000E+02 0.00000000000E+00  1.
       -6    2    1    2    0  501  5.72674099070E+01  1.13663734935E+01 -1.66132654303E+02  2.46889407878E+02  1.73047884161E+02 0.00000000000E+00  1.
        2    1    1    2  502    0 -4.87919839888E+00 -9.36928162729E+00 -4.35271717483E+01  4.47906764364E+01  6.74349576174E-07 0.00000000000E+00  1.
       -5    1    4    4    0  501  8.10143303942E+01 -2.39469343564E+01 -4.31255285272E+01  9.49692113531E+01  4.75000000000E+00 0.00000000000E+00  1.
      -24    2    4    4    0    0 -2.37469204872E+01  3.53133078499E+01 -1.23007125776E+02  1.51920196525E+02  7.83456902233E+01 0.00000000000E+00  1.
       11    1    7    7    0    0 -4.13805405541E+00  2.25420403810E+01 -1.26233972596E+02  1.28297634092E+02  5.11003937192E-04 0.00000000000E+00  1.
      -12    1    7    7    0    0 -1.96088664318E+01  1.27712674688E+01  3.22684682016E+00  2.36225624330E+01  6.33606065079E-07 0.00000000000E+00  1.
</event>
<event>
 9 111   1.0000000E+00   3.1250000E+01   7.8125000E-03   1.5660620E-01
       -5   -1    0    0    0  501  0.00000000000E+00  0.00000000000E+00  7.82147308545E+02  7.82147308545E+02  0.00000000000E+00 0.00000000000E+00  1.
        1   -1    0    0  502    0  0.00000000000E+00  0.00000000000E+00 -8.17797055304E+02  8.17797055304E+02  0.00000000000E+00 0.00000000000E+00  1.
       25    1    1    2    0    0  2.64154936435E+01 -3.81574206131E+02  3.88757052090E+01  4.04268442429E+02  1.25000000000E+02 0.00000000000E+00  1.
       -6    2    1    2    0  501  1.12643191087E+01  3.24591571068E+02  4.98931056683E+02  6.18164747240E+02  1.66459852558E+02 0.00000000000E+00  1.
        2    1    1    2  502    0 -3.76798127522E+01  5.69826350626E+01 -5.73456508652E+02  5.77511174180E+02  2.01854805837E-05 0.00000000000E+00  1.
       -5    1    4    4    0  501 -1.45069971676E+00  1.32912685786E+01  1.22297605891E+02  1.23117948556E+02  4.75000000000E+00 0.00000000000E+00  1.
      -24    2    4    4    0    0  1.27150188255E+01  3.11300302489E+02  3.76633450792E+02  4.95046798683E+02  7.84157292713E+01 0.00000000000E+00  1.
       11    1    7    7    0    0  7.45218474024E+00  1.72788738224E+02  1.47769978914E+02  2.27480658042E+02  5.11009276622E-04 0.00000000000E+00  1.
      -12    1    7    7    0    0  5.26283408524E+00  1.38511564265E+02  2.28863471878E+02  2.67566140641E+02  4.67203091199E-06 0.00000000000E+00  1.
</event>
<event>
 9 111   1.0000000E+00   3.1250000E+01   7.8125000E-03   1.5660620E-01
       -5   -1    0    0    0  501  0.00000000000E+00  0.00000000000E+00  2.49318734884E+02  2.49318734884E+02  0.00000000000E+00 0.00000000000E+00  1.
        1   -1    0    0  502    0  0.00000000000E+00  0.00000000000E+00 -4.04873745741E+02  4.04873745741E+02  0.00000000000E+00 0.00000000000E+00  1.
       25    1    1    2    0    0  1.09074966972E+01 -2.86554062260E+01  1.27283245525E+02  1.81014171770E+02  1.25000000000E+02 0.00000000000E+00  1.
       -6    2    1    2    0  501  5.53112649801E+00  8.16501951046E+01 -8.01127228763E+00  1.92806150523E+02  1.74392326308E+02 0.00000000000E+00  1.
        2    1    1    2  502    0 -1.64386231952E+01 -5.29947888786E+01 -2.74826984095E+02  2.80372158331E+02  3.81469726562E-06 0.00000000000E+00  1.
       -5    1    4    4    0  501  7.07148902120E+01  3.84959956370E+01 -3.88696332107E-01  8.06551359966E+01  4.75000000000E+00 0.00000000000E+00  1.
      -24    2    4    4    0    0 -6.51837637140E+01  4.31541994676E+01 -7.62257595552E+00  1.12151014527E+02  8.00533472854E+01 0.00000000000E+00  1.
        3    1    7    7  704    0 -1.36433942077E+00 -1.42933476993E+01 -2.08043797292E+01  2.52781214972E+01  6.30796268240E-07 0.00000000000E+00  1.
       -4    1    7    7    0  704 -6.38194242932E+01  5.74475471669E+01  1.31818037737E+01  8.68728930297E+01  5.59141130426E-07 0.00000000000E+00  1.
</event>
<event>
 9 111   1.0000000E+00   3.1250000E+01   7.8125000E-03   1.5660620E-01
       -5   -1    0    0    0  501  0.00000000000E+00  0.00000000000E+00  9.14994836677E+01  9.14994836677E+01  0.00000000000E+00 0.00000000000E+00  1.
        1   -1    0    0  502    0  0.00000000000E+00  0.00000000000E+00 -9.83014333211E+02  9.83014333211E+02  0.00000000000E+00 0.00000000000E+00  1.
       25    1    1    2    0    0 -1.13610729203E+02  5.55423579264E+00 -1.05285615528E+02  1.99118829251E+02  1.25000000000E+02 0.00000000000E+00  1.
       -6    2    1    2    0  501  1.01581485918E+02  3.66401342242E+01 -1.96834804533E+02  2.84369725003E+02  1.74530520269E+02 0.00000000000E+00  1.
        2    1    1    2  502    0  1.20292432848E+01 -4.21943700169E+01 -5.89394429483E+02  5.91025262625E+02  0.00000000000E+00 0.00000000000E+00  1.
       -5    1    4    4    0  501  1.07891457371E+02  1.65585808400E+01 -1.59242283151E+02  1.93120222702E+02  4.75000000000E+00 0.00000000000E+00  1.
      -24    2    4    4    0    0 -6.30997145252E+00  2.00815533843E+01 -3.75925213815E+01  9.12495023015E+01  8.04374880289E+01 0.00000000000E+00  1.
        1    1    7    7  704    0 -8.04983217915E-01 -6.05551360514E+00  2.36549815455E+01  2.44310334395E+01  1.81574180266E-06 0.00000000000E+00  1.
       -2    1    7    7    0  704 -5.50498823461E+00  2.61370669894E+01 -6.12475029270E+01  6.68184688620E+01  1.78416127528E-06 0.00000000000E+00  1.
</event>
<event>
 9 111   1.0000000E+00   3.1250000E+01   7.8125000E-03   1.5660620E-01
        1   -1    0    0  502    0  0.00000000000E+00  0.00000000000E+00  1.19760146989E+03  1.19760146989E+03  0.00000000000E+00 0.00000000000E+00  1.
       -5   -1    0    0    0  501  0.00000000000E+00  0.00000000000E+00 -7.20503271321E+01  7.20503271321E+01  0.00000000000E+00 0.00000000000E+00  1.
       25    1    1    2    0    0  3.81661962589E+01 -1.86420826111E+02  4.50715108953E+02  5.04953950755E+02  1.25000000000E+02 0.00000000000E+00  1.
       -6    2    1    2    0  501 -7.51762472616E+01  1.20662527188E+02  2.50584865632E+02  3.33788399343E+02  1.68555649660E+02 0.00000000000E+00  1.
        2    1    1    2  502    0  3.70100510026E+01  6.57582989231E+01  4.24251168172E+02  4.30909446923E+02  9.34406182397E-06 0.00000000000E+00  1.
       -5    1    4    4    0  501  3.68988553399E+01  5.08647385398E+01  7.51873803176E+01  9.81042904829E+01  4.75000000000E+00 0.00000000000E+00  1.
      -24    2    4    4    0    0 -1.12075102601E+02  6.97977886483E+01  1.75397485315E+02  2.35684108860E+02  8.57330822444E+01 0.00000000000E+00  1.
        3    1    7    7  704    0 -7.22727376787E+00  1.84006617175E+01  8.70324184144E+01  8.92494240476E+01  2.52318507296E-06 0.00000000000E+00  1.
       -4    1    7    7    0  704 -1.04847828834E+02  5.13971269308E+01  8.83650669004E+01  1.46434684813E+02  2.13248059988E-06 0.00000000000E+00  1.
</event>
<event>
 9 111   1.0000000E+00   3.1250000E+01   7.8125000E-03   1.5660620E-01
        1   -1    0    0  502    0  0.00000000000E+00  0.00000000000E+00  1.82074221459E+03  1.82074221459E+03  0.00000000000E+00 0.00000000000E+00  1.
       -5   -1    0    0    0  501  0.00000000000E+00  0.00000000000E+00 -6.14887387582E+02  6.14887387582E+02  0.00000000000E+00 0.00000000000E+00  1.
       25    1    1    2    0    0  7.36951845278E+01  1.05885222730E+02 -5.08173964683E+02  5.38988347738E+02  1.25000000000E+02 0.00000000000E+00  1.
       -6    2    1    2    0  501 -6.30124187321E+01 -1.08211309191E+02  3.30473902948E+01  2.15624299134E+02  1.72399118386E+02 0.00000000000E+00  1.
        2    1    1    2  502    0 -1.06827657957E+01  2.32608646148E+00  1.68098140139E+03  1.68101695530E+03  2.15791864376E-05 0.00000000000E+00  1.
       -5    1    4    4    0  501 -6.26922623230E+01 -1.15845040209E+02  2.72333876861E+01  1.34590538304E+02  4.75000000000E+00 0.00000000000E+00  1.
      -24    2    4    4    0    0 -3.20156409039E-01  7.63373101774E+00  5.81400260872E+00  8.10337608297E+01  8.04629816654E+01 0.00000000000E+00  1.
       11    1    7    7    0    0 -3.59987695104E+01  2.02530766717E+01  1.12281987496E+01  4.28038662781E+01  5.10998555991E-04 0.00000000000E+00  1.
      -12    1    7    7    0    0  3.56786131013E+01 -1.26193456540E+01 -5.41419614091E+00  3.82298945515E+01  1.22153172087E-06 0.00000000000E+00  1.
</event>
<event>
 9 111   1.0000000E+00   3.1250000E+01   7.8125000E-03   1.5660620E-01
        3   -1    0    0  502    0  0.00000000000E+00  0.00000000000E+00  2.01599527777E+02  2.01599527777E+02  0.00000000000E+00 0.00000000000E+00  1.
       -5   -1    0    0    0  501  0.00000000000E+00  0.00000000000E+00 -2.63326821997E+02  2.63326821997E+02  0.00000000000E+00 0.00000000000E+00  1.
       25    1    1    2    0    0 -5.86760016709E+01 -1.54118214724E+01 -9.84746423878E+01  1.70301651802E+02  1.25000000000E+02 0.00000000000E+00  1.
       -6    2    1    2    0  501  1.21193147539E+01  2.58107241516E+01 -6.29188285380E+01  1.84130313261E+02  1.70681346391E+02 0.00000000000E+00  1.
        4    1    1    2  502    0  4.65566869170E+01 -1.03989026792E+01  9.96661767053E+01  1.10494384711E+02  1.34869915235E-06 0.00000000000E+00  1.
       -5    1    4    4    0  501  3.72282042387E+01 -9.27793392327E+00  3.36360301969E+01  5.12441633372E+01  4.75000000000E+00 0.00000000000E+00  1.
      -24    2    4    4    0    0 -2.51088894849E+01  3.50886580748E+01 -9.65548587350E+01  1.32886149924E+02  8.04625244421E+01 0.00000000000E+00  1.
        3    1    7    7  704    0 -2.80250483427E+00 -2.60509026227E+01 -2.65215129209E+01  3.72812849620E+01  1.11828226085E-06 0.00000000000E+00  1.
       -4    1    7    7    0  704 -2.23063846506E+01  6.11395606975E+01 -7.00333458141E+01  9.56048649619E+01  9.53674316406E-07 0.00000000000E+00  1.
</event>
<event>
 9 111   1.0000000E+00   3.1250000E+01   7.8125000E-03   1.5660620E-01
       -5   -1    0    0    0  501  0.00000000000E+00  0.00000000000E+00  2.49511890369E+01  2.49511890369E+01  0.00000000000E+00 0.00000000000E+00  1.
        1   -1    0    0  502    0  0.00000000000E+00  0.00000000000E+00 -1.73070130461E+03  1.73070130461E+03  0.00000000000E+00 0.00000000000E+00  1.
       25    1    1    2    0    0  4.95033909400E+00  2.97876806993E+01 -7.32136051604E+02  7.43343803255E+02  1.25000000000E+02 0.00000000000E+00  1.
       -6    2    1    2    0  501  8.38572986602E+00  1.10439863535E+01 -3.87918291583E+02  4.25039915843E+02  1.73164774176E+02 0.00000000000E+00  1.
        2    1    1    2  502    0 -1.33360689600E+01 -4.08316670528E+01 -5.85695772381E+02  5.87268774545E+02  7.62939453125E-06 0.00000000000E+00  1.
       -5    1    4    4    0  501 -6.67315910541E+00 -5.43683327587E+01 -6.14466254185E+01  8.24542111401E+01  4.75000000000E+00 0.00000000000E+00  1.
      -24    2    4    4    0    0  1.50588889714E+01  6.54123191122E+01 -3.26471666165E+02  3.42585704703E+02  7.92191557011E+01 0.00000000000E+00  1.
        1    1    7    7  704    0 -2.82912232177E+01  4.25767363123E+01 -2.11862180672E+02  2.17942091816E+02  4.67203091199E-06 0.00000000000E+00  1.
       -2    1    7    7    0  704  4.33501121891E+01  2.28355827999E+01 -1.14609485493E+02  1.24643612887E+02  1.34869915235E-06 0.00000000000E+00  1.
</event>
<event>
 9 111   1.0000000E+00   3.1250000E+01   7.8125000E-03   1.5660620E-01
        1   -1    0    0  502    0  0.00000000000E+00  0.00000000000E+00  7.78052984614E+02  7.78052984614E+02  0.00000000000E+00 0.00000000000E+00  1.
       -5   -1    0    0    0  501  0.00000000000E+00  0.00000000000E+00 -7.08489916429E+02  7.08489916429E+02  0.00000000000E+00 0.00000000000E+00  1.
       25    1    1    2    0    0  5.19441554462E+00  2.64845368768E+01 -3.68383404266E+01  1.33080712246E+02  1.25000000000E+02 0.00000000000E+00  1.
       -6    2    1    2    0  501 -2.59128256948E+01 -1.45495596241E+01 -6.10688464056E+02  6.35973804442E+02  1.75040325596E+02 0.00000000000E+00  1.
        2    1    1    2  502    0  2.07184101502E+01 -1.19349772528E+01  7.17089872668E+02  7.17488384355E+02  1.70598447990E-05 0.00000000000E+00  1.
       -5    1    4    4    0  501 -5.26149532094E+01 -4.94215629550E+01 -1.50337202102E+02  1.66837229124E+02  4.75000000000E+00 0.00000000000E+00  1.
      -24    2    4    4    0    0  2.67021275146E+01  3.48720033309E+01 -4.60351261955E+02  4.69136575318E+02  7.89732973082E+01 0.00000000000E+00  1.
        3    1    7    7  704    0  2.67434834394E+01  2.87688665689E+01 -8.39385429914E+01  9.26743793594E+01  3.16297987972E-06 0.00000000000E+00  1.
       -4    1    7    7    0  704 -4.13559248231E-02  6.10313676199E+00 -3.76412718963E+02  3.76462195958E+02  7.62939453125E-06 0.00000000000E+00  1.
</event>
<event>
 9 111   1.0000000E+00   3.1250000E+01   7.8125000E-03   1.5660620E-01
        1   -1    0    0  502    0  0.00000000000E+00  0.00000000000E+00  3.42861134801E+02  3.42861134801E+02  0.00000000000E+00 0.00000000000E+00  1.
       -5   -1    0    0    0  501  0.00000000000E+00  0.00000000000E+00 -2.40780202871E+02  2.40780202871E+02  0.00000000000E+00 0.00000000000E+00  1.
       25    1    1    2    0    0 -1.91405790970E+01  7.77311793385E+01 -1.80739213889E+01  1.49533155668E+02  1.25000000000E+02 0.00000000000E+00  1.
       -6    2    1    2    0  501  1.53266304430E+01 -7.81908661941E+01 -9.74925590731E+01  2.16426869906E+02  1.76031456807E+02 0.00000000000E+00  1.
        2    1    1    2  502    0  3.81394865401E+00  4.59686855655E-01  2.17647412392E+02  2.17681312099E+02  4.67203091199E-06 0.00000000000E+00  1.
       -5    1    4    4    0  501  2.23899009900E+01  4.06484917939E+01 -4.53905650224E+01  6.50881974287E+01  4.75000000000E+00 0.00000000000E+00  1.
      -24    2    4    4    0    0 -7.06327054698E+00 -1.18839357988E+02 -5.21019940506E+01  1.51338672477E+02  7.75634785530E+01 0.00000000000E+00  1.
        1    1    7    7  704    0 -3.92851498917E+01 -5.04118414979E+01 -9.74140537183E+00  6.46496074531E+01  2.33905516509E-06 0.00000000000E+00  1.
       -2    1    7    7    0  704  3.22218793447E+01 -6.84275164901E+01 -4.23605886788E+01  8.66890650239E+01  1.58148993986E-06 0.00000000000E+00  1.
</event>
<event>
 9 111   1.0000000E+00   3.1250000E+01   7.8125000E-03   1.5660620E-01
        1   -1    0    0  502    0  0.00000000000E+00  0.00000000000E+00  5.98310787002E+02  5.98310787002E+02  0.00000000000E+00 0.00000000000E+00  1.
       -5   -1    0    0    0  501  0.00000000000E+00  0.00000000000E+00 -1.76482875600E+02  1.76482875600E+02  0.00000000000E+00 0.00000000000E+00  1.
       25    1    1    2    0    0  9.17132441927E+01 -4.57821334751E+01  5.93361646666E+01  1.72200764642E+02  1.25000000000E+02 0.00000000000E+00  1.
       -6    2    1    2    0  501 -3.35752879422E+01  7.35446459101E+01 -3.93592343149E+01  1.95610109596E+02  1.73718308614E+02 0.00000000000E+00  1.
        2    1    1    2  502    0 -5.81379562505E+01 -2.77625124349E+01  4.01850981051E+02  4.06982788365E+02  0.00000000000E+00 0.00000000000E+00  1.
       -5    1    4    4    0  501 -7.47174339626E+01  4.87333356836E+01  9.70079093181E+00  8.98571131826E+01  4.75000000000E+00 0.00000000000E+00  1.
      -24    2    4    4    0    0  4.11421460205E+01  2.48113102264E+01 -4.90600252467E+01  1.05752996413E+02  8.04271899223E+01 0.00000000000E+00  1.
       15    1    7    7    0    0  4.25268237117E+01 -8.48068169550E+00 -5.68605482446E+01  7.15313334277E+01  1.77680000000E+00 0.00000000000E+00  1.
      -16    1    7    7    0    0 -1.38467769123E+00  3.32919919219E+01  7.80052299794E+00  3.42216629853E+01  1.29494434490E-06 0.00000000000E+00  1.
</event>
<event>
 9 111   1.0000000E+00   3.1250000E+01   7.8125000E-03   1.5660620E-01
        1   -1    0    0  502    0  0.00000000000E+00  0.00000000000E+00  1.05989572762E+03  1.05989572762E+03  0.00000000000E+00 0.00000000000E+00  1.
       -5   -1    0    0    0  501  0.00000000000E+00  0.00000000000E+00 -5.21649783223E+02  5.21649783223E+02  0.00000000000E+00 0.00000000000E+00  1.
       25    1    1    2    0    0 -2.71312409193E+02 -4.62322702526E+02  3.15840518130E+02  6.34612430973E+02  1.25000000000E+02 0.00000000000E+00  1.
       -6    2    1    2    0  501  3.12634475666E+02  3.98390849004E+02 -1.58265054157E+02  5.58725906135E+02  1.75132026980E+02 0.00000000000E+00  1.
        2    1    1    2  502    0 -4.13220664733E+01  6.39318535218E+01  3.80670480422E+02  3.88207173732E+02  7.62939453125E-06 0.00000000000E+00  1.
       -5    1    4    4    0  501  1.00427488820E+02  8.21513032525E+01  1.87215176991E+01  1.31177646197E+02  4.75000000000E+00 0.00000000000E+00  1.
      -24    2    4    4    0    0  2.12206986846E+02  3.16239545752E+02 -1.76986571856E+02  4.27548259939E+02  8.02122957882E+01 0.00000000000E+00  1.
        3    1    7    7  704    0  4.14040763386E+01  1.25267067815E+02 -4.54250324443E+01  1.39533398830E+02  2.02304872852E-06 0.00000000000E+00  1.
       -4    1    7    7    0  704  1.70802910508E+02  1.90972477937E+02 -1.31561539412E+02  2.88014861109E+02  0.00000000000E+00 0.00000000000E+00  1.
</event>
<event>
 9 111   1.0000000E+00   3.1250000E+01   7.8125000E-03   1.5660620E-01
        1   -1    0    0  502    0  0.00000000000E+00  0.00000000000E+00  1.41069504060E+03  1.41069504060E+03  0.00000000000E+00 0.00000000000E+00  1.
       -5   -1    0    0    0  501  0.00000000000E+00  0.00000000000E+00 -6.77523715003E+01  6.77523715003E+01  0.00000000000E+00 0.00000000000E+00  1.
       25    1    1    2    0    0  1.70304527377E+01 -2.25146342856E+01  5.42833782913E+01  1.39171226323E+02  1.25000000000E+02 0.00000000000E+00  1.
       -6    2    1    2    0  501  4.42015841144E+01  6.02136219406E+01  3.26983963291E+02  3.74916288455E+02  1.67523881266E+02 0.00000000000E+00  1.
        2    1    1    2  502    0 -6.12320368521E+01 -3.76989876550E+01  9.61675327519E+02  9.64359897324E+02  2.15791864376E-05 0.00000000000E+00  1.
       -5    1    4    4    0  501 -3.17953115057E+01  4.76697314368E+01  4.89600454714E+01  7.55181678906E+01  4.75000000000E+00 0.00000000000E+00  1.
      -24    2    4    4    0    0  7.59968956201E+01  1.25438905038E+01  2.78023917820E+02  2.99398120565E+02  8.00565948883E+01 0.00000000000E+00  1.
        3    1    7    7  704    0  8.82601837424E+01  2.12293610429E+00  2.62846179267E+02  2.77276902837E+02  0.00000000000E+00 0.00000000000E+00  1.
       -4    1    7    7    0  704 -1.22632881223E+01  1.04209543995E+01  1.51777385529E+01  2.21212177275E+01  3.78477760944E-06 0.00000000000E+00  1.
</event>
<event>
 9 111   1.0000000E+00   3.1250000E+01   7.8125000E-03   1.5660620E-01
        3   -1    0    0  502    0  0.00000000000E+00  0.00000000000E+00  1.43129401018E+03  1.43129401018E+03  0.00000000000E+00 0.00000000000E+00  1.
       -5   -1    0    0    0  501  0.00000000000E+00  0.00000000000E+00 -9.57823199328E+01  9.57823199328E+01  0.00000000000E+00 0.00000000000E+00  1.
       25    1    1    2    0    0 -9.24790250468E+01  1.99787474954E+02  5.79250273856E+02  6.32157642510E+02  1.25000000000E+02 0.00000000000E+00  1.
       -6    2    1    2    0  501  1.00030636899E+02 -1.73189703367E+02  1.86250959003E+02  3.24238050269E+02  1.74470891102E+02 0.00000000000E+00  1.
        4    1    1    2  502    0 -7.55161185237E+00 -2.65977715863E+01  5.70010457387E+02  5.70680637332E+02  7.62939453125E-06 0.00000000000E+00  1.
       -5    1    4    4    0  501  9.49335354260E+01 -2.98691564725E+01  9.05184260230E+01  1.34613114541E+02  4.75000000000E+00 0.00000000000E+00  1.
      -24    2    4    4    0    0  5.09710147319E+00 -1.43320546895E+02  9.57325329796E+01  1.89624935728E+02  7.89058855436E+01 0.00000000000E+00  1.
        1    1    7    7  704    0  2.36336263464E+01 -9.88933198774E+01  2.61038669517E+01  1.04975467994E+02  1.21570098724E-06 0.00000000000E+00  1.
       -2    1    7    7    0  704 -1.85365248732E+01 -4.44272270173E+01  6.96286660280E+01  8.46494677340E+01  1.34869915235E-06 0.00000000000E+00  1.
</event>
<event>
 9 111   1.0000000E+00   3.1250000E+01   7.8125000E-03   1.5660620E-01
        1   -1    0    0  502    0  0.00000000000E+00  0.00000000000E+00  2.17619127754E+03  2.17619127754E+03  0.00000000000E+00 0.00000000000E+00  1.
       -5   -1    0    0    0  501  0.00000000000E+00  0.00000000000E+00 -1.22575644520E+02  1.22575644520E+02  0.00000000000E+00 0.00000000000E+00  1.
       25    1    1    2    0    0  4.27507948348E+01  6.94419377882E+01  1.21643501300E+01  1.49742394120E+02  1.25000000000E+02 0.00000000000E+00  1.
       -6    2    1    2    0  501  1.61273712431E+01 -1.01059571964E+02  1.33404123718E+02  2.39807338918E+02  1.70990556422E+02 0.00000000000E+00  1.
        2    1    1    2  502    0 -5.88781660779E+01  3.16176341759E+01  1.90804715917E+03  1.90921718902E+03  2.15791864376E-05 0.00000000000E+00  1.
       -5    1    4    4    0  501  6.12290148358E+01 -7.13525615822E+01  1.00077589837E+02  1.37398205191E+02  4.75000000000E+00 0.00000000000E+00  1.
      -24    2    4    4    0    0 -4.51016435927E+01 -2.97070103820E+01  3.33265338810E+01  1.02409133727E+02  8.03760417642E+01 0.00000000000E+00  1.
        3    1    7    7  704    0 -2.76957966983E+01 -2.40137427251E+00  5.62433976107E+01  6.27386924309E+01  0.00000000000E+00 0.00000000000E+00  1.
       -2    1    7    7    0  704 -1.74058468944E+01 -2.73056361095E+01 -2.29168637297E+01  3.96704412965E+01  4.76837158203E-07 0.00000000000E+00  1.
</event>
<event>
 9 111   1.0000000E+00   3.1250000E+01   7.8125000E-03   1.5660620E-01
       -5   -1    0    0    0  501  0.00000000000E+00  0.00000000000E+00  1.57909643365E+02  1.57909643365E+02  0.00000000000E+00 0.00000000000E+00  1.
        1   -1    0    0  502    0  0.00000000000E+00  0.00000000000E+00 -9.72366164116E+02  9.72366164116E+02  0.00000000000E+00 0.00000000000E+00  1.
       25    1    1    2    0    0 -9.33912376701E+01  6.41154292567E+01  1.61646172267E+01  1.69466829770E+02  1.25000000000E+02 0.00000000000E+00  1.
       -6    2    1    2    0  501  4.85091310808E+01 -9.92982890730E+01 -1.02418877766E+02  2.30377071990E+02  1.74271864525E+02 0.00000000000E+00  1.
        2    1    1    2  502    0  4.48821065893E+01  3.51828598163E+01 -7.28202260212E+02  7.30431905721E+02  0.00000000000E+00 0.00000000000E+00  1.
       -5    1    4    4    0  501 -4.66050941649E+01 -2.60040990263E+01 -5.92348368629E+01  7.98722502905E+01  4.75000000000E+00 0.00000000000E+00  1.
      -24    2    4    4    0    0  9.51142252457E+01 -7.32941900467E+01 -4.31840409029E+01  1.50504821700E+02  7.98002871394E+01 0.00000000000E+00  1.
        3    1    7    7  704    0  4.48832121831E+01 -1.34433754578E+01 -5.41462033433E+01  7.16033408164E+01  1.50789149292E-06 0.00000000000E+00  1.
       -4    1    7    7    0  704  5.02310130626E+01 -5.98508145889E+01  1.09621624404E+01  7.89014808836E+01  1.36961046375E-06 0.00000000000E+00  1.
</event>
<event>
 9 111   1.0000000E+00   3.1250000E+01   7.8125000E-03   1.5660620E-01
        1   -1    0    0  502    0  0.00000000000E+00  0.00000000000E+00  6.54512883147E+02  6.54512883147E+02  0.00000000000E+00 0.00000000000E+00  1.
       -5   -1    0    0    0  501  0.00000000000E+00  0.00000000000E+00 -6.21964822248E+02  6.21964822248E+02  0.00000000000E+00 0.00000000000E+00  1.
       25    1    1    2    0    0 -3.90780267804E+02  4.43423385496E+00 -3.44589607680E+02  5.35813286375E+02  1.25000000000E+02 0.00000000000E+00  1.
       -6    2    1    2    0  501  3.89248336447E+02 -6.47541991818E+01  8.08322572665E+01  4.38277676909E+02  1.72760222630E+02 0.00000000000E+00  1.
        2    1    1    2  502    0  1.53193135673E+00  6.03199653269E+01  2.96305411313E+02  3.02386742110E+02  8.52992239952E-06 0.00000000000E+00  1.
       -5    1    4    4    0  501  5.09659161003E+00 -2.04551393984E+01  3.41188142412E+01  4.03861852503E+01  4.75000000001E+00 0.00000000000E+00  1.
      -24    2    4    4    0    0  3.84151744837E+02 -4.42990597834E+01  4.67134430253E+01  3.97891491659E+02  8.12436066149E+01 0.00000000000E+00  1.
        1    1    7    7  704    0  2.79084469069E+02 -6.62973330600E+00  5.98451697641E+01  2.85505759282E+02  1.16800772800E-06 0.00000000000E+00  1.
       -2    1    7    7    0  704  1.05067275768E+02 -3.76693264774E+01 -1.31317267387E+01  1.12385732376E+02  1.85446133448E-06 0.00000000000E+00  1.
</event>
<event>
 9 111   1.0000000E+00   3.1250000E+01   7.8125000E-03   1.5660620E-01
        1   -1    0    0  502    0  0.00000000000E+00  0.00000000000E+00  6.91087237241E+02  6.91087237241E+02  0.00000000000E+00 0.00000000000E+00  1.
       -5   -1    0    0    0  501  0.00000000000E+00  0.00000000000E+00 -4.10608569983E+02  4.10608569983E+02  0.00000000000E+00 0.00000000000E+00  1.
       25    1    1    2    0    0 -1.77446864998E+01 -3.81860497250E+01  4.95844365284E+00  1.31994827384E+02  1.25000000000E+02 0.00000000000E+00  1.
       -6    2    1    2    0  501 -7.38772323244E+01  4.01003904305E+01 -3.16594026201E+02  3.70536957613E+02  1.73205002128E+02 0.00000000000E+00  1.
        2    1    1    2  502    0  9.16219188242E+01 -1.91434070558E+00  5.92114249806E+02  5.99164022228E+02  1.70598447990E-05 0.00000000000E+00  1.
       -5    1    4    4    0  501  2.83436751206E+01 -2.00861709864E+01 -1.32411199460E+02  1.36974838662E+02  4.75000000000E+00 0.00000000000E+00  1.
      -24    2    4    4    0    0 -1.02220907445E+02  6.01865614170E+01 -1.84182826741E+02  2.33562118950E+02  8.09716842363E+01 0.00000000000E+00  1.
        3    1    7    7  704    0 -9.87124512537E-01  4.02789349586E+01 -4.68521322107E+01  6.17939261488E+01  1.16800772800E-06 0.00000000000E+00  1.
       -4    1    7    7    0  704 -1.01233782932E+02  1.99076264584E+01 -1.37330694531E+02  1.71768192802E+02  2.69739830470E-06 0.00000000000E+00  1.
</event>
<event>
 9 111   1.0000000E+00   3.1250000E+01   7.8125000E-03   1.5660620E-01
        1   -1    0    0  502    0  0.00000000000E+00  0.00000000000E+00  3.52184889246E+02  3.52184889246E+02  0.00000000000E+00 0.00000000000E+00  1.
       -5   -1    0    0    0  501  0.00000000000E+00  0.00000000000E+00 -2.44806433346E+02  2.44806433346E+02  0.00000000000E+00 0.00000000000E+00  1.
       25    1    1    2    0    0  1.19532020543E+02 -8.07454400140E+01 -8.67737635972E+01  2.09672163309E+02  1.25000000000E+02 0.00000000000E+00  1.
       -6    2    1    2    0  501 -1.24243555742E+01  7.67410414911E+01  3.08800120719E+01  1.92009403203E+02  1.72830795035E+02 0.00000000000E+00  1.
        2    1    1    2  502    0 -1.07107664968E+02  4.00439852295E+00  1.63272207425E+02  1.95309756080E+02  1.90734863281E-06 0.00000000000E+00  1.
       -5    1    4    4    0  501  4.54142530580E+01  7.09870523661E+01 -7.30796747667E+00  8.47206283799E+01  4.75000000000E+00 0.00000000000E+00  1.
      -24    2    4    4    0    0 -5.78386086322E+01  5.75398912495E+00  3.81879795486E+01  1.07288774824E+02  8.16954489661E+01 0.00000000000E+00  1.
        1    1    7    7  704    0 -2.90485782201E+00  3.51980086341E+01  2.35682430574E+00  3.53962234085E+01  1.45299693862E-06 0.00000000000E+00  1.
       -2    1    7    7    0  704 -5.49337508102E+01 -2.94440195092E+01  3.58311552429E+01  7.18925514151E+01  1.58148993986E-06 0.00000000000E+00  1.
</event>
<event>
 9 111   1.0000000E+00   3.1250000E+01   7.8125000E-03   1.5660620E-01
       -5   -1    0    0    0  501  0.00000000000E+00  0.00000000000E+00  4.61901948490E+02  4.61901948490E+02  0.00000000000E+00 0.00000000000E+00  1.
        1   -1    0    0  502    0  0.00000000000E+00  0.00000000000E+00 -2.63602565882E+02  2.63602565882E+02  0.00000000000E+00 0.00000000000E+00  1.
       25    1    1    2    0    0  1.88424611612E+02  6.88057596970E+01  3.16708754108E+02  3.95180340803E+02  1.25000000000E+02 0.00000000000E+00  1.
       -6    2    1    2    0  501 -2.00917290659E+02 -3.31531354011E+01 -7.83999523471E+01  2.75297541201E+02  1.67854983812E+02 0.00000000000E+00  1.
        2    1    1    2  502    0  1.24926790468E+01 -3.56526242959E+01 -4.00094191528E+01  5.50266323692E+01  1.58148993986E-06 0.00000000000E+00  1.
       -5    1    4    4    0  501 -1.76249949568E+01 -1.42569543314E+01  3.66952662078E+01  4.33936199930E+01  4.75000000000E+00 0.00000000000E+00  1.
      -24    2    4    4    0    0 -1.83292295702E+02 -1.88961810697E+01 -1.15095218555E+02  2.31903921208E+02  8.11134268446E+01 0.00000000000E+00  1.
        3    1    7    7  704    0 -1.09051668290E+02 -3.77594880779E+01 -1.02349244382E+02  1.54251136535E+02  2.33601545599E-06 0.00000000000E+00  1.
       -4    1    7    7    0  704 -7.42406274120E+01  1.88633070082E+01 -1.27459741731E+01  7.76527846727E+01  1.54512898884E-06 0.00000000000E+00  1.
</event>
<event>
 9 111   1.0000000E+00   3.1250000E+01   7.8125000E-03   1.5660620E-01
        1   -1    0    0  502    0  0.00000000000E+00  0.00000000000E+00  6.46757933348E+02  6.46757933348E+02  0.00000000000E+00 0.00000000000E+00  1.
       -5   -1    0    0    0  501  0.00000000000E+00  0.00000000000E+00 -1.25535237829E+02  1.25535237829E+02  0.00000000000E+00 0.00000000000E+00  1.
       25    1    1    2    0    0  4.73241237948E+01 -1.12719164643E+01  7.30481274584E+01  1.52733944226E+02  1.25000000000E+02 0.00000000000E+00  1.
       -6    2    1    2    0  501 -1.50650319049E+01 -1.87355889399E+01  9.47727231627E+00  1.78655136832E+02  1.76776304257E+02 0.00000000000E+00  1.
        2    1    1    2  502    0 -3.22590918899E+01  3.00075054042E+01  4.38697295744E+02  4.40904090119E+02  0.00000000000E+00 0.00000000000E+00  1.
       -5    1    4    4    0  501 -2.29478804869E+01  6.39757684885E+01  1.50423332000E+01  6.97734796369E+01  4.75000000000E+00 0.00000000000E+00  1.
      -24    2    4    4    0    0  7.88284858203E+00 -8.27113574284E+01 -5.56506088369E+00  1.08881657195E+02  7.01493935930E+01 0.00000000000E+00  1.
       11    1    7    7    0    0 -1.41017444383E+01  5.30418760880E+00  8.15275897366E+00  1.71307058097E+01  5.11001058883E-04 0.00000000000E+00  1.
      -12    1    7    7    0    0  2.19845930203E+01 -8.80155450372E+01 -1.37178198574E+01  9.17509513853E+01  8.08516738787E-07 0.00000000000E+00  1.
</event>
<event>
 9 111   1.0000000E+00   3.1250000E+01   7.8125000E-03   1.5660620E-01
       -5   -1    0    0    0  501  0.00000000000E+00  0.00000000000E+00  5.00913508894E+02  5.00913508894E+02  0.00000000000E+00 0.00000000000E+00  1.
        1   -1    0    0  502    0  0.00000000000E+00  0.00000000000E+00 -4.47252899399E+02  4.47252899399E+02  0.00000000000E+00 0.00000000000E+00  1.
       25    1    1    2    0    0  3.26736647606E+01  1.13170505969E+02  4.12186208713E+02  4.46539586648E+02  1.25000000000E+02 0.00000000000E+00  1.
       -6    2    1    2    0  501  1.23714193740E+01 -1.03049399715E+02 -7.52775496380E+01  2.14640839432E+02  1.72138751226E+02 0.00000000000E+00  1.
        2    1    1    2  502    0 -4.50450841346E+01 -1.01211062536E+01 -2.83248049579E+02  2.86985982213E+02  5.39479660939E-06 0.00000000000E+00  1.
       -5    1    4    4    0  501  2.72232268725E+01 -1.07194903649E+01 -8.50248722054E+01  9.00433392794E+01  4.75000000000E+00 0.00000000000E+00  1.
      -24    2    4    4    0    0 -1.48518074985E+01 -9.23299093502E+01  9.74732256736E+00  1.24597500152E+02  8.17565801658E+01 0.00000000000E+00  1.
        1    1    7    7  704    0  1.35120677101E+01 -9.45020456716E+01  1.11736235878E+01  9.61148400300E+01  1.41050333574E-06 0.00000000000E+00  1.
       -2    1    7    7    0  704 -2.83638752086E+01  2.17213632134E+00 -1.42630102048E+00  2.84826601224E+01  1.96695327759E-06 0.00000000000E+00  1.
</event>
<event>
 9 111   1.0000000E+00   3.1250000E+01   7.8125000E-03   1.5660620E-01
        1   -1    0    0  502    0  0.00000000000E+00  0.00000000000E+00  1.95356154636E+03  1.95356154636E+03  0.00000000000E+00 0.00000000000E+00  1.
       -5   -1    0    0    0  501  0.00000000000E+00  0.00000000000E+00 -5.97300681217E+02  5.97300681217E+02  0.00000000000E+00 0.00000000000E+00  1.
       25    1    1    2    0    0 -3.62594865263E+01 -1.05543631186E+02 -5.71641626676E+02  5.95695692276E+02  1.25000000000E+02 0.00000000000E+00  1.
       -6    2    1    2    0  501  5.30443075359E+01  3.98949662438E+01  6.57555193514E+02  6.83013346516E+02  1.72403863378E+02 0.00000000000E+00  1.
        2    1    1    2  502    0 -1.67848210096E+01  6.56486649426E+01  1.27034729831E+03  1.27215318879E+03  2.64289979182E-05 0.00000000000E+00  1.
       -5    1    4    4    0  501  9.78326528647E+00 -2.97670205110E+01  2.50813803606E+01  4.04156644206E+01  4.75000000000E+00 0.00000000000E+00  1.
      -24    2    4    4    0    0  4.32610422494E+01  6.96619867548E+01  6.32473813154E+02  6.42597682095E+02  7.86406163122E+01 0.00000000000E+00  1.
       13    1    7    7    0    0  2.73919670000E+01  3.20870351642E+00  5.96895297635E+01  6.57530741625E+01  1.05659999834E-01 0.00000000000E+00  1.
      -14    1    7    7    0    0  1.58690752494E+01  6.64532832384E+01  5.72784283390E+02  5.76844607933E+02  7.62939453125E-06 0.00000000000E+00  1.
</event>
<event>
 9 111   1.0000000E+00   3.1250000E+01   7.8125000E-03   1.5660620E-01
       -5   -1    0    0    0  501  0.00000000000E+00  0.00000000000E+00  8.64469146293E+01  8.64469146293E+01  0.00000000000E+00 0.00000000000E+00  1.
        1   -1    0    0  502    0  0.00000000000E+00  0.00000000000E+00 -8.22177245081E+02  8.22177245081E+02  0.00000000000E+00 0.00000000000E+00  1.
       25    1    1    2    0    0  9.71724956925E+00 -7.63710615631E+01 -1.25755434871E+02  1.93303888691E+02  1.25000000000E+02 0.00000000000E+00  1.
       -6    2    1    2    0  501  3.84770261214E+01  5.95268294701E+01 -1.11757636993E+02  2.14494100458E+02  1.68801732039E+02 0.00000000000E+00  1.
        2    1    1    2  502    0 -4.81942756906E+01  1.68442320930E+01 -4.98217258588E+02  5.00826170561E+02  5.39479660939E-06 0.00000000000E+00  1.
       -5    1    4    4    0  501  1.54963916417E+01 -1.41454537321E+01  2.84099384681E+01  3.56359245560E+01  4.75000000000E+00 0.00000000000E+00  1.
      -24    2    4    4    0    0  2.29806344797E+01  7.36722832021E+01 -1.40167575461E+02  1.78858175902E+02  7.99223560911E+01 0.00000000000E+00  1.
        3    1    7    7  704    0 -2.03826542261E+01  4.49780659522E+00 -6.35687207795E+01  6.69078853276E+01  1.65181236989E-06 0.00000000000E+00  1.
       -4    1    7    7    0  704  4.33632887058E+01  6.91744766069E+01 -7.65988546812E+01  1.11950290574E+02  9.53674316406E-07 0.00000000000E+00  1.
</event>
<event>
 9 111   1.0000000E+00   3.1250000E+01   7.8125000E-03   1.5660620E-01
       -5   -1    0    0    0  501  0.00000000000E+00  0.00000000000E+00  3.06349449557E+01  3.06349449557E+01  0.00000000000E+00 0.00000000000E+00  1.
        1   -1    0    0  502    0  0.00000000000E+00  0.00000000000E+00 -2.29736444307E+03  2.29736444307E+03  0.00000000000E+00 0.00000000000E+00  1.
       25    1    1    2    0    0  4.09669081163E+00  1.94986725504E+01 -2.56770172218E+02  2.86274173561E+02  1.25000000000E+02 0.00000000000E+00  1.
       -6    2    1    2    0  501  1.13931934813E+02 -6.90092051106E+01 -9.97194342640E+02  1.02090448554E+03  1.73512695312E+02 0.00000000000E+00  1.
        2    1    1    2  502    0 -1.18028625625E+02  4.95105325603E+01 -1.01276498325E+03  1.02082072893E+03  1.86881236479E-05 0.00000000000E+00  1.
       -5    1    4    4    0  501  9.86453816209E+01 -7.46829421665E+01 -7.47656602021E+02  7.57839963456E+02  4.75000000000E+00 0.00000000000E+00  1.
      -24    2    4    4    0    0  1.52865531924E+01  5.67373705586E+00 -2.49537740620E+02  2.63064522081E+02  8.16577539691E+01 0.00000000000E+00  1.
        1    1    7    7  704    0 -1.75209159874E+01  1.42020864562E+01 -2.09036134559E+02  2.10249345560E+02  0.00000000000E+00 0.00000000000E+00  1.
       -2    1    7    7    0  704  3.28074691798E+01 -8.52834940038E+00 -4.05016060601E+01  5.28151765208E+01  3.84438407340E-06 0.00000000000E+00  1.
</event>
<event>
 9 111   1.0000000E+00   3.1250000E+01   7.8125000E-03   1.5660620E-01
       -5   -1    0    0    0  501  0.00000000000E+00  0.00000000000E+00  1.28471620193E+02  1.28471620193E+02  0.00000000000E+00 0.00000000000E+00  1.
        1   -1    0    0  502    0  0.00000000000E+00  0.00000000000E+00 -3.26663425785E+03  3.26663425785E+03  0.00000000000E+00 0.00000000000E+00  1.
       25    1    1    2    0    0 -8.77930169722E+01 -1.42731177064E+01 -4.07737474968E+02  4.35644561783E+02  1.25000000000E+02 0.00000000000E+00  1.
       -6    2    1    2    0  501  1.61761622967E+02 -2.53161557979E+01 -1.10194842817E+01  2.38761790585E+02  1.73430196910E+02 0.00000000000E+00  1.
        2    1    1    2  502    0 -7.39686059947E+01  3.95892735044E+01 -2.71940567841E+03  2.72069952567E+03  4.31583728752E-05 0.00000000000E+00  1.
       -5    1    4    4    0  501 -1.92619724600E+01  2.54563787849E+01  7.73322588643E+00  3.31875893445E+01  4.75000000000E+00 0.00000000000E+00  1.
      -24    2    4    4    0    0  1.81023595427E+02 -5.07725345828E+01 -1.87527101681E+01  2.05574201240E+02  8.10042943777E+01 0.00000000000E+00  1.
       15    1    7    7    0    0  1.80080340977E+02 -2.83982028524E+01 -1.61166698744E+01  1.83025384026E+02  1.77680000000E+00 0.00000000000E+00  1.
      -16    1    7    7    0    0  9.43254449796E-01 -2.23743317304E+01 -2.63604029369E+00  2.25488172144E+01  2.01336690832E-06 0.00000000000E+00  1.
</event>
<event>
 9 111   1.0000000E+00   3.1250000E+01   7.8125000E-03   1.5660620E-01
        1   -1    0    0  502    0  0.00000000000E+00  0.00000000000E+00  2.54814569243E+03  2.54814569243E+03  0.00000000000E+00 0.00000000000E+00  1.
       -5   -1    0    0    0  501  0.00000000000E+00  0.00000000000E+00 -7.18793667566E+01  7.18793667566E+01  0.00000000000E+00 0.00000000000E+00  1.
       25    1    1    2    0    0  1.24708985007E+01  1.90699804039E+02  5.06841644316E+02  5.55909516903E+02  1.25000000000E+02 0.00000000000E+00  1.
       -6    2    1    2    0  501 -1.07426800615E+02 -2.70942544405E+02  5.99722633469E+02  6.88783138566E+02  1.72640073617E+02 0.00000000000E+00  1.
        2    1    1    2  502    0  9.49559021146E+01  8.02427403658E+01  1.36970204788E+03  1.37533240371E+03  1.52587890625E-05 0.00000000000E+00  1.
       -5    1    4    4    0  501 -2.73175147093E+01 -8.52577286971E+01  6.27657823712E+01  1.09440544814E+02  4.75000000000E+00 0.00000000000E+00  1.
      -24    2    4    4    0    0 -8.01092859059E+01 -1.85684815708E+02  5.36956851098E+02  5.79342593752E+02  8.01176167988E+01 0.00000000000E+00  1.
       13    1    7    7    0    0 -5.14776050824E+01 -1.42108054268E+02  2.90904940622E+02  3.27826689815E+02  1.05659999746E-01 0.00000000000E+00  1.
      -14    1    7    7    0    0 -2.86316808235E+01 -4.35767614403E+01  2.46051910476E+02  2.51515903937E+02  2.69739830470E-06 0.00000000000E+00  1.
</event>
<event>
 9 111   1.0000000E+00   3.1250000E+01   7.8125000E-03   1.5660620E-01
        1   -1    0    0  502    0  0.00000000000E+00  0.00000000000E+00  1.91422757971E+03  1.91422757971E+03  0.00000000000E+00 0.00000000000E+00  1.
       -5   -1    0    0    0  501  0.00000000000E+00  0.00000000000E+00 -6.62132150971E+01  6.62132150971E+01  0.00000000000E+00 0.00000000000E+00  1.
       25    1    1    2    0    0  5.98584769159E+01 -1.34336736100E+02  2.31604054416E+02  3.01487701153E+02  1.25000000000E+02 0.00000000000E+00  1.
       -6    2    1    2    0  501 -9.70257076246E+00 -4.32387003338E+01  3.09928685583E+02  3.59505146216E+02  1.76704371542E+02 0.00000000000E+00  1.
        2    1    1    2  502    0 -5.01559061534E+01  1.77575436433E+02  1.30648162461E+03  1.31944794743E+03  2.15791864376E-05 0.00000000000E+00  1.
       -5    1    4    4    0  501  2.01783697508E+01 -7.90045959887E+01  1.67835585925E+02  1.86655402268E+02  4.75000000000E+00 0.00000000000E+00  1.
      -24    2    4    4    0    0 -2.98809405133E+01  3.57658956549E+01  1.42093099658E+02  1.72849743947E+02  8.66863029211E+01 0.00000000000E+00  1.
       15    1    7    7    0    0 -4.79794299206E+01  1.12400749269E+01  1.31728112200E+02  1.40654959180E+02  1.77680000000E+00 0.00000000000E+00  1.
      -16    1    7    7    0    0  1.80984894073E+01  2.45258207280E+01  1.03649874585E+01  3.21947847675E+01  1.27280691290E-06 0.00000000000E+00  1.
</event>
<event>
 9 111   1.0000000E+00   3.1250000E+01   7.8125000E-03   1.5660620E-01
       -5   -1    0    0    0  501  0.00000000000E+00  0.00000000000E+00  2.13256698947E+02  2.13256698947E+02  0.00000000000E+00 0.00000000000E+00  1.
        1   -1    0    0  502    0  0.00000000000E+00  0.00000000000E+00 -1.19161338850E+03  1.19161338850E+03  0.00000000000E+00 0.00000000000E+00  1.
       25    1    1    2    0    0  2.37544348569E+01 -2.70549515420E+01  9.27985927492E+00  1.30412266933E+02  1.25000000000E+02 0.00000000000E+00  1.
       -6    2    1    2    0  501 -1.25739674164E+02 -1.36137751893E+02  1.44241330588E+01  2.54086095273E+02  1.73227408476E+02 0.00000000000E+00  1.
        2    1    1    2  502    0  1.01985239307E+02  1.63192703435E+02 -1.00206068189E+03  1.02037172525E+03  0.00000000000E+00 0.00000000000E+00  1.
       -5    1    4    4    0  501 -1.07404461395E+02 -1.13786428959E+02 -2.95608634918E+01  1.59309374781E+02  4.75000000000E+00 0.00000000000E+00  1.
      -24    2    4    4    0    0 -1.83352127682E+01 -2.23513229341E+01  4.39849965507E+01  9.47767204919E+01  7.88174166125E+01 0.00000000000E+00  1.
        3    1    7    7  704    0  5.67572178032E+00 -1.36566337807E+01 -2.05813143035E+01  2.53437953434E+01  4.12953092472E-07 0.00000000000E+00  1.
       -2    1    7    7    0  704 -2.40109345486E+01 -8.69468915332E+00  6.45663108541E+01  6.94329251485E+01  9.53674316406E-07 0.00000000000E+00  1.
</event>
<event>
 9 111   1.0000000E+00   3.1250000E+01   7.8125000E-03   1.5660620E-01
       -5   -1    0    0    0  501  0.00000000000E+00  0.00000000000E+00  3.87617989486E+02  3.87617989486E+02  0.00000000000E+00 0.00000000000E+00  1.
        1   -1    0    0  502    0  0.00000000000E+00  0.00000000000E+00 -1.41089939389E+03  1.41089939389E+03  0.00000000000E+00 0.00000000000E+00  1.
       25    1    1    2    0    0 -1.11057165297E+02 -6.15560888499E+01  2.05077401712E+02  2.71669996008E+02  1.25000000000E+02 0.00000000000E+00  1.
       -6    2    1    2    0  501  8.25711260154E+01  5.49750160846E+01  8.08479607330E+01  2.17314217373E+02  1.75638358774E+02 0.00000000000E+00  1.
        2    1    1    2  502    0  2.84860392813E+01  6.58107276523E+00 -1.30920676685E+03  1.30953316999E+03  3.05175781250E-05 0.00000000000E+00  1.
       -5    1    4    4    0  501  8.76930910547E+01 -1.32829388773E+00 -2.93989133902E+00  8.78808741677E+01  4.75000000000E+00 0.00000000000E+00  1.
      -24    2    4    4    0    0 -5.12196503929E+00  5.63033099724E+01  8.37878520720E+01  1.29433343205E+02  8.08473186858E+01 0.00000000000E+00  1.
       13    1    7    7    0    0  2.91891562334E+01  5.65864857378E+01  4.70873714118E+01  7.91913437206E+01  1.05659999995E-01 0.00000000000E+00  1.
      -14    1    7    7    0    0 -3.43111212727E+01 -2.83175765392E-01  3.67004806602E+01  5.02419994844E+01  1.43051147461E-06 0.00000000000E+00  1.
</event>
<event>
 9 111   1.0000000E+00   3.1250000E+01   7.8125000E-03   1.5660620E-01
        1   -1    0    0  502    0  0.00000000000E+00  0.00000000000E+00  6.45135630575E+02  6.45135630575E+02  0.00000000000E+00 0.00000000000E+00  1.
       -5   -1    0    0    0  501  0.00000000000E+00  0.00000000000E+00 -6.77448714506E+02  6.77448714506E+02  0.00000000000E+00 0.00000000000E+00  1.
       25    1    1    2    0    0  6.35370111582E+01  8.35066313973E+01 -1.01149596138E+02  1.92006640700E+02  1.25000000000E+02 0.00000000000E+00  1.
       -6    2    1    2    0  501 -5.68867262560E+01 -1.09466394176E+01 -5.12907526359E+02  5.44288266363E+02  1.72683692822E+02 0.00000000000E+00  1.
        2    1    1    2  502    0 -6.65028490222E+00 -7.25599919797E+01  5.81744038565E+02  5.86289438018E+02  1.32144989591E-05 0.00000000000E+00  1.
       -5    1    4    4    0  501 -7.31217991017E+01 -4.96363619139E+01 -3.05918646112E+02  3.18464042659E+02  4.75000000000E+00 0.00000000000E+00  1.
      -24    2    4    4    0    0  1.62350728457E+01  3.86897224963E+01 -2.06988880247E+02  2.25824223704E+02  7.99481785191E+01 0.00000000000E+00  1.
        3    1    7    7  704    0 -8.97478628694E+00  3.90455723225E+01 -3.88550708439E+01  5.58105728081E+01  1.58148993986E-06 0.00000000000E+00  1.
       -4    1    7    7    0  704  2.52098591326E+01 -3.55849826178E-01 -1.68133809403E+02  1.70013650896E+02  1.90734863281E-06 0.00000000000E+00  1.
</event>
<event>
 9 111   1.0000000E+00   3.1250000E+01   7.8125000E-03   1.5660620E-01
       -5   -1    0    0    0  501  0.00000000000E+00  0.00000000000E+00  8.78331115415E+01  8.78331115415E+01  0.00000000000E+00 0.00000000000E+00  1.
        1   -1    0    0  502    0  0.00000000000E+00  0.00000000000E+00 -2.93483624506E+03  2.93483624506E+03  0.00000000000E+00 0.00000000000E+00  1.
       25    1    1    2    0    0 -1.51980599405E+02  4.51792823279E+01 -2.52845696223E+02  3.23566401603E+02  1.25000000000E+02 0.00000000000E+00  1.
       -6    2    1    2    0  501  9.23174825388E+01  2.12623223989E+01 -1.35844656822E+02  2.39168829664E+02  1.72549570731E+02 0.00000000000E+00  1.
        2    1    1    2  502    0  5.96631168666E+01 -6.64416047269E+01 -2.45831278047E+03  2.45993412534E+03  3.05175781250E-05 0.00000000000E+00  1.
       -5    1    4    4    0  501  1.47650316064E+01  2.03887415860E+01 -1.23684131914E+02  1.26309278872E+02  4.75000000000E+00 0.00000000000E+00  1.
      -24    2    4    4    0    0  7.75524509324E+01  8.73580812904E-01 -1.21605249085E+01  1.12859550792E+02  8.10817738454E+01 0.00000000000E+00  1.
        1    1    7    7  704    0  6.03601916773E+01  3.65836428040E+01 -1.78931438223E+01  7.28140113987E+01  7.53945746462E-07 0.00000000000E+00  1.
       -2    1    7    7    0  704  1.71922592552E+01 -3.57100619911E+01  5.73261891378E+00  4.00455393935E+01  6.13667377292E-07 0.00000000000E+00  1.
</event>
<event>
 9 111   1.0000000E+00   3.1250000E+01   7.8125000E-03   1.5660620E-01
        1   -1    0    0  502    0  0.00000000000E+00  0.00000000000E+00  3.01877533204E+02  3.01877533204E+02  0.00000000000E+00 0.00000000000E+00  1.
       -5   -1    0    0    0  501  0.00000000000E+00  0.00000000000E+00 -5.04873262084E+02  5.04873262084E+02  0.00000000000E+00 0.00000000000E+00  1.
       25    1    1    2    0    0  2.48595448383E+01 -1.34604008853E+02 -1.88694962935E+02  2.64512807263E+02  1.25000000000E+02 0.00000000000E+00  1.
       -6    2    1    2    0  501 -3.10102455772E+01  1.14757891865E+02 -2.37668176586E+02  3.17906314792E+02  1.74491414536E+02 0.00000000000E+00  1.
        2    1    1    2  502    0  6.15070073885E+00  1.98461169881E+01  2.23367410642E+02  2.24331673234E+02  6.03156597170E-06 0.00000000000E+00  1.
       -5    1    4    4    0  501 -1.02503844487E+00  1.16639737508E+02 -1.78302837116E+02  2.13120490083E+02  4.75000000000E+00 0.00000000000E+00  1.
      -24    2    4    4    0    0 -2.99852071323E+01 -1.88184564225E+00 -5.93653394703E+01  1.04785824709E+02  8.09516617477E+01 0.00000000000E+00  1.
        1    1    7    7  704    0  8.77980531688E+00  3.16825049175E+01 -1.20521843605E+01  3.50160141522E+01  1.26159253648E-06 0.00000000000E+00  1.
       -2    1    7    7    0  704 -3.87650124492E+01 -3.35643505597E+01 -4.73131551098E+01  6.97698105567E+01  6.74349576174E-07 0.00000000000E+00  1.
</event>
<event>
 9 111   1.0000000E+00   3.1250000E+01   7.8125000E-03   1.5660620E-01
        1   -1    0    0  502    0  0.00000000000E+00  0.00000000000E+00  1.00842802472E+03  1.00842802472E+03  0.00000000000E+00 0.00000000000E+00  1.
       -5   -1    0    0    0  501  0.00000000000E+00  0.00000000000E+00 -3.94051329424E+02  3.94051329424E+02  0.00000000000E+00 0.00000000000E+00  1.
       25    1    1    2    0    0  3.58255801071E+01 -4.99785682342E+01 -3.07617763923E+02  3.37690713751E+02  1.25000000000E+02 0.00000000000E+00  1.
       -6    2    1    2    0  501 -9.29300284266E+01  3.56561526789E+01  6.13944426311E+01  2.02177234163E+02  1.64921208523E+02 0.00000000000E+00  1.
        2    1    1    2  502    0  5.71044483195E+01  1.43224155553E+01  8.60600016591E+02  8.62611406232E+02  1.52587890625E-05 0.00000000000E+00  1.
       -5    1    4    4    0  501 -8.88209631742E+01 -2.53922613364E+01  3.46217215838E+01  9.87681959965E+01  4.75000000000E+00 0.00000000000E+00  1.
      -24    2    4    4    0    0 -4.10906525235E+00  6.10484140153E+01  2.67727210472E+01  1.03409038167E+02  7.89484471743E+01 0.00000000000E+00  1.
       11    1    7    7    0    0 -2.05638793957E+01  3.08949947112E+01  4.97601277808E+01  6.20761157856E+01  5.10998597706E-04 0.00000000000E+00  1.
      -12    1    7    7    0    0  1.64548141434E+01  3.01534193041E+01 -2.29874067335E+01  4.13329223810E+01  1.30587233902E-06 0.00000000000E+00  1.
</event>
<event>
 9 111   1.0000000E+00   3.1250000E+01   7.8125000E-03   1.5660620E-01
        1   -1    0    0  502    0  0.00000000000E+00  0.00000000000E+00  1.98810367782E+03  1.98810367782E+03  0.00000000000E+00 0.00000000000E+00  1.
       -5   -1    0    0    0  501  0.00000000000E+00  0.00000000000E+00 -2.30747793565E+02  2.30747793565E+02  0.00000000000E+00 0.00000000000E+00  1.
       25    1    1    2    0    0 -1.49180877026E+02  6.42020301247E+01  1.22248797553E+03  1.23954777442E+03  1.25000000000E+02 0.00000000000E+00  1.
       -6    2    1    2    0  501  7.79100610303E+01  1.88610521944E+01 -1.76933418839E+02  2.59136956014E+02  1.71524955534E+02 0.00000000000E+00  1.
        2    1    1    2  502    0  7.12708159961E+01 -8.30630823191E+01  7.11801327557E+02  7.20166740949E+02  1.86881236479E-05 0.00000000000E+00  1.
       -5    1    4    4    0  501 -1.00316484096E+01  5.73094990646E+01 -9.00392993044E+01  1.07306339850E+02  4.75000000000E+00 0.00000000000E+00  1.
      -24    2    4    4    0    0  8.79417094399E+01 -3.84484468702E+01 -8.68941195341E+01  1.51830616164E+02  7.93090200996E+01 0.00000000000E+00  1.
       15    1    7    7    0    0  6.79921664749E+01 -8.85938790205E+00 -9.30700351990E+01  1.15614064569E+02  1.77680000000E+00 0.00000000000E+00  1.
      -16    1    7    7    0    0  1.99495429650E+01 -2.95890589682E+01  6.17591566491E+00  3.62165515950E+01  8.30196635555E-07 0.00000000000E+00  1.
</event>
<event>
 9 111   1.0000000E+00   3.1250000E+01   7.8125000E-03   1.5660620E-01
        1   -1    0    0  502    0  0.00000000000E+00  0.00000000000E+00  4.15754447952E+03  4.15754447952E+03  0.00000000000E+00 0.00000000000E+00  1.
       -5   -1    0    0    0  501  0.00000000000E+00  0.00000000000E+00 -1.36504295915E+02  1.36504295915E+02  0.00000000000E+00 0.00000000000E+00  1.
       25    1    1    2    0    0 -1.24788329354E+02  6.56736590655E+01 -1.67327082647E+01  1.89182822064E+02  1.25000000000E+02 0.00000000000E+00  1.
       -6    2    1    2    0  501  1.74185139452E+02 -1.85948737382E+01  4.27327758366E+02  4.93776018336E+02  1.74698343089E+02 0.00000000000E+00  1.
        2    1    1    2  502    0 -4.93968100976E+01 -4.70787853273E+01  3.61044513351E+03  3.61108993504E+03  4.31583728752E-05 0.00000000000E+00  1.
       -5    1    4    4    0  501  6.48096368542E+01 -5.95755303823E+01  2.60211859001E+02  2.74740435528E+02  4.75000000000E+00 0.00000000000E+00  1.
      -24    2    4    4    0    0  1.09375502598E+02  4.09806566441E+01  1.67115899366E+02  2.19035582808E+02  8.00402894037E+01 0.00000000000E+00  1.
        3    1    7    7  704    0  8.30670662098E+01 -9.52621147147E+00  1.12155512957E+02  1.39891905700E+02  2.69739830470E-06 0.00000000000E+00  1.
       -4    1    7    7    0  704  2.63084363877E+01  5.05068681155E+01  5.49603864085E+01  7.91436771080E+01  6.74349576174E-07 0.00000000000E+00  1.
</event>
<event>
 9 111   1.0000000E+00   3.1250000E+01   7.8125000E-03   1.5660620E-01
        1   -1    0    0  502    0  0.00000000000E+00  0.00000000000E+00  3.06311853717E+03  3.06311853717E+03  0.00000000000E+00 0.00000000000E+00  1.
       -5   -1    0    0    0  501  0.00000000000E+00  0.00000000000E+00 -4.56415453225E+02  4.56415453225E+02  0.00000000000E+00 0.00000000000E+00  1.
       25    1    1    2    0    0 -2.86118163705E+02 -6.65355535318E+01 -4.18476280881E+01  3.21973302406E+02  1.25000000000E+02 0.00000000000E+00  1.
       -6    2    1    2    0  501  2.38481007899E+02 -8.43264313827E+00 -1.94563202122E+02  3.53059631917E+02  1.72777207613E+02 0.00000000000E+00  1.
        2    1    1    2  502    0  4.76371558065E+01  7.49681966701E+01  2.84311391415E+03  2.84450105607E+03  4.31583728752E-05 0.00000000000E+00  1.
       -5    1    4    4    0  501  2.04039090964E+02  1.23449798823E+01 -1.27840506840E+02  2.41143332603E+02  4.75000000000E+00 0.00000000000E+00  1.
      -24    2    4    4    0    0  3.44419169344E+01 -2.07776230206E+01 -6.67226952824E+01  1.11916299314E+02  8.03454088662E+01 0.00000000000E+00  1.
        3    1    7    7  704    0  5.23264100863E+01 -3.81067704308E+01 -5.15999021514E+01  8.27812119217E+01  0.00000000000E+00 0.00000000000E+00  1.
       -4    1    7    7    0  704 -1.78844931520E+01  1.73291474102E+01 -1.51227931310E+01  2.91350873922E+01  7.15255737305E-07 0.00000000000E+00  1.
</event>
<event>
 9 111   1.0000000E+00   3.1250000E+01   7.8125000E-03   1.5660620E-01
        1   -1    0    0  502    0  0.00000000000E+00  0.00000000000E+00  1.23132207489E+03  1.23132207489E+03  0.00000000000E+00 0.00000000000E+00  1.
       -5   -1    0    0    0  501  0.00000000000E+00  0.00000000000E+00 -6.06167640322E+01  6.06167640322E+01  0.00000000000E+00 0.00000000000E+00  1.
       25    1    1    2    0    0  1.08714985868E+01  1.84890900630E+01  1.82841869523E+02  2.22522325135E+02  1.25000000000E+02 0.00000000000E+00  1.
       -6    2    1    2    0  501 -2.91679849855E+01  5.64397765259E+01  1.81546525137E+02  2.59418942304E+02  1.74077072339E+02 0.00000000000E+00  1.
        2    1    1    2  502    0  1.82964863987E+01 -7.49288665889E+01  8.06316916198E+02  8.09997571484E+02  1.07895932188E-05 0.00000000000E+00  1.
       -5    1    4    4    0  501 -7.53401798051E+01  5.56496569860E+01  8.47531727696E+01  1.26406842419E+02  4.75000000000E+00 0.00000000000E+00  1.
      -24    2    4    4    0    0  4.61721948196E+01  7.90119539956E-01  9.67933523678E+01  1.33012099885E+02  7.86814450165E+01 0.00000000000E+00  1.
       15    1    7    7    0    0  1.04589745942E+01  7.48092263289E+00  9.57880211842E+01  9.66636248732E+01  1.77680000000E+00 0.00000000000E+00  1.
      -16    1    7    7    0    0  3.57132202254E+01 -6.69080309293E+00  1.00533118361E+00  3.63484750119E+01  9.40781481127E-07 0.00000000000E+00  1.
</event>
</LesHouchesEvents>
