<LesHouchesEvents version="1.0">
<!--
Output from the JHUGenerator v7.5.0 described in arXiv:1001.3396 [hep-ph], arXiv:1208.4018 [hep-ph], arXiv:1309.4819 [hep-ph], arXiv:1606.03107 [hep-ph]
   
   Command line: ./JHUGen Seed=765543533 PDFSet=3 Process=113 VegasNc0=100000 VegasNc2=100 DataFile=compare_to_reference/tqH_113 TopDK=1 DecayMode1=11 ghg2=0.383432074687728,0.918260989345657 ghg3=6294.49296087723,2253.12941717723 ghg4=0.335495485382528,0.17285803562226 ghz1=0.154934976270359,0.453918144016304 ghz2=0.469297059144414,0.745302300947002 ghz3=3947.40921062637,3597.4885961919 ghz4=0.177791270766536,0.920170534486048 ghzgs2=0.0240331049939919,0.232175381101053 ghzgs3=0.331962910170583,0.0450183240308457 ghzgs4=0.808286540247172,0.133184346613754 ghgsgs2=0.530394804029869,0.211218112389125 ghgsgs3=0.914978695198138,0.055650585081425 ghgsgs4=0.694524307167701,0.511424456076726 ghz1_prime=0.143354267833606,0.0910761280837012 ghz1_prime2=7416.7007267243,4861.35525489789 ghz1_prime3=4431.44656075298,4436.48625894176 ghz1_prime4=2441.69123517064,6946.16318931911 ghz1_prime5=78314042.889773,69465359.939181 ghz1_prime6=51233058.8130761,29537873.5850789 ghz1_prime7=47832192.9001564,59559649.9633293 g
   
   Input Parameter:
    Collider: P-P, sqrt(s)=13000.00
    Resonance: spin=0, mass= 125.00 width=   0.00407
    DecayMode1:11
    W boson: mass=80.399, width=2.0850
    Top quark mass=173.2000, width=2.0000
    Top quark decay= 1
    Random seed:   765543533
    To reproduce results using this seed, JHUGen should be compiled with the same compiler:
      GNU Fortran (GCC) 6.3.0
    
    WidthScheme:   2
    PDFSet:   3
    Unweighted: T
    
    
    LHE output: compare_to_reference/tqH_113.lhe
    Histogram output: compare_to_reference/tqH_113.dat
    Log file: compare_to_reference/tqH_113.log
    
-->
<init>
2212 2212   6500.0000000000000000    6500.0000000000000000 0 0  263000  263000  3  1
 3.8693553E-01  4.2618367E-03  1.0000000E+00 113
</init>
<event>
 9 113   1.0000000E+00   7.4550000E+01   7.8125000E-03   1.3429423E-01
       -2   -1    0    0    0  501  0.00000000000E+00  0.00000000000E+00  5.88825273547E+02  5.88825273547E+02  0.00000000000E+00  0.00000000000E+00  1.
        1   -1    0    0  501    0  0.00000000000E+00  0.00000000000E+00 -7.68981173205E+01  7.68981173205E+01  0.00000000000E+00  0.00000000000E+00  1.
       25    1    1    2    0    0  5.79938572536E+01 -9.81764799742E+01  2.03499657279E+02  2.64648860213E+02  1.25000000000E+02  0.00000000000E+00  1.
       -6    2    1    2    0  502 -9.08668329666E+01  8.13978658713E+01  2.15095018285E+02  3.00709664441E+02  1.71108274188E+02  0.00000000000E+00  1.
        5    1    1    2  502    0  3.28729757130E+01  1.67786141029E+01  9.33324806626E+01  1.00364866214E+02  1.34869915235E-06  0.00000000000E+00  1.
       -5    1    4    4    0  502 -7.14271127016E+01  1.01501041836E+02  1.18135059776E+02  1.71413969008E+02  4.75000000000E+00  0.00000000000E+00  1.
      -24    2    4    4    0    0 -1.94397202650E+01 -2.01031759650E+01  9.69599585087E+01  1.29295695433E+02  8.08337979787E+01  0.00000000000E+00  1.
        3    1    7    7  704    0  1.05834181674E+01 -2.41485984496E+01 -1.37325808034E+00  2.64016928423E+01  1.98409394957E-06  0.00000000000E+00  1.
       -4    1    7    7    0  704 -3.00231384324E+01  4.04542248461E+00  9.83332165890E+01  1.02894002591E+02  1.90734863281E-06  0.00000000000E+00  1.
</event>
<event>
 9 113   1.0000000E+00   7.4550000E+01   7.8125000E-03   1.3429423E-01
        1   -1    0    0  501    0  0.00000000000E+00  0.00000000000E+00  8.57059908466E+02  8.57059908466E+02  0.00000000000E+00  0.00000000000E+00  1.
       -2   -1    0    0    0  501  0.00000000000E+00  0.00000000000E+00 -6.49452088091E+01  6.49452088091E+01  0.00000000000E+00  0.00000000000E+00  1.
       25    1    1    2    0    0  1.73578992052E+01 -1.61444392216E+01  9.09211704457E+01  1.56376465038E+02  1.25000000000E+02  0.00000000000E+00  1.
       -6    2    1    2    0  502  2.56285400654E+01 -6.12778020815E+01  2.84016265557E+02  3.39156019211E+02  1.73060033435E+02  0.00000000000E+00  1.
        5    1    1    2  502    0 -4.29864392707E+01  7.74222413031E+01  4.17177263654E+02  4.26472633025E+02  5.39479660939E-06  0.00000000000E+00  1.
       -5    1    4    4    0  502  4.88074039468E+01 -8.28015754674E+01  1.69519430184E+02  1.94929893269E+02  4.75000000000E+00  0.00000000000E+00  1.
      -24    2    4    4    0    0 -2.31788638814E+01  2.15237733859E+01  1.14496835372E+02  1.44226125942E+02  8.17992514781E+01  0.00000000000E+00  1.
        3    1    7    7  704    0 -3.09758200175E+01  4.25596082502E+01  1.09125519617E+02  1.21157751349E+02  0.00000000000E+00  0.00000000000E+00  1.
       -4    1    7    7    0  704  7.79695613609E+00 -2.10358348643E+01  5.37131575485E+00  2.30683745931E+01  1.03238273118E-07  0.00000000000E+00  1.
</event>
<event>
 9 113   1.0000000E+00   7.4550000E+01   7.8125000E-03   1.3429423E-01
        1   -1    0    0  501    0  0.00000000000E+00  0.00000000000E+00  1.58204275284E+02  1.58204275284E+02  0.00000000000E+00  0.00000000000E+00  1.
       -2   -1    0    0    0  501  0.00000000000E+00  0.00000000000E+00 -3.01646285774E+02  3.01646285774E+02  0.00000000000E+00  0.00000000000E+00  1.
       25    1    1    2    0    0 -4.89958000710E+01 -9.88467908443E+01 -1.18361139737E+02  2.04464265544E+02  1.25000000000E+02  0.00000000000E+00  1.
       -6    2    1    2    0  502  3.63096306691E+01  9.49068656100E+01 -6.59119888833E+01  2.12448641726E+02  1.74540346836E+02  0.00000000000E+00  1.
        5    1    1    2  502    0  1.26861694019E+01  3.93992523437E+00  4.08311181301E+01  4.29376537866E+01  1.16800772800E-06  0.00000000000E+00  1.
       -5    1    4    4    0  502  3.74005931718E+01 -1.43604465458E+00 -7.74650855687E+01  8.61641954412E+01  4.75000000000E+00  0.00000000000E+00  1.
      -24    2    4    4    0    0 -1.09096250271E+00  9.63429102645E+01  1.15530966854E+01  1.26284446285E+02  8.08154735991E+01  0.00000000000E+00  1.
        3    1    7    7  704    0  8.76944385275E+00  5.75122391858E+01  4.54337614380E+01  7.38159026231E+01  1.34869915235E-06  0.00000000000E+00  1.
       -4    1    7    7    0  704 -9.86040635546E+00  3.88306710787E+01 -3.38806647526E+01  5.24685436619E+01  1.16800772800E-06  0.00000000000E+00  1.
</event>
<event>
 9 113   1.0000000E+00   7.4550000E+01   7.8125000E-03   1.3429423E-01
        1   -1    0    0  501    0  0.00000000000E+00  0.00000000000E+00  1.14759817800E+03  1.14759817800E+03  0.00000000000E+00  0.00000000000E+00  1.
       -2   -1    0    0    0  501  0.00000000000E+00  0.00000000000E+00 -6.41465215754E+01  6.41465215754E+01  0.00000000000E+00  0.00000000000E+00  1.
       25    1    1    2    0    0 -7.73100103253E+01 -1.19538131681E+02  2.49405340974E+02  3.13199978813E+02  1.25000000000E+02  0.00000000000E+00  1.
       -6    2    1    2    0  502  3.25691335820E+01  4.03550641203E+00  2.72233211363E+02  3.23239092056E+02  1.71159444642E+02  0.00000000000E+00  1.
        5    1    1    2  502    0  4.47408767433E+01  1.15502625269E+02  5.61813104087E+02  5.75305628704E+02  1.07895932188E-05  0.00000000000E+00  1.
       -5    1    4    4    0  502  6.62506966339E+00 -3.62529597305E+01  2.04239668511E+02  2.07592324835E+02  4.75000000001E+00  0.00000000000E+00  1.
      -24    2    4    4    0    0  2.59440639186E+01  4.02884661426E+01  6.79935428523E+01  1.15646767221E+02  8.03417571521E+01  0.00000000000E+00  1.
       11    1    7    7    0    0  4.00947769750E+01  1.19068357638E+01  7.24153909027E+01  8.36262681126E+01  5.11002157370E-04  0.00000000000E+00  1.
      -12    1    7    7    0    0 -1.41507130564E+01  2.83816303787E+01 -4.42184805042E+00  3.20204991082E+01  1.97686242482E-06  0.00000000000E+00  1.
</event>
<event>
 9 113   1.0000000E+00   7.4550000E+01   7.8125000E-03   1.3429423E-01
        1   -1    0    0  501    0  0.00000000000E+00  0.00000000000E+00  1.22989579382E+03  1.22989579382E+03  0.00000000000E+00  0.00000000000E+00  1.
       -2   -1    0    0    0  501  0.00000000000E+00  0.00000000000E+00 -5.61669232518E+01  5.61669232518E+01  0.00000000000E+00  0.00000000000E+00  1.
       25    1    1    2    0    0 -7.54434995245E+01  1.23337502520E+02  2.98846156291E+02  3.54736361652E+02  1.25000000000E+02  0.00000000000E+00  1.
       -6    2    1    2    0  502 -1.48082445783E+01 -9.85684641877E+00  4.77825549316E+02  5.08623588844E+02  1.73390478461E+02  0.00000000000E+00  1.
        5    1    1    2  502    0  9.02517441028E+01 -1.13480656102E+02  3.97057164958E+02  4.22702766571E+02  5.39479660939E-06  0.00000000000E+00  1.
       -5    1    4    4    0  502  4.76961109520E+01 -4.29292430669E+01  2.26490248738E+02  2.35453252651E+02  4.75000000000E+00  0.00000000000E+00  1.
      -24    2    4    4    0    0 -6.25043555303E+01  3.30723966481E+01  2.51335300577E+02  2.73170336194E+02  8.03244755941E+01  0.00000000000E+00  1.
        3    1    7    7  704    0  1.82360826822E+00  1.47403202122E+01  1.56026567268E+02  1.56731912132E+02  2.69739830470E-06  0.00000000000E+00  1.
       -4    1    7    7    0  704 -6.43279637985E+01  1.83320764359E+01  9.53087333090E+01  1.16438424061E+02  1.34869915235E-06  0.00000000000E+00  1.
</event>
<event>
 9 113   1.0000000E+00   7.4550000E+01   7.8125000E-03   1.3429423E-01
       -2   -1    0    0    0  501  0.00000000000E+00  0.00000000000E+00  8.97457444841E+01  8.97457444841E+01  0.00000000000E+00  0.00000000000E+00  1.
        1   -1    0    0  501    0  0.00000000000E+00  0.00000000000E+00 -6.23067286834E+02  6.23067286834E+02  0.00000000000E+00  0.00000000000E+00  1.
       25    1    1    2    0    0 -1.33629535563E+01 -4.75784422258E+01 -9.41116519659E+01  1.64086196032E+02  1.25000000000E+02  0.00000000000E+00  1.
       -6    2    1    2    0  502  1.07636994690E+01  5.26055329324E+01 -9.56595536253E+01  2.05129888778E+02  1.73332979404E+02  0.00000000000E+00  1.
        5    1    1    2  502    0  2.59925408726E+00 -5.02709070652E+00 -3.43550336759E+02  3.43596946508E+02  3.81469726562E-06  0.00000000000E+00  1.
       -5    1    4    4    0  502 -1.07817946577E+01  6.78831415884E+00 -1.07810478146E+02  1.08664575659E+02  4.75000000000E+00  0.00000000000E+00  1.
      -24    2    4    4    0    0  2.15454941267E+01  4.58172187735E+01  1.21509245207E+01  9.64653131188E+01  8.12064394929E+01  0.00000000000E+00  1.
       15    1    7    7    0    0 -1.63519778841E+01 -9.40727702114E+00 -1.50271898173E+01  2.41838271107E+01  1.77680000000E+00  0.00000000000E+00  1.
      -16    1    7    7    0    0  3.78974720108E+01  5.52244957947E+01  2.71781143380E+01  7.22814860082E+01  6.74349576174E-07  0.00000000000E+00  1.
</event>
<event>
 9 113   1.0000000E+00   7.4550000E+01   7.8125000E-03   1.3429423E-01
        1   -1    0    0  501    0  0.00000000000E+00  0.00000000000E+00  9.45234482469E+02  9.45234482469E+02  0.00000000000E+00  0.00000000000E+00  1.
       -2   -1    0    0    0  501  0.00000000000E+00  0.00000000000E+00 -2.48774901820E+02  2.48774901820E+02  0.00000000000E+00  0.00000000000E+00  1.
       25    1    1    2    0    0  7.97881801347E+01 -1.24246582586E+01 -1.91959384475E+00  1.48826108807E+02  1.25000000000E+02  0.00000000000E+00  1.
       -6    2    1    2    0  502 -2.65616587146E+02  1.66258251304E+02  6.03664893505E+01  3.63085659591E+02  1.73185177397E+02  0.00000000000E+00  1.
        5    1    1    2  502    0  1.85828407012E+02 -1.53833593046E+02  6.38012685143E+02  6.82097615891E+02  1.52587890625E-05  0.00000000000E+00  1.
       -5    1    4    4    0  502  1.73418793686E+01  1.35126944457E+01 -9.01801159927E+00  2.42326375870E+01  4.75000000000E+00  0.00000000000E+00  1.
      -24    2    4    4    0    0 -2.82958466515E+02  1.52745556859E+02  6.93845009498E+01  3.38853022004E+02  8.13047516248E+01  0.00000000000E+00  1.
        3    1    7    7  704    0 -1.77080220044E+02  1.06113898447E+02  8.27164061993E+01  2.22395071054E+02  2.69739830470E-06  0.00000000000E+00  1.
       -2    1    7    7    0  704 -1.05878246471E+02  4.66316584112E+01 -1.33319052495E+01  1.16457950951E+02  3.31650441724E-06  0.00000000000E+00  1.
</event>
<event>
 9 113   1.0000000E+00   7.4550000E+01   7.8125000E-03   1.3429423E-01
        1   -1    0    0  501    0  0.00000000000E+00  0.00000000000E+00  1.78515463325E+03  1.78515463325E+03  0.00000000000E+00  0.00000000000E+00  1.
       -2   -1    0    0    0  501  0.00000000000E+00  0.00000000000E+00 -3.36666463520E+01  3.36666463520E+01  0.00000000000E+00  0.00000000000E+00  1.
       25    1    1    2    0    0 -3.73172564470E+01 -9.50054888707E+01  4.60619096045E+02  4.88071277771E+02  1.25000000000E+02  0.00000000000E+00  1.
       -6    2    1    2    0  502 -4.56589374105E+01 -6.54717358624E+00  5.65009249304E+02  5.93138850051E+02  1.74501116311E+02  0.00000000000E+00  1.
        5    1    1    2  502    0  8.29761938575E+01  1.01552662457E+02  7.25859641547E+02  7.37611151777E+02  1.07895932188E-05  0.00000000000E+00  1.
       -5    1    4    4    0  502  1.98381688141E+01  1.34616216013E+01  7.35445315958E+00  2.55229049935E+01  4.75000000000E+00  0.00000000000E+00  1.
      -24    2    4    4    0    0 -6.54971062245E+01 -2.00087951876E+01  5.57654796145E+02  5.67615945058E+02  8.07388791869E+01  0.00000000000E+00  1.
        1    1    7    7  704    0  1.44130041285E+01 -1.86943977819E+01  1.84114725173E+02  1.85621785419E+02  2.69739830470E-06  0.00000000000E+00  1.
       -2    1    7    7    0  704 -7.99101103531E+01 -1.31439740568E+00  3.73540070971E+02  3.81994159639E+02  0.00000000000E+00  0.00000000000E+00  1.
</event>
<event>
 9 113   1.0000000E+00   7.4550000E+01   7.8125000E-03   1.3429423E-01
        1   -1    0    0  501    0  0.00000000000E+00  0.00000000000E+00  2.78014121684E+02  2.78014121684E+02  0.00000000000E+00  0.00000000000E+00  1.
       -2   -1    0    0    0  501  0.00000000000E+00  0.00000000000E+00 -3.00950720812E+02  3.00950720812E+02  0.00000000000E+00  0.00000000000E+00  1.
       25    1    1    2    0    0  9.92678218164E+00 -8.14815155352E+00  1.57570725623E+01  1.26642089030E+02  1.25000000000E+02  0.00000000000E+00  1.
       -6    2    1    2    0  502  8.35405366958E+01  1.60968158613E+02 -8.96317608597E+01  2.66084241916E+02  1.72850229628E+02  0.00000000000E+00  1.
        5    1    1    2  502    0 -9.34673188775E+01 -1.52820007059E+02  5.09380891696E+01  1.86238511549E+02  4.31794411570E-06  0.00000000000E+00  1.
       -5    1    4    4    0  502  9.30296903139E+01  8.32315946564E+01 -9.04639264233E+01  1.54234581443E+02  4.75000000000E+00  0.00000000000E+00  1.
      -24    2    4    4    0    0 -9.48915361806E+00  7.77365639566E+01  8.32165563596E-01  1.11849660473E+02  7.98538454696E+01  0.00000000000E+00  1.
       13    1    7    7    0    0 -2.03165492684E+01  3.00215712629E+00  2.51924676063E+01  3.25030261624E+01  1.05660000001E-01  0.00000000000E+00  1.
      -14    1    7    7    0    0  1.08273956503E+01  7.47344068303E+01 -2.43603020427E+01  7.93466343108E+01  1.54512898884E-06  0.00000000000E+00  1.
</event>
<event>
 9 113   1.0000000E+00   7.4550000E+01   7.8125000E-03   1.3429423E-01
        1   -1    0    0  501    0  0.00000000000E+00  0.00000000000E+00  8.13157539267E+02  8.13157539267E+02  0.00000000000E+00  0.00000000000E+00  1.
       -2   -1    0    0    0  501  0.00000000000E+00  0.00000000000E+00 -1.54314360167E+02  1.54314360167E+02  0.00000000000E+00  0.00000000000E+00  1.
       25    1    1    2    0    0  2.95831363599E+01 -1.36622144837E+01  2.07354469796E+01  1.30831100366E+02  1.25000000000E+02  0.00000000000E+00  1.
       -6    2    1    2    0  502 -2.57258507239E+02  3.01149736465E+01  3.63643901193E+02  4.79657378898E+02  1.75343842413E+02  0.00000000000E+00  1.
        5    1    1    2  502    0  2.27675370879E+02 -1.64527591629E+01  2.74463830928E+02  3.56983420170E+02  7.62939453125E-06  0.00000000000E+00  1.
       -5    1    4    4    0  502 -6.38125716236E+01  5.68270470797E+01  4.56304945306E+01  9.69848550451E+01  4.75000000000E+00  0.00000000000E+00  1.
      -24    2    4    4    0    0 -1.93445935616E+02 -2.67120734332E+01  3.18013406662E+02  3.82672523853E+02  8.46809826466E+01  0.00000000000E+00  1.
       11    1    7    7    0    0 -3.17182523415E+01 -2.85040916811E+01  1.17869913264E+02  1.25346907529E+02  5.11003937192E-04  0.00000000000E+00  1.
      -12    1    7    7    0    0 -1.61727683274E+02  1.79201824787E+00  2.00143493399E+02  2.57325616324E+02  2.69739830470E-06  0.00000000000E+00  1.
</event>
<event>
 9 113   1.0000000E+00   7.4550000E+01   7.8125000E-03   1.3429423E-01
       -2   -1    0    0    0  501  0.00000000000E+00  0.00000000000E+00  4.59280312484E+01  4.59280312484E+01  0.00000000000E+00  0.00000000000E+00  1.
        1   -1    0    0  501    0  0.00000000000E+00  0.00000000000E+00 -8.75920847790E+02  8.75920847790E+02  0.00000000000E+00  0.00000000000E+00  1.
       25    1    1    2    0    0 -5.55906689675E+01 -3.86375366632E+01 -1.79265196013E+02  2.28788531656E+02  1.25000000000E+02  0.00000000000E+00  1.
       -6    2    1    2    0  502  2.95438456686E+01  2.20234861572E+01 -3.77802013489E+02  4.18391727668E+02  1.75952844890E+02  0.00000000000E+00  1.
        5    1    1    2  502    0  2.60468232989E+01  1.66140505060E+01 -2.72925607039E+02  2.74668619715E+02  5.39479660939E-06  0.00000000000E+00  1.
       -5    1    4    4    0  502 -4.02011364096E+01 -4.38082035455E+01 -1.30272062955E+02  1.43278271043E+02  4.75000000000E+00  0.00000000000E+00  1.
      -24    2    4    4    0    0  6.97449820782E+01  6.58316897027E+01 -2.47529950535E+02  2.75113456625E+02  7.22368583923E+01  0.00000000000E+00  1.
       11    1    7    7    0    0  1.91135975778E+01  3.10587987850E+01 -1.80706320684E+02  1.84349540085E+02  5.11005717009E-04  0.00000000000E+00  1.
      -12    1    7    7    0    0  5.06313845005E+01  3.47728909177E+01 -6.68236298506E+01  9.07639165396E+01  1.65181236989E-06  0.00000000000E+00  1.
</event>
<event>
 9 113   1.0000000E+00   7.4550000E+01   7.8125000E-03   1.3429423E-01
        1   -1    0    0  501    0  0.00000000000E+00  0.00000000000E+00  2.78985959743E+02  2.78985959743E+02  0.00000000000E+00  0.00000000000E+00  1.
       -2   -1    0    0    0  501  0.00000000000E+00  0.00000000000E+00 -5.57604376250E+02  5.57604376250E+02  0.00000000000E+00  0.00000000000E+00  1.
       25    1    1    2    0    0 -2.63730637248E+01  1.10625365435E+02 -6.50795658571E+00  1.69117898126E+02  1.25000000000E+02  0.00000000000E+00  1.
       -6    2    1    2    0  502  6.11853774090E+01  2.12945433758E+02 -1.60992038592E+02  3.23586900467E+02  1.72338728952E+02  0.00000000000E+00  1.
        5    1    1    2  502    0 -3.48123136841E+01 -3.23570799192E+02 -1.11118421329E+02  3.43885537400E+02  6.32595975944E-06  0.00000000000E+00  1.
       -5    1    4    4    0  502  4.25055105649E+01  1.34312424667E+02 -1.54118638417E+02  2.08857997347E+02  4.75000000000E+00  0.00000000000E+00  1.
      -24    2    4    4    0    0  1.86798668440E+01  7.86330090904E+01 -6.87340017454E+00  1.14728903119E+02  8.11380923925E+01  0.00000000000E+00  1.
        1    1    7    7  704    0 -2.83097480883E+01  1.14761636155E+01  7.64419797648E+00  3.14893304289E+01  4.61695593143E-07  0.00000000000E+00  1.
       -2    1    7    7    0  704  4.69896149324E+01  6.71568454748E+01 -1.45175981510E+01  8.32395726905E+01  9.68460846500E-07  0.00000000000E+00  1.
</event>
<event>
 9 113   1.0000000E+00   7.4550000E+01   7.8125000E-03   1.3429423E-01
        1   -1    0    0  501    0  0.00000000000E+00  0.00000000000E+00  2.36076724034E+02  2.36076724034E+02  0.00000000000E+00  0.00000000000E+00  1.
       -2   -1    0    0    0  501  0.00000000000E+00  0.00000000000E+00 -4.86025384064E+02  4.86025384064E+02  0.00000000000E+00  0.00000000000E+00  1.
       25    1    1    2    0    0 -3.21627639547E+01  1.15118087227E+02 -2.37969596106E+02  2.94178765486E+02  1.25000000000E+02  0.00000000000E+00  1.
       -6    2    1    2    0  502 -5.10244995601E+01  8.98682053105E+01 -4.75228241635E+01  2.03863395652E+02  1.69180588099E+02  0.00000000000E+00  1.
        5    1    1    2  502    0  8.31872635148E+01 -2.04986292538E+02  3.55437602395E+01  2.24059946960E+02  3.63148360532E-06  0.00000000000E+00  1.
       -5    1    4    4    0  502  2.64640253824E+01 -2.58801353607E+01 -2.63344791164E+00  3.74115435879E+01  4.75000000000E+00  0.00000000000E+00  1.
      -24    2    4    4    0    0 -7.74885249425E+01  1.15748340671E+02 -4.48893762518E+01  1.66451852065E+02  7.93032981002E+01  0.00000000000E+00  1.
        1    1    7    7  704    0  1.20601307101E+01  1.08014833838E+00  4.33178168253E+00  1.28599302378E+01  1.96785617104E-06  0.00000000000E+00  1.
       -2    1    7    7    0  704 -8.95486556526E+01  1.14668192333E+02 -4.92211579344E+01  1.53591921827E+02  1.50789149292E-06  0.00000000000E+00  1.
</event>
<event>
 9 113   1.0000000E+00   7.4550000E+01   7.8125000E-03   1.3429423E-01
        1   -1    0    0  501    0  0.00000000000E+00  0.00000000000E+00  1.38747297815E+03  1.38747297815E+03  0.00000000000E+00  0.00000000000E+00  1.
       -2   -1    0    0    0  501  0.00000000000E+00  0.00000000000E+00 -2.25024414097E+02  2.25024414097E+02  0.00000000000E+00  0.00000000000E+00  1.
       25    1    1    2    0    0 -5.97411085140E+01  1.43598226324E+02  9.76179570097E+01  2.22134455186E+02  1.25000000000E+02  0.00000000000E+00  1.
       -6    2    1    2    0  502  2.53324773680E+02 -1.87160586801E+02  5.61332643789E+01  3.62334414223E+02  1.70096320210E+02  0.00000000000E+00  1.
        5    1    1    2  502    0 -1.93583665166E+02  4.35623604766E+01  1.00869734266E+03  1.02802852283E+03  1.52587890625E-05  0.00000000000E+00  1.
       -5    1    4    4    0  502  1.34495332566E+02 -1.54847739725E+02  6.51816767765E+01  2.15262701060E+02  4.75000000000E+00  0.00000000000E+00  1.
      -24    2    4    4    0    0  1.18829441114E+02 -3.23128470755E+01 -9.04841239767E+00  1.47071713164E+02  7.98978027504E+01  0.00000000000E+00  1.
        1    1    7    7  704    0  9.59001698540E+01  1.22430648203E+01 -5.38957915738E+00  9.68286258175E+01  1.93416842694E-06  0.00000000000E+00  1.
       -2    1    7    7    0  704  2.29292712603E+01 -4.45559118959E+01 -3.65883324029E+00  5.02430873463E+01  1.30451134612E-06  0.00000000000E+00  1.
</event>
<event>
 9 113   1.0000000E+00   7.4550000E+01   7.8125000E-03   1.3429423E-01
        1   -1    0    0  501    0  0.00000000000E+00  0.00000000000E+00  1.13593028558E+03  1.13593028558E+03  0.00000000000E+00  0.00000000000E+00  1.
       -2   -1    0    0    0  501  0.00000000000E+00  0.00000000000E+00 -2.25537056331E+02  2.25537056331E+02  0.00000000000E+00  0.00000000000E+00  1.
       25    1    1    2    0    0  2.97301831591E+02 -1.48127596238E+01  3.86497927106E+01  3.25156275338E+02  1.25000000000E+02  0.00000000000E+00  1.
       -6    2    1    2    0  502 -2.27048951760E+02 -1.65367194692E+02  3.57627066372E+02  4.87024324395E+02  1.74350332304E+02  0.00000000000E+00  1.
        5    1    1    2  502    0 -7.02528798306E+01  1.80179954316E+02  5.14116370170E+02  5.49286742183E+02  1.07895932188E-05  0.00000000000E+00  1.
       -5    1    4    4    0  502 -7.60888465055E+01 -1.33705441489E+02  1.29605588655E+02  2.01213391097E+02  4.75000000000E+00  0.00000000000E+00  1.
      -24    2    4    4    0    0 -1.50960105255E+02 -3.16617532028E+01  2.28021477718E+02  2.85810933298E+02  7.68288702085E+01  0.00000000000E+00  1.
        3    1    7    7  704    0 -3.88819161899E+01 -2.96068210724E+01  2.74822186682E+01  5.60681692544E+01  3.26903085728E-06  0.00000000000E+00  1.
       -4    1    7    7    0  704 -1.12078189065E+02 -2.05493213043E+00  2.00539259050E+02  2.29742764043E+02  3.81469726562E-06  0.00000000000E+00  1.
</event>
<event>
 9 113   1.0000000E+00   7.4550000E+01   7.8125000E-03   1.3429423E-01
        1   -1    0    0  501    0  0.00000000000E+00  0.00000000000E+00  1.08020914398E+03  1.08020914398E+03  0.00000000000E+00  0.00000000000E+00  1.
       -2   -1    0    0    0  501  0.00000000000E+00  0.00000000000E+00 -1.06124557937E+02  1.06124557937E+02  0.00000000000E+00  0.00000000000E+00  1.
       25    1    1    2    0    0 -1.43003709627E+02  8.92931161805E+01  8.24929681694E+01  2.25507009563E+02  1.25000000000E+02  0.00000000000E+00  1.
       -6    2    1    2    0  502  1.03648561137E+02  3.09684226657E+01  3.54971843296E+02  4.09489728324E+02  1.73132205674E+02  0.00000000000E+00  1.
        5    1    1    2  502    0  3.93551484908E+01 -1.20261538846E+02  5.36619774576E+02  5.51336964029E+02  7.62939453125E-06  0.00000000000E+00  1.
       -5    1    4    4    0  502  4.63074078074E+01 -5.18942084548E+01  1.72683010955E+02  1.86223977139E+02  4.75000000000E+00  0.00000000000E+00  1.
      -24    2    4    4    0    0  5.73411533292E+01  8.28626311205E+01  1.82288832341E+02  2.23265751184E+02  8.03999611597E+01  0.00000000000E+00  1.
       11    1    7    7    0    0  7.23387701408E+01  3.93654455934E+01  1.26580162858E+02  1.51013488145E+02  5.11009276622E-04  0.00000000000E+00  1.
      -12    1    7    7    0    0 -1.49976168116E+01  4.34971855271E+01  5.57086694821E+01  7.22522630391E+01  1.50789149292E-06  0.00000000000E+00  1.
</event>
<event>
 9 113   1.0000000E+00   7.4550000E+01   7.8125000E-03   1.3429423E-01
        1   -1    0    0  501    0  0.00000000000E+00  0.00000000000E+00  3.67785853713E+02  3.67785853713E+02  0.00000000000E+00  0.00000000000E+00  1.
       -2   -1    0    0    0  501  0.00000000000E+00  0.00000000000E+00 -6.69069056721E+02  6.69069056721E+02  0.00000000000E+00  0.00000000000E+00  1.
       25    1    1    2    0    0  2.08227224145E+02 -6.84243620648E+01 -2.94985093602E+02  3.88177376526E+02  1.25000000000E+02  0.00000000000E+00  1.
       -6    2    1    2    0  502  2.84036489468E+01  4.19268466104E+01 -2.49345858881E+02  3.08429834504E+02  1.74330082691E+02  0.00000000000E+00  1.
        5    1    1    2  502    0 -2.36630873092E+02  2.64975154544E+01  2.43047749475E+02  3.40247699405E+02  3.81469726562E-06  0.00000000000E+00  1.
       -5    1    4    4    0  502 -2.62882552940E+01 -2.33336324256E+01 -1.58584418681E+02  1.62502649569E+02  4.75000000000E+00  0.00000000000E+00  1.
      -24    2    4    4    0    0  5.46919042409E+01  6.52604790360E+01 -9.07614401998E+01  1.45927184935E+02  7.62034760520E+01  0.00000000000E+00  1.
        1    1    7    7  704    0 -3.23576090427E+00 -4.47653315171E-01  1.11059488469E+01  1.15763829373E+01  1.39530896076E-06  0.00000000000E+00  1.
       -2    1    7    7    0  704  5.79276651451E+01  6.57081323511E+01 -1.01867389047E+02  1.34350801998E+02  0.00000000000E+00  0.00000000000E+00  1.
</event>
<event>
 9 113   1.0000000E+00   7.4550000E+01   7.8125000E-03   1.3429423E-01
        1   -1    0    0  501    0  0.00000000000E+00  0.00000000000E+00  2.49416153041E+02  2.49416153041E+02  0.00000000000E+00  0.00000000000E+00  1.
       -2   -1    0    0    0  501  0.00000000000E+00  0.00000000000E+00 -4.86342332193E+02  4.86342332193E+02  0.00000000000E+00  0.00000000000E+00  1.
       25    1    1    2    0    0  1.46186036554E+02  8.75852376918E+01 -1.42963860946E+02  2.55157199940E+02  1.25000000000E+02  0.00000000000E+00  1.
       -6    2    1    2    0  502  9.88351138467E+01  2.36006528888E+01 -5.70210993644E+01  2.09009090897E+02  1.73516638277E+02  0.00000000000E+00  1.
        5    1    1    2  502    0 -2.45021150400E+02 -1.11185890581E+02 -3.69412188412E+01  2.71592194397E+02  1.71926082395E-06  0.00000000000E+00  1.
       -5    1    4    4    0  502  1.76578818516E+01 -2.48645937419E+01  4.08452426838E+01  5.11951673826E+01  4.75000000000E+00  0.00000000000E+00  1.
      -24    2    4    4    0    0  8.11772319952E+01  4.84652466306E+01 -9.78663420482E+01  1.57813923514E+02  7.99299094433E+01  0.00000000000E+00  1.
       13    1    7    7    0    0 -6.75514356672E+00 -1.36575285300E+01 -6.33716134810E+00  1.65024491559E+01  1.05659999995E-01  0.00000000000E+00  1.
      -14    1    7    7    0    0  8.79323755619E+01  6.21227751607E+01 -9.15291807001E+01  1.41311474358E+02  3.56832255056E-06  0.00000000000E+00  1.
</event>
<event>
 9 113   1.0000000E+00   7.4550000E+01   7.8125000E-03   1.3429423E-01
        1   -1    0    0  501    0  0.00000000000E+00  0.00000000000E+00  3.93120604764E+02  3.93120604764E+02  0.00000000000E+00  0.00000000000E+00  1.
       -2   -1    0    0    0  501  0.00000000000E+00  0.00000000000E+00 -2.41366031327E+02  2.41366031327E+02  0.00000000000E+00  0.00000000000E+00  1.
       25    1    1    2    0    0  1.79665037347E+02 -1.42246950343E+02  1.10126818043E+02  2.83313671712E+02  1.25000000000E+02  0.00000000000E+00  1.
       -6    2    1    2    0  502 -7.80634400977E+01  9.23985372684E+01 -3.42514039135E+01  2.14918072111E+02  1.74313592931E+02  0.00000000000E+00  1.
        5    1    1    2  502    0 -1.01601597249E+02  4.98484130747E+01  7.58791593076E+01  1.36254892268E+02  2.52318507296E-06  0.00000000000E+00  1.
       -5    1    4    4    0  502 -4.14942816484E+01 -3.34466983287E+01 -2.66077218208E+01  5.97577643416E+01  4.75000000000E+00  0.00000000000E+00  1.
      -24    2    4    4    0    0 -3.65691584493E+01  1.25845235597E+02 -7.64368209267E+00  1.55160307769E+02  8.27161928459E+01  0.00000000000E+00  1.
       15    1    7    7    0    0 -4.17556156658E+01  1.23582544422E+02  1.54625264776E+01  1.31371319050E+02  1.77680000000E+00  0.00000000000E+00  1.
      -16    1    7    7    0    0  5.18645721644E+00  2.26269117477E+00 -2.31062085702E+01  2.37889887196E+01  1.16800772800E-06  0.00000000000E+00  1.
</event>
<event>
 9 113   1.0000000E+00   7.4550000E+01   7.8125000E-03   1.3429423E-01
        1   -1    0    0  501    0  0.00000000000E+00  0.00000000000E+00  1.12642938679E+03  1.12642938679E+03  0.00000000000E+00  0.00000000000E+00  1.
       -2   -1    0    0    0  501  0.00000000000E+00  0.00000000000E+00 -4.58968261985E+01  4.58968261985E+01  0.00000000000E+00  0.00000000000E+00  1.
       25    1    1    2    0    0  2.64484781683E+01  1.23302828968E+02  3.71664062582E+02  4.11900819426E+02  1.25000000000E+02  0.00000000000E+00  1.
       -6    2    1    2    0  502 -7.95640878863E+01 -9.22809492264E+01  5.01817739852E+02  5.44430853187E+02  1.72446200887E+02  0.00000000000E+00  1.
        5    1    1    2  502    0  5.31156097179E+01 -3.10218797421E+01  2.07050758161E+02  2.15994540379E+02  3.81469726562E-06  0.00000000000E+00  1.
       -5    1    4    4    0  502 -5.90846467323E+01 -6.84970524851E+01  1.08705067941E+02  1.41499809098E+02  4.75000000000E+00  0.00000000000E+00  1.
      -24    2    4    4    0    0 -2.04794411540E+01 -2.37838967413E+01  3.93112671911E+02  4.02931044089E+02  8.26484858883E+01  0.00000000000E+00  1.
        1    1    7    7  704    0 -3.05893235324E+01 -4.00929797491E+01  3.67415265568E+02  3.70859988556E+02  0.00000000000E+00  0.00000000000E+00  1.
       -2    1    7    7    0  704  1.01098823784E+01  1.63090830079E+01  2.56974063434E+01  3.20710555336E+01  3.47142691101E-06  0.00000000000E+00  1.
</event>
<event>
 9 113   1.0000000E+00   7.4550000E+01   7.8125000E-03   1.3429423E-01
        1   -1    0    0  501    0  0.00000000000E+00  0.00000000000E+00  9.04199020911E+02  9.04199020911E+02  0.00000000000E+00  0.00000000000E+00  1.
       -2   -1    0    0    0  501  0.00000000000E+00  0.00000000000E+00 -1.78226961808E+02  1.78226961808E+02  0.00000000000E+00  0.00000000000E+00  1.
       25    1    1    2    0    0  1.21146849337E+02 -3.57508547525E+01  6.60176966034E+00  1.77829317275E+02  1.25000000000E+02  0.00000000000E+00  1.
       -6    2    1    2    0  502  5.34247801450E+01  1.93551477446E+01  1.98495660863E+01  1.83435577037E+02  1.73279475909E+02  0.00000000000E+00  1.
        5    1    1    2  502    0 -1.74571629482E+02  1.63957070079E+01  6.99520723356E+02  7.21161088407E+02  7.62939453125E-06  0.00000000000E+00  1.
       -5    1    4    4    0  502  8.36052789153E+01  5.30164933687E+01  4.00940191902E+00  9.91928880282E+01  4.75000000000E+00  0.00000000000E+00  1.
      -24    2    4    4    0    0 -3.01804987703E+01 -3.36613456241E+01  1.58401641673E+01  8.42426890085E+01  6.92962564306E+01  0.00000000000E+00  1.
        1    1    7    7  704    0 -3.81663284731E+01 -2.04968610438E+01  3.77512756078E+01  5.74625856692E+01  1.34869915235E-06  0.00000000000E+00  1.
       -2    1    7    7    0  704  7.98582970287E+00 -1.31644845803E+01 -2.19111114405E+01  2.67801033394E+01  3.37174788087E-07  0.00000000000E+00  1.
</event>
<event>
 9 113   1.0000000E+00   7.4550000E+01   7.8125000E-03   1.3429423E-01
       -2   -1    0    0    0  501  0.00000000000E+00  0.00000000000E+00  1.87466288905E+02  1.87466288905E+02  0.00000000000E+00  0.00000000000E+00  1.
        1   -1    0    0  501    0  0.00000000000E+00  0.00000000000E+00 -2.11905320949E+03  2.11905320949E+03  0.00000000000E+00  0.00000000000E+00  1.
       25    1    1    2    0    0 -1.50843999905E+02 -1.56830158259E+02 -6.45228404204E+02  6.92310843796E+02  1.25000000000E+02  0.00000000000E+00  1.
       -6    2    1    2    0  502 -3.05028215320E+02  3.20763924217E+02 -4.93364837670E+02  6.84944036359E+02  1.72649247537E+02  0.00000000000E+00  1.
        5    1    1    2  502    0  4.55872215224E+02 -1.63933765958E+02 -7.92993678709E+02  9.29264618237E+02  1.07895932188E-05  0.00000000000E+00  1.
       -5    1    4    4    0  502 -1.94533892910E+02  1.37016729589E+02 -3.15684906670E+02  3.95343575232E+02  4.75000000000E+00  0.00000000000E+00  1.
      -24    2    4    4    0    0 -1.10494322409E+02  1.83747194628E+02 -1.77679931000E+02  2.89600461128E+02  7.95376790377E+01  0.00000000000E+00  1.
        3    1    7    7  704    0 -1.05177485088E+02  1.76135224024E+02 -1.86162440556E+02  2.77024141159E+02  5.39479660939E-06  0.00000000000E+00  1.
       -4    1    7    7    0  704 -5.31683732184E+00  7.61197060380E+00  8.48250955565E+00  1.25763199682E+01  4.41718275872E-06  0.00000000000E+00  1.
</event>
<event>
 9 113   1.0000000E+00   7.4550000E+01   7.8125000E-03   1.3429423E-01
        1   -1    0    0  501    0  0.00000000000E+00  0.00000000000E+00  9.91226603307E+02  9.91226603307E+02  0.00000000000E+00  0.00000000000E+00  1.
       -2   -1    0    0    0  501  0.00000000000E+00  0.00000000000E+00 -1.84524013769E+02  1.84524013769E+02  0.00000000000E+00  0.00000000000E+00  1.
       25    1    1    2    0    0  1.02079201080E+01  1.47857191523E+02  1.08281694140E+02  2.22071781196E+02  1.25000000000E+02  0.00000000000E+00  1.
       -6    2    1    2    0  502  1.14179595855E+02  1.64344991938E+02  1.49936935819E+02  3.10423745422E+02  1.83944449533E+02  0.00000000000E+00  1.
        5    1    1    2  502    0 -1.24387515963E+02 -3.12202183461E+02  5.48483959578E+02  6.43255090458E+02  1.07895932188E-05  0.00000000000E+00  1.
       -5    1    4    4    0  502  6.41209707369E+01  1.13502845718E+02  4.61641312666E+00  1.30530719160E+02  4.75000000000E+00  0.00000000000E+00  1.
      -24    2    4    4    0    0  5.00586251184E+01  5.08421462201E+01  1.45320522693E+02  1.79893026262E+02  7.84388730216E+01  0.00000000000E+00  1.
        3    1    7    7  704    0  1.01461255426E+01  4.85265357869E+01  1.26175981577E+02  1.35566024010E+02  1.90734863281E-06  0.00000000000E+00  1.
       -4    1    7    7    0  704  3.99124995758E+01  2.31561043323E+00  1.91445411155E+01  4.43270022513E+01  6.30796268240E-07  0.00000000000E+00  1.
</event>
<event>
 9 113   1.0000000E+00   7.4550000E+01   7.8125000E-03   1.3429423E-01
       -2   -1    0    0    0  501  0.00000000000E+00  0.00000000000E+00  2.14452731568E+01  2.14452731568E+01  0.00000000000E+00  0.00000000000E+00  1.
        1   -1    0    0  501    0  0.00000000000E+00  0.00000000000E+00 -2.22143410643E+03  2.22143410643E+03  0.00000000000E+00  0.00000000000E+00  1.
       25    1    1    2    0    0  9.87476042614E+01 -5.62224914165E+01 -1.18692071361E+03  1.19888191173E+03  1.25000000000E+02  0.00000000000E+00  1.
       -6    2    1    2    0  502 -8.33802797295E+01  2.58684788597E+00 -6.98127976890E+02  7.24153395763E+02  1.73368121780E+02  0.00000000000E+00  1.
        5    1    1    2  502    0 -1.53673245319E+01  5.36356435305E+01 -3.14940142780E+02  3.19844072095E+02  3.81469726562E-06  0.00000000000E+00  1.
       -5    1    4    4    0  502 -2.80107812832E+01 -6.11695158571E+01 -1.87697458885E+02  1.99447266489E+02  4.75000000000E+00  0.00000000000E+00  1.
      -24    2    4    4    0    0 -5.53694984463E+01  6.37563637431E+01 -5.10430518005E+02  5.24706129274E+02  8.74445716482E+01  0.00000000000E+00  1.
        3    1    7    7  704    0 -7.73805963118E+01  3.73215851442E+01 -3.96265239040E+02  4.05471080442E+02  5.39479660939E-06  0.00000000000E+00  1.
       -4    1    7    7    0  704  2.20110978654E+01  2.64347785988E+01 -1.14165278965E+02  1.19235048832E+02  3.56832255056E-06  0.00000000000E+00  1.
</event>
<event>
 9 113   1.0000000E+00   7.4550000E+01   7.8125000E-03   1.3429423E-01
        1   -1    0    0  501    0  0.00000000000E+00  0.00000000000E+00  2.44013590252E+02  2.44013590252E+02  0.00000000000E+00  0.00000000000E+00  1.
       -2   -1    0    0    0  501  0.00000000000E+00  0.00000000000E+00 -2.64479736127E+02  2.64479736127E+02  0.00000000000E+00  0.00000000000E+00  1.
       25    1    1    2    0    0  5.02483673589E+01 -3.91692680720E+01 -9.04942306228E+01  1.66953094489E+02  1.25000000000E+02  0.00000000000E+00  1.
       -6    2    1    2    0  502  7.63920803822E+01 -2.43508661334E+01  2.19230303649E+01  1.91918352771E+02  1.72983583740E+02  0.00000000000E+00  1.
        5    1    1    2  502    0 -1.26640447741E+02  6.35201342054E+01  4.81050543833E+01  1.49621879118E+02  6.74349576174E-07  0.00000000000E+00  1.
       -5    1    4    4    0  502 -2.94015277564E+01 -3.47228093825E+01 -2.35354100452E+01  5.14451295248E+01  4.75000000000E+00  0.00000000000E+00  1.
      -24    2    4    4    0    0  1.05793608139E+02  1.03719432491E+01  4.54584404101E+01  1.40473223247E+02  7.97896729849E+01  0.00000000000E+00  1.
       13    1    7    7    0    0  4.39356324088E+01  2.91436583971E+01 -1.19022138831E+01  5.40496667824E+01  1.05659999997E-01  0.00000000000E+00  1.
      -14    1    7    7    0    0  6.18579757298E+01 -1.87717151480E+01  5.73606542933E+01  8.64235564643E+01  1.65181236989E-06  0.00000000000E+00  1.
</event>
<event>
 9 113   1.0000000E+00   7.4550000E+01   7.8125000E-03   1.3429423E-01
       -2   -1    0    0    0  501  0.00000000000E+00  0.00000000000E+00  3.69275168460E+02  3.69275168460E+02  0.00000000000E+00  0.00000000000E+00  1.
        1   -1    0    0  501    0  0.00000000000E+00  0.00000000000E+00 -3.31543536522E+02  3.31543536522E+02  0.00000000000E+00  0.00000000000E+00  1.
       25    1    1    2    0    0  5.38031431003E+01  4.74631523148E+01  1.25869545885E+01  1.44675362315E+02  1.25000000000E+02  0.00000000000E+00  1.
       -6    2    1    2    0  502  4.81107635393E+01  2.00602073449E+02  8.30504363880E+01  2.81778845093E+02  1.73049429693E+02  0.00000000000E+00  1.
        5    1    1    2  502    0 -1.01913906640E+02 -2.48065225764E+02 -5.79057590382E+01  2.74364497575E+02  5.43678009557E-06  0.00000000000E+00  1.
       -5    1    4    4    0  502  5.45044663020E+01  7.42244886417E+01  9.40937438246E+01  1.31742956882E+02  4.75000000000E+00  0.00000000000E+00  1.
      -24    2    4    4    0    0 -6.39370276270E+00  1.26377584807E+02 -1.10433074366E+01  1.50035888211E+02  7.98538648742E+01  0.00000000000E+00  1.
        3    1    7    7  704    0 -2.60335811506E+01  9.28999439480E+00  1.01301312613E+01  2.94392748340E+01  1.99475294717E-06  0.00000000000E+00  1.
       -4    1    7    7    0  704  1.96398783879E+01  1.17087590412E+02 -2.11734386978E+01  1.20596613377E+02  1.75201159199E-06  0.00000000000E+00  1.
</event>
<event>
 9 113   1.0000000E+00   7.4550000E+01   7.8125000E-03   1.3429423E-01
       -2   -1    0    0    0  501  0.00000000000E+00  0.00000000000E+00  4.88965830897E+02  4.88965830897E+02  0.00000000000E+00  0.00000000000E+00  1.
        1   -1    0    0  501    0  0.00000000000E+00  0.00000000000E+00 -2.01442390918E+02  2.01442390918E+02  0.00000000000E+00  0.00000000000E+00  1.
       25    1    1    2    0    0  1.50403625806E+02  4.25663528203E+01 -3.33980989558E+01  2.02912735091E+02  1.25000000000E+02  0.00000000000E+00  1.
       -6    2    1    2    0  502 -1.91005352133E+02  2.41274285128E+01  3.14227783834E+02  4.09128612303E+02  1.77713094403E+02  0.00000000000E+00  1.
        5    1    1    2  502    0  4.06017263262E+01 -6.66937813331E+01  6.69375510148E+00  7.83668744211E+01  3.58520823522E-06  0.00000000000E+00  1.
       -5    1    4    4    0  502  1.16264360847E+01 -1.02492009575E+01  1.01488913800E+02  1.02775397157E+02  4.75000000000E+00  0.00000000000E+00  1.
      -24    2    4    4    0    0 -2.02631788217E+02  3.43766294702E+01  2.12738870033E+02  3.06353215147E+02  7.97061563352E+01  0.00000000000E+00  1.
        1    1    7    7  704    0 -6.40935074434E+01  3.28575565409E+01  3.24995384649E+01  7.90178253223E+01  1.06624029994E-06  0.00000000000E+00  1.
       -2    1    7    7    0  704 -1.38538280774E+02  1.51907292931E+00  1.80239331568E+02  2.27335389824E+02  2.69739830470E-06  0.00000000000E+00  1.
</event>
<event>
 9 113   1.0000000E+00   7.4550000E+01   7.8125000E-03   1.3429423E-01
        1   -1    0    0  501    0  0.00000000000E+00  0.00000000000E+00  4.09642901074E+02  4.09642901074E+02  0.00000000000E+00  0.00000000000E+00  1.
       -2   -1    0    0    0  501  0.00000000000E+00  0.00000000000E+00 -3.25606994909E+02  3.25606994909E+02  0.00000000000E+00  0.00000000000E+00  1.
       25    1    1    2    0    0  1.12951254855E+02  6.76055305007E+01 -3.83798008896E+01  1.85543803033E+02  1.25000000000E+02  0.00000000000E+00  1.
       -6    2    1    2    0  502  1.03012725453E+02 -1.32596874185E+02 -7.27518569069E+01  2.51453358567E+02  1.72459868382E+02  0.00000000000E+00  1.
        5    1    1    2  502    0 -2.15963980308E+02  6.49913436839E+01  1.95167563961E+02  2.98252734383E+02  3.81469726562E-06  0.00000000000E+00  1.
       -5    1    4    4    0  502  5.64073291714E+01 -1.33124388923E+02 -5.93235749097E+01  1.56351331144E+02  4.75000000000E+00  0.00000000000E+00  1.
      -24    2    4    4    0    0  4.66053962820E+01  5.27514738783E-01 -1.34282819972E+01  9.51020274227E+01  8.18030294556E+01  0.00000000000E+00  1.
        1    1    7    7  704    0  7.01576586248E+01 -7.00247410702E-01 -1.38448571865E+01  7.15141068647E+01  1.99475294717E-06  0.00000000000E+00  1.
       -2    1    7    7    0  704 -2.35522623428E+01  1.22776214948E+00  4.16575189318E-01  2.35879205580E+01  1.64745461763E-06  0.00000000000E+00  1.
</event>
<event>
 9 113   1.0000000E+00   7.4550000E+01   7.8125000E-03   1.3429423E-01
       -2   -1    0    0    0  501  0.00000000000E+00  0.00000000000E+00  1.96086811702E+02  1.96086811702E+02  0.00000000000E+00  0.00000000000E+00  1.
        1   -1    0    0  501    0  0.00000000000E+00  0.00000000000E+00 -5.13172514204E+02  5.13172514204E+02  0.00000000000E+00  0.00000000000E+00  1.
       25    1    1    2    0    0  2.10306427493E+01  2.23476819380E+01  5.59026810757E+00  1.28833062216E+02  1.25000000000E+02  0.00000000000E+00  1.
       -6    2    1    2    0  502 -1.94536216650E+02  7.04932826231E+01 -2.58294389536E+02  3.73378885400E+02  1.72864565233E+02  0.00000000000E+00  1.
        5    1    1    2  502    0  1.73505573900E+02 -9.28409645611E+01 -6.43815810741E+01  2.07047378290E+02  1.65181236989E-06  0.00000000000E+00  1.
       -5    1    4    4    0  502 -4.06804028263E+01  6.13203068455E+01 -1.57780033225E+01  7.54094363762E+01  4.75000000000E+00  0.00000000000E+00  1.
      -24    2    4    4    0    0 -1.53855813823E+02  9.17297577764E+00 -2.42516386213E+02  2.97969449023E+02  7.88405989169E+01  0.00000000000E+00  1.
        3    1    7    7  704    0 -5.64225959562E+01  3.89856988406E+01 -1.23763935560E+02  1.41495250075E+02  1.90734863281E-06  0.00000000000E+00  1.
       -4    1    7    7    0  704 -9.74332178673E+01 -2.98127230629E+01 -1.18752450653E+02  1.56474198948E+02  3.56832255056E-06  0.00000000000E+00  1.
</event>
<event>
 9 113   1.0000000E+00   7.4550000E+01   7.8125000E-03   1.3429423E-01
       -2   -1    0    0    0  501  0.00000000000E+00  0.00000000000E+00  3.85859813526E+02  3.85859813526E+02  0.00000000000E+00  0.00000000000E+00  1.
        1   -1    0    0  501    0  0.00000000000E+00  0.00000000000E+00 -7.71632021162E+01  7.71632021162E+01  0.00000000000E+00  0.00000000000E+00  1.
       25    1    1    2    0    0  6.47784473082E+00  6.13141324240E+01  1.44518882100E+02  2.00778715482E+02  1.25000000000E+02  0.00000000000E+00  1.
       -6    2    1    2    0  502  5.67682842324E+00 -5.59868810340E+01  1.23100629807E+02  2.19076675829E+02  1.72261625455E+02  0.00000000000E+00  1.
        5    1    1    2  502    0 -1.21546731541E+01 -5.32725139002E+00  4.10770995027E+01  4.31676243314E+01  9.53674316406E-07  0.00000000000E+00  1.
       -5    1    4    4    0  502  4.45412234816E+01  2.72108518568E+01  1.02179344219E+01  5.33977502509E+01  4.75000000000E+00  0.00000000000E+00  1.
      -24    2    4    4    0    0 -3.88643950584E+01 -8.31977328908E+01  1.12882695385E+02  1.65678925578E+02  7.92130008377E+01  0.00000000000E+00  1.
        1    1    7    7  704    0 -4.96450125748E+01 -2.31745065615E+01  7.83231605677E+01  9.55834845004E+01  1.90734863281E-06  0.00000000000E+00  1.
       -4    1    7    7    0  704  1.07806175164E+01 -6.00232263293E+01  3.45595348174E+01  7.00954410772E+01  1.71926082395E-06  0.00000000000E+00  1.
</event>
<event>
 9 113   1.0000000E+00   7.4550000E+01   7.8125000E-03   1.3429423E-01
        1   -1    0    0  501    0  0.00000000000E+00  0.00000000000E+00  1.20397607051E+02  1.20397607051E+02  0.00000000000E+00  0.00000000000E+00  1.
       -2   -1    0    0    0  501  0.00000000000E+00  0.00000000000E+00 -1.22679958607E+03  1.22679958607E+03  0.00000000000E+00  0.00000000000E+00  1.
       25    1    1    2    0    0 -3.25785274539E+00 -1.67262622792E+01 -3.60083585942E+02  3.81543667644E+02  1.25000000000E+02  0.00000000000E+00  1.
       -6    2    1    2    0  502 -1.05581183888E+02 -1.36969428177E+02 -7.37410310554E+02  7.77112667590E+02  1.73845107413E+02  0.00000000000E+00  1.
        5    1    1    2  502    0  1.08839036633E+02  1.53695690457E+02 -8.90808252819E+00  1.88540857892E+02  1.05046316862E-05  0.00000000000E+00  1.
       -5    1    4    4    0  502 -6.48552755191E+01 -6.39280492082E+01 -1.30162077137E+02  1.58926810396E+02  4.75000000000E+00  0.00000000000E+00  1.
      -24    2    4    4    0    0 -4.07259083690E+01 -7.30413789692E+01 -6.07248233417E+02  6.18185857194E+02  8.00605670214E+01  0.00000000000E+00  1.
        3    1    7    7  704    0 -1.46394199825E+01 -2.26561791015E+01 -4.08467417620E+01  4.89496821387E+01  5.91739351558E-06  0.00000000000E+00  1.
       -4    1    7    7    0  704 -2.60864883865E+01 -5.03851998677E+01 -5.66401491655E+02  5.69236175055E+02  7.62939453125E-06  0.00000000000E+00  1.
</event>
<event>
 9 113   1.0000000E+00   7.4550000E+01   7.8125000E-03   1.3429423E-01
        1   -1    0    0  501    0  0.00000000000E+00  0.00000000000E+00  2.30647904877E+02  2.30647904877E+02  0.00000000000E+00  0.00000000000E+00  1.
       -2   -1    0    0    0  501  0.00000000000E+00  0.00000000000E+00 -2.70390230281E+02  2.70390230281E+02  0.00000000000E+00  0.00000000000E+00  1.
       25    1    1    2    0    0  1.06479745137E+01 -1.05079229693E+02 -1.33489502327E+01  1.64189580505E+02  1.25000000000E+02  0.00000000000E+00  1.
       -6    2    1    2    0  502  2.21443473467E+01  6.05700605276E+01 -1.24949152555E+02  2.23845706156E+02  1.74170907698E+02  0.00000000000E+00  1.
        5    1    1    2  502    0 -3.27923218604E+01  4.45091691650E+01  9.85557773846E+01  1.13002848498E+02  1.90734863281E-06  0.00000000000E+00  1.
       -5    1    4    4    0  502  3.88634225031E+01 -2.91511305823E+01  1.82343110573E-01  4.88134179493E+01  4.75000000000E+00  0.00000000000E+00  1.
      -24    2    4    4    0    0 -1.67190751565E+01  8.97211911099E+01 -1.25131495666E+02  1.75032288206E+02  8.15413459471E+01  0.00000000000E+00  1.
        3    1    7    7  704    0  3.04803035057E+01  5.71916637215E+01 -7.20325863546E+01  9.68949369057E+01  9.53674316406E-07  0.00000000000E+00  1.
       -4    1    7    7    0  704 -4.71993786622E+01  3.25295273884E+01 -5.30989093115E+01  7.81373513006E+01  1.16800772800E-06  0.00000000000E+00  1.
</event>
<event>
 9 113   1.0000000E+00   7.4550000E+01   7.8125000E-03   1.3429423E-01
        1   -1    0    0  501    0  0.00000000000E+00  0.00000000000E+00  6.34351331358E+01  6.34351331358E+01  0.00000000000E+00  0.00000000000E+00  1.
       -2   -1    0    0    0  501  0.00000000000E+00  0.00000000000E+00 -8.67619962734E+02  8.67619962734E+02  0.00000000000E+00  0.00000000000E+00  1.
       25    1    1    2    0    0  8.69819346011E+01  9.56475976902E+01 -5.71798500572E+02  5.99410414613E+02  1.25000000000E+02  0.00000000000E+00  1.
       -6    2    1    2    0  502 -6.68250986569E+01 -6.24493050048E+01 -1.69514681451E+02  2.57744283819E+02  1.71264062512E+02  0.00000000000E+00  1.
        5    1    1    2  502    0 -2.01568359442E+01 -3.31982926854E+01 -6.28716475757E+01  7.39003974373E+01  9.53674316406E-07  0.00000000000E+00  1.
       -5    1    4    4    0  502 -4.32555708516E+01 -7.97955821065E+01 -1.41026534467E+02  1.67777904556E+02  4.75000000000E+00  0.00000000000E+00  1.
      -24    2    4    4    0    0 -2.35695278054E+01  1.73462771017E+01 -2.84881469836E+01  8.99663792631E+01  8.01620789957E+01  0.00000000000E+00  1.
        1    1    7    7  704    0 -3.00977645080E+00 -2.69382207446E+01  8.83613141981E+00  2.85097125492E+01  1.93692169300E-06  0.00000000000E+00  1.
       -2    1    7    7    0  704 -2.05597513545E+01  4.42844978463E+01 -3.73242784034E+01  6.14566667140E+01  2.38418579102E-06  0.00000000000E+00  1.
</event>
<event>
 9 113   1.0000000E+00   7.4550000E+01   7.8125000E-03   1.3429423E-01
       -2   -1    0    0    0  501  0.00000000000E+00  0.00000000000E+00  3.10829995030E+02  3.10829995030E+02  0.00000000000E+00  0.00000000000E+00  1.
        1   -1    0    0  501    0  0.00000000000E+00  0.00000000000E+00 -3.49331827731E+02  3.49331827731E+02  0.00000000000E+00  0.00000000000E+00  1.
       25    1    1    2    0    0  9.89673283144E+01 -1.35553628724E+02 -9.88268070737E+01  2.31432616825E+02  1.25000000000E+02  0.00000000000E+00  1.
       -6    2    1    2    0  502  9.82147267712E+01  1.00454918259E+02  2.23666402229E+01  2.24882406954E+02  1.74168043008E+02  0.00000000000E+00  1.
        5    1    1    2  502    0 -1.97182055086E+02  3.50987104644E+01  3.79583341494E+01  2.03846798983E+02  6.74349576174E-07  0.00000000000E+00  1.
       -5    1    4    4    0  502  3.73862436487E+01  7.21931564929E+01  7.06876165916E+01  1.07837306615E+02  4.75000000000E+00  0.00000000000E+00  1.
      -24    2    4    4    0    0  6.08284831226E+01  2.82617617663E+01 -4.83209763687E+01  1.17045100339E+02  8.28601666604E+01  0.00000000000E+00  1.
       11    1    7    7    0    0  1.25717563561E+00  4.38079518810E+01 -2.88648112491E+01  5.24775615601E+01  5.10997819027E-04  0.00000000000E+00  1.
      -12    1    7    7    0    0  5.95713074870E+01 -1.55461901147E+01 -1.94561651196E+01  6.45675387788E+01  2.40790961703E-06  0.00000000000E+00  1.
</event>
<event>
 9 113   1.0000000E+00   7.4550000E+01   7.8125000E-03   1.3429423E-01
       -4   -1    0    0    0  501  0.00000000000E+00  0.00000000000E+00  2.40172847264E+02  2.40172847264E+02  0.00000000000E+00  0.00000000000E+00  1.
        3   -1    0    0  501    0  0.00000000000E+00  0.00000000000E+00 -2.36862184771E+02  2.36862184771E+02  0.00000000000E+00  0.00000000000E+00  1.
       25    1    1    2    0    0  1.15323137962E+02 -2.90478203324E+01 -6.65144400738E+01  1.84911797227E+02  1.25000000000E+02  0.00000000000E+00  1.
       -6    2    1    2    0  502 -1.44960119923E+02  4.78563632557E+01  9.30791742714E+01  2.50017845158E+02  1.74761329653E+02  0.00000000000E+00  1.
        5    1    1    2  502    0  2.96369819617E+01 -1.88085429233E+01 -2.32540717047E+01  4.21053896496E+01  8.25906184945E-07  0.00000000000E+00  1.
       -5    1    4    4    0  502 -1.16875867118E+02  2.14921981408E+01  1.08934814122E+02  1.61280002242E+02  4.75000000000E+00  0.00000000000E+00  1.
      -24    2    4    4    0    0 -2.80842528054E+01  2.63641651149E+01 -1.58556398504E+01  8.87378429160E+01  7.83531045490E+01  0.00000000000E+00  1.
        1    1    7    7  704    0 -3.05618478903E+01 -5.24125395607E+00 -3.87527270913E+01  4.96313524550E+01  1.26159253648E-06  0.00000000000E+00  1.
       -2    1    7    7    0  704  2.47759508488E+00  3.16054190710E+01  2.28970872409E+01  3.91064904610E+01  1.43051147461E-06  0.00000000000E+00  1.
</event>
<event>
 9 113   1.0000000E+00   7.4550000E+01   7.8125000E-03   1.3429423E-01
        1   -1    0    0  501    0  0.00000000000E+00  0.00000000000E+00  2.37034830971E+01  2.37034830971E+01  0.00000000000E+00  0.00000000000E+00  1.
       -2   -1    0    0    0  501  0.00000000000E+00  0.00000000000E+00 -2.15127859236E+03  2.15127859236E+03  0.00000000000E+00  0.00000000000E+00  1.
       25    1    1    2    0    0  8.66695889987E+01  6.89361274144E+00 -1.05150579951E+03  1.06247286363E+03  1.25000000000E+02  0.00000000000E+00  1.
       -6    2    1    2    0  502 -2.39670949251E+01 -3.72040658538E+01 -9.67544226335E+02  9.83559531476E+02  1.71140170293E+02  0.00000000000E+00  1.
        5    1    1    2  502    0 -6.27024940736E+01  3.03104531124E+01 -1.08525083417E+02  1.28949680347E+02  4.47312904341E-06  0.00000000000E+00  1.
       -5    1    4    4    0  502  5.72719135777E+01 -1.28769337568E+00 -2.94576056380E+02  3.00132213752E+02  4.75000000001E+00  0.00000000000E+00  1.
      -24    2    4    4    0    0 -8.12390085028E+01 -3.59163724782E+01 -6.72968169954E+02  6.83427317724E+02  7.93535035446E+01  0.00000000000E+00  1.
        1    1    7    7  704    0 -4.20900428056E+01  2.31119555146E+01 -2.50056739910E+02  2.54625425607E+02  7.62939453125E-06  0.00000000000E+00  1.
       -2    1    7    7    0  704 -3.91489656972E+01 -5.90283279928E+01 -4.22911430045E+02  4.28801892117E+02  7.62939453125E-06  0.00000000000E+00  1.
</event>
<event>
 9 113   1.0000000E+00   7.4550000E+01   7.8125000E-03   1.3429423E-01
       -4   -1    0    0    0  501  0.00000000000E+00  0.00000000000E+00  9.93137004887E+01  9.93137004887E+01  0.00000000000E+00  0.00000000000E+00  1.
        3   -1    0    0  501    0  0.00000000000E+00  0.00000000000E+00 -2.81804567902E+02  2.81804567902E+02  0.00000000000E+00  0.00000000000E+00  1.
       25    1    1    2    0    0  3.46605001012E+01 -1.36841967584E+01 -8.97822848298E+01  1.58349190643E+02  1.25000000000E+02  0.00000000000E+00  1.
       -6    2    1    2    0  502 -3.77578570861E+01 -5.70243289891E+00 -6.82400286789E+01  1.91397989785E+02  1.74694921125E+02  0.00000000000E+00  1.
        5    1    1    2  502    0  3.09735698488E+00  1.93866296573E+01 -2.44685539048E+01  3.13710879625E+01  5.84003863998E-07  0.00000000000E+00  1.
       -5    1    4    4    0  502  2.91981916855E+01 -5.57031248503E+01 -2.36016620897E+01  6.73422116446E+01  4.75000000000E+00  0.00000000000E+00  1.
      -24    2    4    4    0    0 -6.69560487716E+01  5.00006919514E+01 -4.46383665891E+01  1.24055778140E+02  8.00878933144E+01  0.00000000000E+00  1.
        1    1    7    7  704    0 -5.51493105355E+01  4.84891861614E+01 -6.65603579273E+01  9.91106900114E+01  2.13248059988E-06  0.00000000000E+00  1.
       -2    1    7    7    0  704 -1.18067382361E+01  1.51150578995E+00  2.19219913381E+01  2.49450881289E+01  1.87730976916E-06  0.00000000000E+00  1.
</event>
<event>
 9 113   1.0000000E+00   7.4550000E+01   7.8125000E-03   1.3429423E-01
       -4   -1    0    0    0  501  0.00000000000E+00  0.00000000000E+00  1.32545044656E+02  1.32545044656E+02  0.00000000000E+00  0.00000000000E+00  1.
        3   -1    0    0  501    0  0.00000000000E+00  0.00000000000E+00 -3.23145950231E+02  3.23145950231E+02  0.00000000000E+00  0.00000000000E+00  1.
       25    1    1    2    0    0 -1.73540368891E+01  6.39963303660E+01  4.00977322864E+01  1.47069782862E+02  1.25000000000E+02  0.00000000000E+00  1.
       -6    2    1    2    0  502  2.48901499493E+01 -7.57985180534E+01 -2.19108598019E+02  2.90443927909E+02  1.73159356173E+02  0.00000000000E+00  1.
        5    1    1    2  502    0 -7.53611306019E+00  1.18021876874E+01 -1.15900398421E+01  1.81772841152E+01  1.68587394044E-07  0.00000000000E+00  1.
       -5    1    4    4    0  502  1.61140679271E+01  2.47017598073E+01 -1.31707138182E+02  1.35052481913E+02  4.75000000000E+00  0.00000000000E+00  1.
      -24    2    4    4    0    0  8.77608202225E+00 -1.00500277861E+02 -8.74014598364E+01  1.55391445996E+02  7.95623079197E+01  0.00000000000E+00  1.
        1    1    7    7  704    0  2.68942197763E+01 -2.63355657225E+01 -6.62056146517E+01  7.61580231539E+01  9.53674316406E-07  0.00000000000E+00  1.
       -2    1    7    7    0  704 -1.81181377540E+01 -7.41647121382E+01 -2.11958451847E+01  7.92334228423E+01  2.15897205785E-06  0.00000000000E+00  1.
</event>
<event>
 9 113   1.0000000E+00   7.4550000E+01   7.8125000E-03   1.3429423E-01
        1   -1    0    0  501    0  0.00000000000E+00  0.00000000000E+00  6.54247459601E+02  6.54247459601E+02  0.00000000000E+00  0.00000000000E+00  1.
       -2   -1    0    0    0  501  0.00000000000E+00  0.00000000000E+00 -1.85799613461E+02  1.85799613461E+02  0.00000000000E+00  0.00000000000E+00  1.
       25    1    1    2    0    0 -1.23747567896E+02 -1.06007819820E+02  1.93604310208E+02  2.82238812629E+02  1.25000000000E+02  0.00000000000E+00  1.
       -6    2    1    2    0  502 -8.42286288476E+01  1.61616262185E+02  7.11214373178E+01  2.61414787601E+02  1.73393062750E+02  0.00000000000E+00  1.
        5    1    1    2  502    0  2.07976196744E+02 -5.56084423652E+01  2.03722098614E+02  2.96393472833E+02  0.00000000000E+00  0.00000000000E+00  1.
       -5    1    4    4    0  502 -2.51082683310E+01 -8.03700127796E+00 -3.03203003439E+01  4.04586411174E+01  4.75000000000E+00  0.00000000000E+00  1.
      -24    2    4    4    0    0 -5.91203605166E+01  1.69653263463E+02  1.01441737662E+02  2.20956146483E+02  7.90806278275E+01  0.00000000000E+00  1.
        3    1    7    7  704    0  1.58196954717E+01  8.44303780825E+00  1.44863548913E+01  2.30521610762E+01  3.78853048851E-06  0.00000000000E+00  1.
       -4    1    7    7    0  704 -7.49400559882E+01  1.61210225655E+02  8.69553827704E+01  1.97903985407E+02  3.30362473978E-06  0.00000000000E+00  1.
</event>
<event>
 9 113   1.0000000E+00   7.4550000E+01   7.8125000E-03   1.3429423E-01
       -2   -1    0    0    0  501  0.00000000000E+00  0.00000000000E+00  6.82249699021E+01  6.82249699021E+01  0.00000000000E+00  0.00000000000E+00  1.
        1   -1    0    0  501    0  0.00000000000E+00  0.00000000000E+00 -7.82870073656E+02  7.82870073656E+02  0.00000000000E+00  0.00000000000E+00  1.
       25    1    1    2    0    0  8.55933396035E+01  9.78851339447E+01 -2.56216500172E+02  3.13336263768E+02  1.25000000000E+02  0.00000000000E+00  1.
       -6    2    1    2    0  502 -3.93020281666E+01 -5.62302127057E+00 -2.96363725586E+02  3.45612461508E+02  1.73321227551E+02  0.00000000000E+00  1.
        5    1    1    2  502    0 -4.62913114369E+01 -9.22621126741E+01 -1.62064877995E+02  1.92146318282E+02  1.90734863281E-06  0.00000000000E+00  1.
       -5    1    4    4    0  502  4.80171059215E+01 -9.51261644407E+00 -1.46687995652E+02  1.54712840130E+02  4.75000000000E+00  0.00000000000E+00  1.
      -24    2    4    4    0    0 -8.73191340881E+01  3.88959517350E+00 -1.49675729935E+02  1.90899621378E+02  8.00005073876E+01  0.00000000000E+00  1.
        3    1    7    7  704    0 -7.05457070426E+01 -3.68012842821E+00 -1.56154697726E+02  1.71389993142E+02  3.81469726562E-06  0.00000000000E+00  1.
       -4    1    7    7    0  704 -1.67734270455E+01  7.56972360171E+00  6.47896779130E+00  1.95096282358E+01  2.61038403993E-06  0.00000000000E+00  1.
</event>
<event>
 9 113   1.0000000E+00   7.4550000E+01   7.8125000E-03   1.3429423E-01
        1   -1    0    0  501    0  0.00000000000E+00  0.00000000000E+00  8.06588667047E+02  8.06588667047E+02  0.00000000000E+00  0.00000000000E+00  1.
       -2   -1    0    0    0  501  0.00000000000E+00  0.00000000000E+00 -4.54851097204E+01  4.54851097204E+01  0.00000000000E+00  0.00000000000E+00  1.
       25    1    1    2    0    0 -2.76601690032E+01 -5.81893885092E+01  2.29940565995E+02  2.69534327637E+02  1.25000000000E+02  0.00000000000E+00  1.
       -6    2    1    2    0  502  3.65488210747E+01  9.00144933955E+01  4.96713145976E+02  5.34804375216E+02  1.72781205637E+02  0.00000000000E+00  1.
        5    1    1    2  502    0 -8.88865207151E+00 -3.18251048863E+01  3.44498453556E+01  4.77350739153E+01  1.50789149292E-06  0.00000000000E+00  1.
       -5    1    4    4    0  502  3.10147518258E+01 -3.06244856210E+01  1.99394036002E+02  2.04157581401E+02  4.74999999999E+00  0.00000000000E+00  1.
      -24    2    4    4    0    0  5.53406924890E+00  1.20638979016E+02  2.97319109974E+02  3.30646793814E+02  7.96508626665E+01  0.00000000000E+00  1.
       13    1    7    7    0    0  3.05223222879E+01  8.71465668002E+01  2.54870446668E+02  2.71081338369E+02  1.05660000055E-01  0.00000000000E+00  1.
      -14    1    7    7    0    0 -2.49882530390E+01  3.34924122162E+01  4.24486633054E+01  5.95654554454E+01  1.50789149292E-06  0.00000000000E+00  1.
</event>
<event>
 9 113   1.0000000E+00   7.4550000E+01   7.8125000E-03   1.3429423E-01
       -2   -1    0    0    0  501  0.00000000000E+00  0.00000000000E+00  8.75411640845E+01  8.75411640845E+01  0.00000000000E+00  0.00000000000E+00  1.
        1   -1    0    0  501    0  0.00000000000E+00  0.00000000000E+00 -1.06976270674E+03  1.06976270674E+03  0.00000000000E+00  0.00000000000E+00  1.
       25    1    1    2    0    0  6.39721213358E+01 -2.22359565058E+00 -2.32639780647E+02  2.71741870578E+02  1.25000000000E+02  0.00000000000E+00  1.
       -6    2    1    2    0  502  1.25249659533E+02 -7.13462383144E+00 -1.60312152125E+02  2.66586126921E+02  1.72133078976E+02  0.00000000000E+00  1.
        5    1    1    2  502    0 -1.89221780868E+02  9.35821948202E+00 -5.89269609886E+02  6.18975873328E+02  7.62939453125E-06  0.00000000000E+00  1.
       -5    1    4    4    0  502  2.43390094940E+01  1.35912915167E+01  2.65625875451E+01  3.87974760175E+01  4.75000000000E+00  0.00000000000E+00  1.
      -24    2    4    4    0    0  1.00910650039E+02 -2.07259153481E+01 -1.86874739670E+02  2.27788650904E+02  7.97055725496E+01  0.00000000000E+00  1.
        3    1    7    7  704    0  3.24182200629E+01  3.02177613791E+01 -5.39945599581E+01  6.98531788817E+01  2.86102294922E-06  0.00000000000E+00  1.
       -4    1    7    7    0  704  6.84924299756E+01 -5.09436767272E+01 -1.32880179712E+02  1.57935472022E+02  2.69739830470E-06  0.00000000000E+00  1.
</event>
<event>
 9 113   1.0000000E+00   7.4550000E+01   7.8125000E-03   1.3429423E-01
       -4   -1    0    0    0  501  0.00000000000E+00  0.00000000000E+00  8.90287738793E+02  8.90287738793E+02  0.00000000000E+00  0.00000000000E+00  1.
        3   -1    0    0  501    0  0.00000000000E+00  0.00000000000E+00 -1.76897717129E+02  1.76897717129E+02  0.00000000000E+00  0.00000000000E+00  1.
       25    1    1    2    0    0  6.49811516582E+00  1.69337020623E+02  3.27554864891E+02  3.89402672779E+02  1.25000000000E+02  0.00000000000E+00  1.
       -6    2    1    2    0  502 -1.66527601016E+02 -1.38107518491E+02  4.27362149182E+02  5.09529375322E+02  1.73714274597E+02  0.00000000000E+00  1.
        5    1    1    2  502    0  1.60029485850E+02 -3.12295021316E+01 -4.15269924086E+01  1.68253407821E+02  5.78134329461E-06  0.00000000000E+00  1.
       -5    1    4    4    0  502 -2.44403393308E+01 -4.28305173019E+01  8.20913678675E+00  5.02168878540E+01  4.75000000000E+00  0.00000000000E+00  1.
      -24    2    4    4    0    0 -1.42087261685E+02 -9.52770011896E+01  4.19153012395E+02  4.59312487468E+02  7.75384837047E+01  0.00000000000E+00  1.
        1    1    7    7  704    0 -7.14536022584E+00 -3.37846424375E+01  4.41309671275E+01  5.60357073391E+01  4.34419325788E-06  0.00000000000E+00  1.
       -2    1    7    7    0  704 -1.34941901459E+02 -6.14923587520E+01  3.75022045268E+02  4.03276780129E+02  5.39479660939E-06  0.00000000000E+00  1.
</event>
<event>
 9 113   1.0000000E+00   7.4550000E+01   7.8125000E-03   1.3429423E-01
        1   -1    0    0  501    0  0.00000000000E+00  0.00000000000E+00  1.83815500429E+02  1.83815500429E+02  0.00000000000E+00  0.00000000000E+00  1.
       -2   -1    0    0    0  501  0.00000000000E+00  0.00000000000E+00 -1.33246490047E+03  1.33246490047E+03  0.00000000000E+00  0.00000000000E+00  1.
       25    1    1    2    0    0  1.02984913006E+01  2.97005336122E+01 -6.10600990391E+02  6.24056688199E+02  1.25000000000E+02  0.00000000000E+00  1.
       -6    2    1    2    0  502  2.62325466691E+02  1.26260557225E+01 -5.33192436234E+02  6.16290852911E+02  1.62929965222E+02  0.00000000000E+00  1.
        5    1    1    2  502    0 -2.72623957991E+02 -4.23265893347E+01 -4.85597342075E+00  2.75932859793E+02  1.16462656173E-05  0.00000000000E+00  1.
       -5    1    4    4    0  502  7.70110622373E+01  1.76316113223E+01 -5.60987407849E+01  9.70113840866E+01  4.75000000000E+00  0.00000000000E+00  1.
      -24    2    4    4    0    0  1.85314404453E+02 -5.00555559977E+00 -4.77093695449E+02  5.19279468825E+02  8.75573436144E+01  0.00000000000E+00  1.
        1    1    7    7  704    0  1.95092161084E+02 -3.52444807296E+00 -4.54895275246E+02  4.94977862628E+02  1.07895932188E-05  0.00000000000E+00  1.
       -2    1    7    7    0  704 -9.77775663044E+00 -1.48110752681E+00 -2.21984202027E+01  2.43016061964E+01  6.69697375545E-06  0.00000000000E+00  1.
</event>
<event>
 9 113   1.0000000E+00   7.4550000E+01   7.8125000E-03   1.3429423E-01
       -2   -1    0    0    0  501  0.00000000000E+00  0.00000000000E+00  2.41808594841E+02  2.41808594841E+02  0.00000000000E+00  0.00000000000E+00  1.
        1   -1    0    0  501    0  0.00000000000E+00  0.00000000000E+00 -5.78060824483E+02  5.78060824483E+02  0.00000000000E+00  0.00000000000E+00  1.
       25    1    1    2    0    0  1.05092091243E+01 -5.93245218161E+01 -7.49291101794E+01  1.57699758774E+02  1.25000000000E+02  0.00000000000E+00  1.
       -6    2    1    2    0  502 -1.88332979897E+02 -9.25457984539E+01  4.52848958236E+01  2.76560580433E+02  1.74358816041E+02  0.00000000000E+00  1.
        5    1    1    2  502    0  1.77823770773E+02  1.51870320270E+02 -3.06608015287E+02  3.85609080117E+02  3.81469726562E-06  0.00000000000E+00  1.
       -5    1    4    4    0  502 -8.30875441256E+01 -4.49129928327E+01  8.79099921997E+01  1.29117954377E+02  4.75000000000E+00  0.00000000000E+00  1.
      -24    2    4    4    0    0 -1.05245435771E+02 -4.76328056211E+01 -4.26250963762E+01  1.47442626056E+02  8.10983551932E+01  0.00000000000E+00  1.
       11    1    7    7    0    0 -1.12553911579E+02 -3.38101577839E+01 -1.89057380397E+01  1.19033342859E+02  5.11005438913E-04  0.00000000000E+00  1.
      -12    1    7    7    0    0  7.30847580745E+00 -1.38226478372E+01 -2.37193583364E+01  2.84092831967E+01  1.58148993986E-06  0.00000000000E+00  1.
</event>
<event>
 9 113   1.0000000E+00   7.4550000E+01   7.8125000E-03   1.3429423E-01
       -2   -1    0    0    0  501  0.00000000000E+00  0.00000000000E+00  2.16872680302E+02  2.16872680302E+02  0.00000000000E+00  0.00000000000E+00  1.
        1   -1    0    0  501    0  0.00000000000E+00  0.00000000000E+00 -5.36884771014E+02  5.36884771014E+02  0.00000000000E+00  0.00000000000E+00  1.
       25    1    1    2    0    0  2.23410491960E+01  6.02973635754E+01  9.19528620354E+00  1.40870322715E+02  1.25000000000E+02  0.00000000000E+00  1.
       -6    2    1    2    0  502  7.56046262094E+01  7.95652761468E+00  6.55364643849E+01  2.00486050478E+02  1.73551901275E+02  0.00000000000E+00  1.
        5    1    1    2  502    0 -9.79456754054E+01 -6.82538911901E+01 -3.94743841300E+02  4.12401078124E+02  7.62939453125E-06  0.00000000000E+00  1.
       -5    1    4    4    0  502 -3.54470025841E+01 -3.13177847239E+01  2.10883251280E+01  5.20055149855E+01  4.75000000000E+00  0.00000000000E+00  1.
      -24    2    4    4    0    0  1.11051628793E+02  3.92743123386E+01  4.44481392569E+01  1.48480535492E+02  7.87140169811E+01  0.00000000000E+00  1.
        3    1    7    7  704    0  6.99116712982E+01 -1.13179677174E+01  2.34384436038E+00  7.08606504581E+01  1.64723558491E-06  0.00000000000E+00  1.
       -4    1    7    7    0  704  4.11399574953E+01  5.05922800560E+01  4.21042948966E+01  7.76198850341E+01  2.43140197448E-06  0.00000000000E+00  1.
</event>
<event>
 9 113   1.0000000E+00   7.4550000E+01   7.8125000E-03   1.3429423E-01
        1   -1    0    0  501    0  0.00000000000E+00  0.00000000000E+00  1.22859622975E+02  1.22859622975E+02  0.00000000000E+00  0.00000000000E+00  1.
       -2   -1    0    0    0  501  0.00000000000E+00  0.00000000000E+00 -9.41928012414E+02  9.41928012414E+02  0.00000000000E+00  0.00000000000E+00  1.
       25    1    1    2    0    0 -2.31161814525E+01 -3.69475381344E+00 -2.51522901641E+02  2.81845310588E+02  1.25000000000E+02  0.00000000000E+00  1.
       -6    2    1    2    0  502  8.76205196151E+01  2.11821134489E+02 -4.53706931743E+02  5.37103725675E+02  1.73449945945E+02  0.00000000000E+00  1.
        5    1    1    2  502    0 -6.45043381626E+01 -2.08126380676E+02 -1.13838556055E+02  2.45838599125E+02  4.26496119976E-06  0.00000000000E+00  1.
       -5    1    4    4    0  502  5.90105029011E+00  1.62712284199E+02 -2.59644814704E+02  3.06509546550E+02  4.75000000000E+00  0.00000000000E+00  1.
      -24    2    4    4    0    0  8.17194693250E+01  4.91088502903E+01 -1.94062117039E+02  2.30594179125E+02  8.01487325726E+01  0.00000000000E+00  1.
        3    1    7    7  704    0  8.11025688695E+01  3.63652837133E+01 -1.98170722494E+02  2.17190459714E+02  2.69739830470E-06  0.00000000000E+00  1.
       -4    1    7    7    0  704  6.16900455481E-01  1.27435665770E+01  4.10860545493E+00  1.34037194113E+01  3.20814767857E-06  0.00000000000E+00  1.
</event>
<event>
 9 113   1.0000000E+00   7.4550000E+01   7.8125000E-03   1.3429423E-01
        1   -1    0    0  501    0  0.00000000000E+00  0.00000000000E+00  1.48634398092E+03  1.48634398092E+03  0.00000000000E+00  0.00000000000E+00  1.
       -2   -1    0    0    0  501  0.00000000000E+00  0.00000000000E+00 -8.78248771377E+01  8.78248771377E+01  0.00000000000E+00  0.00000000000E+00  1.
       25    1    1    2    0    0  5.34021627322E+01 -1.74230357987E+02  2.96186737978E+02  3.69539703392E+02  1.25000000000E+02  0.00000000000E+00  1.
       -6    2    1    2    0  502 -1.30952584391E+00 -9.28135812253E+01  3.34559623147E+02  3.90073390673E+02  1.77794918242E+02  0.00000000000E+00  1.
        5    1    1    2  502    0 -5.20926368883E+01  2.67043939212E+02  7.67772742658E+02  8.14555763994E+02  1.07895932188E-05  0.00000000000E+00  1.
       -5    1    4    4    0  502 -2.98089305388E+01  3.18579146019E+01  1.19429400030E+02  1.27237742648E+02  4.75000000000E+00  0.00000000000E+00  1.
      -24    2    4    4    0    0  2.84994046949E+01 -1.24671495827E+02  2.15130223118E+02  2.62835648025E+02  8.02892709784E+01  0.00000000000E+00  1.
        3    1    7    7  704    0 -1.78311600973E+01 -4.90509883313E+01  1.29223513747E+02  1.39365226049E+02  0.00000000000E+00  0.00000000000E+00  1.
       -4    1    7    7    0  704  4.63305647922E+01 -7.56205074959E+01  8.59067093708E+01  1.23470421976E+02  0.00000000000E+00  0.00000000000E+00  1.
</event>
<event>
 9 113   1.0000000E+00   7.4550000E+01   7.8125000E-03   1.3429423E-01
       -2   -1    0    0    0  501  0.00000000000E+00  0.00000000000E+00  2.94437733544E+02  2.94437733544E+02  0.00000000000E+00  0.00000000000E+00  1.
        1   -1    0    0  501    0  0.00000000000E+00  0.00000000000E+00 -8.32241767234E+02  8.32241767234E+02  0.00000000000E+00  0.00000000000E+00  1.
       25    1    1    2    0    0  7.48138514769E+01  3.85242614762E+02 -1.15886231104E+02  4.27859326369E+02  1.25000000000E+02  0.00000000000E+00  1.
       -6    2    1    2    0  502 -4.81633097175E+00 -3.36135175539E+02 -1.37541839016E+02  4.01867514679E+02  1.71958392047E+02  0.00000000000E+00  1.
        5    1    1    2  502    0 -6.99975205052E+01 -4.91074392235E+01 -2.84375963571E+02  2.96952659730E+02  6.60724947956E-06  0.00000000000E+00  1.
       -5    1    4    4    0  502  5.55140253976E+01 -1.22346212923E+02 -8.69407009566E+01  1.60098878245E+02  4.75000000000E+00  0.00000000000E+00  1.
      -24    2    4    4    0    0 -6.03303563693E+01 -2.13788962616E+02 -5.06011380594E+01  2.41768636434E+02  8.09081328055E+01  0.00000000000E+00  1.
        3    1    7    7  704    0  1.38135153781E+01 -4.22331967765E+01 -3.02882921888E+01  5.37758008846E+01  2.10565587671E-06  0.00000000000E+00  1.
       -4    1    7    7    0  704 -7.41438717474E+01 -1.71555765840E+02 -2.03128458706E+01  1.87992835549E+02  3.32933426947E-06  0.00000000000E+00  1.
</event>
<event>
 9 113   1.0000000E+00   7.4550000E+01   7.8125000E-03   1.3429423E-01
       -4   -1    0    0    0  501  0.00000000000E+00  0.00000000000E+00  6.85583584445E+02  6.85583584445E+02  0.00000000000E+00  0.00000000000E+00  1.
        3   -1    0    0  501    0  0.00000000000E+00  0.00000000000E+00 -8.03697764745E+01  8.03697764745E+01  0.00000000000E+00  0.00000000000E+00  1.
       25    1    1    2    0    0  3.92254903158E+00  1.65015092499E+00  1.86491109658E+02  2.24548532328E+02  1.25000000000E+02  0.00000000000E+00  1.
       -6    2    1    2    0  502 -5.22142764432E+01 -9.05233166851E+01  3.84435327994E+02  4.34605229847E+02  1.73696237359E+02  0.00000000000E+00  1.
        5    1    1    2  502    0  4.82917274116E+01  8.88731657601E+01  3.42873703178E+01  1.06799598744E+02  3.72421726032E-06  0.00000000000E+00  1.
       -5    1    4    4    0  502  2.15104391373E+00  2.62036770823E+01  1.65933052479E+02  1.68070223679E+02  4.75000000000E+00  0.00000000000E+00  1.
      -24    2    4    4    0    0 -5.43653203569E+01 -1.16726993767E+02  2.18502275516E+02  2.66535006169E+02  8.19566103273E+01  0.00000000000E+00  1.
        3    1    7    7  704    0 -3.84061862297E+01 -2.58034084183E+01  2.60758854628E+01  5.31112307274E+01  2.47771855483E-06  0.00000000000E+00  1.
       -4    1    7    7    0  704 -1.59591341272E+01 -9.09235853491E+01  1.92426390053E+02  2.13423775441E+02  3.81469726562E-06  0.00000000000E+00  1.
</event>
<event>
 9 113   1.0000000E+00   7.4550000E+01   7.8125000E-03   1.3429423E-01
       -2   -1    0    0    0  501  0.00000000000E+00  0.00000000000E+00  1.87385789100E+02  1.87385789100E+02  0.00000000000E+00  0.00000000000E+00  1.
        1   -1    0    0  501    0  0.00000000000E+00  0.00000000000E+00 -1.31236588015E+03  1.31236588015E+03  0.00000000000E+00  0.00000000000E+00  1.
       25    1    1    2    0    0 -4.10783150393E+01 -8.18067083644E+00  1.52527328135E+01  1.32710200060E+02  1.25000000000E+02  0.00000000000E+00  1.
       -6    2    1    2    0  502  1.15248130367E+02 -3.22076191841E+02 -4.09190092992E+02  5.61439687160E+02  1.75393230232E+02  0.00000000000E+00  1.
        5    1    1    2  502    0 -7.41698153277E+01  3.30256862678E+02 -7.31042730873E+02  8.05601782032E+02  1.52587890625E-05  0.00000000000E+00  1.
       -5    1    4    4    0  502 -1.62842870046E+01 -1.15037763678E+01  4.97998693191E+00  2.10921227905E+01  4.75000000000E+00  0.00000000000E+00  1.
      -24    2    4    4    0    0  1.31532417372E+02 -3.10572415473E+02 -4.14170079924E+02  5.40347564369E+02  8.17473739207E+01  0.00000000000E+00  1.
        3    1    7    7  704    0  1.14574941375E+02 -2.21178429376E+02 -2.51604726817E+02  3.54051201620E+02  4.67203091199E-06  0.00000000000E+00  1.
       -4    1    7    7    0  704  1.69574759966E+01 -8.93939860974E+01 -1.62565353107E+02  1.86296362749E+02  5.04637014592E-06  0.00000000000E+00  1.
</event>
<event>
 9 113   1.0000000E+00   7.4550000E+01   7.8125000E-03   1.3429423E-01
       -2   -1    0    0    0  501  0.00000000000E+00  0.00000000000E+00  9.44304535336E+01  9.44304535336E+01  0.00000000000E+00  0.00000000000E+00  1.
        1   -1    0    0  501    0  0.00000000000E+00  0.00000000000E+00 -1.06746943587E+03  1.06746943587E+03  0.00000000000E+00  0.00000000000E+00  1.
       25    1    1    2    0    0 -4.23223105103E+01 -5.11987972294E+01 -1.71874538409E+02  2.22661967471E+02  1.25000000000E+02  0.00000000000E+00  1.
       -6    2    1    2    0  502  7.11900629899E+01 -1.03962242663E+02 -1.33781626922E+02  2.53447779201E+02  1.74533893878E+02  0.00000000000E+00  1.
        5    1    1    2  502    0 -2.88677524796E+01  1.55161039892E+02 -6.67382817009E+02  6.85790142735E+02  7.62939453125E-06  0.00000000000E+00  1.
       -5    1    4    4    0  502  9.49255322988E+01 -8.94207080103E+01 -8.07951193327E+01  1.53483984543E+02  4.75000000000E+00  0.00000000000E+00  1.
      -24    2    4    4    0    0 -2.37354693089E+01 -1.45415346525E+01 -5.29865075890E+01  9.99637946578E+01  8.00647333259E+01  0.00000000000E+00  1.
        3    1    7    7  704    0  1.15234753734E+01 -1.46249054698E+00 -6.05076122018E+01  6.16125027705E+01  1.50789149292E-06  0.00000000000E+00  1.
       -4    1    7    7    0  704 -3.52589446823E+01 -1.30790441055E+01  7.52110461285E+00  3.83512918873E+01  7.72564494420E-07  0.00000000000E+00  1.
</event>
<event>
 9 113   1.0000000E+00   7.4550000E+01   7.8125000E-03   1.3429423E-01
       -2   -1    0    0    0  501  0.00000000000E+00  0.00000000000E+00  1.50007412979E+02  1.50007412979E+02  0.00000000000E+00  0.00000000000E+00  1.
        1   -1    0    0  501    0  0.00000000000E+00  0.00000000000E+00 -2.81264879752E+03  2.81264879752E+03  0.00000000000E+00  0.00000000000E+00  1.
       25    1    1    2    0    0  2.45766756603E+02 -3.43354127941E+02 -3.08625358098E+02  5.37743403015E+02  1.25000000000E+02  0.00000000000E+00  1.
       -6    2    1    2    0  502  1.62333085597E+01  7.40433208292E+01 -4.99110700667E+02  5.32336227115E+02  1.68891780476E+02  0.00000000000E+00  1.
        5    1    1    2  502    0 -2.62000065162E+02  2.69310807112E+02 -1.85490532578E+03  1.89257658037E+03  0.00000000000E+00  0.00000000000E+00  1.
       -5    1    4    4    0  502  3.30627224792E+01  7.39050656024E+01 -3.81360300633E+02  3.89888886400E+02  4.75000000001E+00  0.00000000000E+00  1.
      -24    2    4    4    0    0 -1.68294139195E+01  1.38255226853E-01 -1.17750400035E+02  1.42447340715E+02  7.83762711614E+01  0.00000000000E+00  1.
        3    1    7    7  704    0 -4.33088714664E+01  1.35570296525E+01 -4.51638050767E+01  6.40251566941E+01  8.25906184945E-07  0.00000000000E+00  1.
       -4    1    7    7    0  704  2.64794575469E+01 -1.34187744257E+01 -7.25865949581E+01  7.84221840213E+01  9.53674316406E-07  0.00000000000E+00  1.
</event>
<event>
 9 113   1.0000000E+00   7.4550000E+01   7.8125000E-03   1.3429423E-01
        1   -1    0    0  501    0  0.00000000000E+00  0.00000000000E+00  2.22390180579E+02  2.22390180579E+02  0.00000000000E+00  0.00000000000E+00  1.
       -2   -1    0    0    0  501  0.00000000000E+00  0.00000000000E+00 -3.43655674324E+02  3.43655674324E+02  0.00000000000E+00  0.00000000000E+00  1.
       25    1    1    2    0    0 -1.81720350940E+01 -6.22662974148E+01 -1.20602327022E+02  1.85410991951E+02  1.25000000000E+02  0.00000000000E+00  1.
       -6    2    1    2    0  502 -1.70645330297E+00  1.61594461876E+01 -1.45529804868E+02  2.27313830870E+02  1.73863779770E+02  0.00000000000E+00  1.
        5    1    1    2  502    0  1.98784883969E+01  4.61068512271E+01  1.44866638146E+02  1.53321032082E+02  1.90734863281E-06  0.00000000000E+00  1.
       -5    1    4    4    0  502  4.20014605135E+01 -4.55696597389E+01 -6.60502727447E+01  9.06968445076E+01  4.75000000000E+00  0.00000000000E+00  1.
      -24    2    4    4    0    0 -4.37079138165E+01  6.17291059265E+01 -7.94795321237E+01  1.36616986363E+02  8.14023383422E+01  0.00000000000E+00  1.
        1    1    7    7  704    0 -1.27028050239E+01  7.10746160714E+01 -7.46888397772E+01  1.03881591692E+02  1.34869915235E-06  0.00000000000E+00  1.
       -4    1    7    7    0  704 -3.10051087926E+01 -9.34551014483E+00 -4.79069234647E+00  3.27353946710E+01  1.30994683360E-06  0.00000000000E+00  1.
</event>
<event>
 9 113   1.0000000E+00   7.4550000E+01   7.8125000E-03   1.3429423E-01
       -2   -1    0    0    0  501  0.00000000000E+00  0.00000000000E+00  8.18784388016E+01  8.18784388016E+01  0.00000000000E+00  0.00000000000E+00  1.
        1   -1    0    0  501    0  0.00000000000E+00  0.00000000000E+00 -7.00356062786E+02  7.00356062786E+02  0.00000000000E+00  0.00000000000E+00  1.
       25    1    1    2    0    0  6.11633285006E+00 -3.96189296363E+01 -5.68534588377E+01  1.43053783225E+02  1.25000000000E+02  0.00000000000E+00  1.
       -6    2    1    2    0  502 -6.91646124319E+01 -3.94076060515E+01 -2.77179897326E+02  3.37305213565E+02  1.74955447440E+02  0.00000000000E+00  1.
        5    1    1    2  502    0  6.30482795818E+01  7.90265356878E+01 -2.84444267821E+02  3.01875504798E+02  6.60724947956E-06  0.00000000000E+00  1.
       -5    1    4    4    0  502 -9.65122668370E+01 -1.93075379160E+01 -1.91863052802E+02  2.15688182804E+02  4.75000000000E+00  0.00000000000E+00  1.
      -24    2    4    4    0    0  2.73476544051E+01 -2.01000681355E+01 -8.53168445235E+01  1.21617030761E+02  7.97485502769E+01  0.00000000000E+00  1.
       11    1    7    7    0    0 -1.11334489180E+01  2.49951353633E+01 -2.83255479991E+01  3.93833358967E+01  5.10999710104E-04  0.00000000000E+00  1.
      -12    1    7    7    0    0  3.84811033232E+01 -4.50952034988E+01 -5.69912965244E+01  8.22336948647E+01  1.16800772800E-06  0.00000000000E+00  1.
</event>
<event>
 9 113   1.0000000E+00   7.4550000E+01   7.8125000E-03   1.3429423E-01
        1   -1    0    0  501    0  0.00000000000E+00  0.00000000000E+00  3.15468706715E+02  3.15468706715E+02  0.00000000000E+00  0.00000000000E+00  1.
       -2   -1    0    0    0  501  0.00000000000E+00  0.00000000000E+00 -1.44286894662E+02  1.44286894662E+02  0.00000000000E+00  0.00000000000E+00  1.
       25    1    1    2    0    0  4.57989941570E+00 -1.08116869636E+01 -6.13211500468E-01  1.25551758578E+02  1.25000000000E+02  0.00000000000E+00  1.
       -6    2    1    2    0  502  1.25968182746E+01  2.27317334101E+01  1.42062886645E+01  1.75234234063E+02  1.72713075983E+02  0.00000000000E+00  1.
        5    1    1    2  502    0 -1.71767176903E+01 -1.19200464465E+01  1.57588734889E+02  1.58969608736E+02  3.30362473978E-06  0.00000000000E+00  1.
       -5    1    4    4    0  502  6.03471286210E+01  2.47326359967E+01 -3.81692410457E+01  7.57161322187E+01  4.75000000000E+00  0.00000000000E+00  1.
      -24    2    4    4    0    0 -4.77503103465E+01 -2.00090258659E+00  5.23755297103E+01  9.95181018443E+01  6.98323759651E+01  0.00000000000E+00  1.
        1    1    7    7  704    0 -2.32998535907E+01  2.02029693641E+01  5.83085865856E+01  6.59616132162E+01  9.53674316406E-07  0.00000000000E+00  1.
       -2    1    7    7    0  704 -2.44504567558E+01 -2.22038719507E+01 -5.93305687529E+00  3.35564886282E+01  1.18611745489E-06  0.00000000000E+00  1.
</event>
<event>
 9 113   1.0000000E+00   7.4550000E+01   7.8125000E-03   1.3429423E-01
        1   -1    0    0  501    0  0.00000000000E+00  0.00000000000E+00  8.25548707864E+02  8.25548707864E+02  0.00000000000E+00  0.00000000000E+00  1.
       -2   -1    0    0    0  501  0.00000000000E+00  0.00000000000E+00 -8.08515865709E+01  8.08515865709E+01  0.00000000000E+00  0.00000000000E+00  1.
       25    1    1    2    0    0 -6.76677678705E+01  3.93632571744E+01  1.38386841928E+02  2.02248141753E+02  1.25000000000E+02  0.00000000000E+00  1.
       -6    2    1    2    0  502  1.01118304436E+02 -4.87065749641E+01  1.75972951784E+02  2.72415599337E+02  1.75061523659E+02  0.00000000000E+00  1.
        5    1    1    2  502    0 -3.34505365655E+01  9.34331778964E+00  4.30337327582E+02  4.31736553345E+02  0.00000000000E+00  0.00000000000E+00  1.
       -5    1    4    4    0  502  1.05412405700E+02  3.88059962833E-01  1.30878445398E+02  1.68117981893E+02  4.75000000000E+00  0.00000000000E+00  1.
      -24    2    4    4    0    0 -4.29410126397E+00 -4.90946349269E+01  4.50945063859E+01  1.04297617444E+02  8.00984145539E+01  0.00000000000E+00  1.
       15    1    7    7    0    0  4.56599348750E-01 -4.09295128784E+01  6.80739637558E+01  7.94522187676E+01  1.77680000000E+00  0.00000000000E+00  1.
      -16    1    7    7    0    0 -4.75070061272E+00 -8.16512204850E+00 -2.29794573699E+01  2.48453986765E+01  1.58148993986E-06  0.00000000000E+00  1.
</event>
<event>
 9 113   1.0000000E+00   7.4550000E+01   7.8125000E-03   1.3429423E-01
        1   -1    0    0  501    0  0.00000000000E+00  0.00000000000E+00  1.44287940471E+03  1.44287940471E+03  0.00000000000E+00  0.00000000000E+00  1.
       -2   -1    0    0    0  501  0.00000000000E+00  0.00000000000E+00 -8.54712254394E+01  8.54712254394E+01  0.00000000000E+00  0.00000000000E+00  1.
       25    1    1    2    0    0 -7.02232441317E+01 -1.08376554107E+02  1.55026867564E+02  2.37350186778E+02  1.25000000000E+02  0.00000000000E+00  1.
       -6    2    1    2    0  502 -4.04284437313E+01  2.36483536163E+02  6.68840415741E+02  7.31249532210E+02  1.72683104821E+02  0.00000000000E+00  1.
        5    1    1    2  502    0  1.10651687863E+02 -1.28106982056E+02  5.33540895967E+02  5.59750911163E+02  0.00000000000E+00  0.00000000000E+00  1.
       -5    1    4    4    0  502  4.80439243661E+01  1.12691624602E+02  2.61486948288E+02  2.88800290078E+02  4.75000000000E+00  0.00000000000E+00  1.
      -24    2    4    4    0    0 -8.84723680974E+01  1.23791911561E+02  4.07353467453E+02  4.42449242133E+02  8.16865174510E+01  0.00000000000E+00  1.
       15    1    7    7    0    0 -1.25594686993E+01  7.24127743238E+01  2.47401470289E+02  2.58092996145E+02  1.77679999999E+00  0.00000000000E+00  1.
      -16    1    7    7    0    0 -7.59128993981E+01  5.13791372375E+01  1.59951997163E+02  1.84356245988E+02  3.30362473978E-06  0.00000000000E+00  1.
</event>
<event>
 9 113   1.0000000E+00   7.4550000E+01   7.8125000E-03   1.3429423E-01
        1   -1    0    0  501    0  0.00000000000E+00  0.00000000000E+00  2.97431069099E+01  2.97431069099E+01  0.00000000000E+00  0.00000000000E+00  1.
       -2   -1    0    0    0  501  0.00000000000E+00  0.00000000000E+00 -1.63655763328E+03  1.63655763328E+03  0.00000000000E+00  0.00000000000E+00  1.
       25    1    1    2    0    0 -2.77119376383E+01  6.64373708926E+01 -5.63393708609E+02  5.81566287399E+02  1.25000000000E+02  0.00000000000E+00  1.
       -6    2    1    2    0  502  6.16361377285E+01 -5.76355671747E+01 -1.02675344197E+03  1.04592563271E+03  1.80601568305E+02  0.00000000000E+00  1.
        5    1    1    2  502    0 -3.39242000902E+01 -8.80180371789E+00 -1.66673757849E+01  3.88088200800E+01  3.85177002463E-06  0.00000000000E+00  1.
       -5    1    4    4    0  502  2.03002126078E+01  5.19700493071E+01 -3.42033440594E+02  3.46586816890E+02  4.75000000000E+00  0.00000000000E+00  1.
      -24    2    4    4    0    0  4.13359251206E+01 -1.09605616482E+02 -6.84720001378E+02  6.99338815817E+02  8.06923116037E+01  0.00000000000E+00  1.
        1    1    7    7  704    0  5.19011213320E+00 -7.45598199185E+01 -2.29972727053E+02  2.41813066641E+02  5.39479660939E-06  0.00000000000E+00  1.
       -2    1    7    7    0  704  3.61458129874E+01 -3.50457965633E+01 -4.54747274325E+02  4.57525749176E+02  7.62939453125E-06  0.00000000000E+00  1.
</event>
<event>
 9 113   1.0000000E+00   7.4550000E+01   7.8125000E-03   1.3429423E-01
       -2   -1    0    0    0  501  0.00000000000E+00  0.00000000000E+00  2.13994457598E+01  2.13994457598E+01  0.00000000000E+00  0.00000000000E+00  1.
        1   -1    0    0  501    0  0.00000000000E+00  0.00000000000E+00 -2.02804564153E+03  2.02804564153E+03  0.00000000000E+00  0.00000000000E+00  1.
       25    1    1    2    0    0  8.61304577427E+01  2.61745475062E+00 -7.96338944781E+02  8.10682442017E+02  1.25000000000E+02  0.00000000000E+00  1.
       -6    2    1    2    0  502 -1.27191138300E+02  4.28176525410E+00 -8.70344526039E+02  8.96259750277E+02  1.72005891717E+02  0.00000000000E+00  1.
        5    1    1    2  502    0  4.10606805573E+01 -6.89922000472E+00 -3.39962724947E+02  3.42502894992E+02  5.39479660939E-06  0.00000000000E+00  1.
       -5    1    4    4    0  502 -6.69623033174E+01  4.65971115139E+01 -5.89825562159E+02  5.95459484048E+02  4.75000000001E+00  0.00000000000E+00  1.
      -24    2    4    4    0    0 -6.02288349827E+01 -4.23153462598E+01 -2.80518963879E+02  3.00800266228E+02  7.98236178997E+01  0.00000000000E+00  1.
        3    1    7    7  704    0 -6.02862614449E+01 -6.34033172565E+01 -2.27025831792E+02  2.43300518411E+02  3.81469726562E-06  0.00000000000E+00  1.
       -4    1    7    7    0  704  5.74264622367E-02  2.10879709967E+01 -5.34931320873E+01  5.74997478174E+01  9.53674316406E-07  0.00000000000E+00  1.
</event>
<event>
 9 113   1.0000000E+00   7.4550000E+01   7.8125000E-03   1.3429423E-01
        1   -1    0    0  501    0  0.00000000000E+00  0.00000000000E+00  9.73298553922E+02  9.73298553922E+02  0.00000000000E+00  0.00000000000E+00  1.
       -2   -1    0    0    0  501  0.00000000000E+00  0.00000000000E+00 -3.69222672079E+02  3.69222672079E+02  0.00000000000E+00  0.00000000000E+00  1.
       25    1    1    2    0    0  2.52072581366E+02  2.46407382721E+02  1.91817395558E+02  4.20328559314E+02  1.25000000000E+02  0.00000000000E+00  1.
       -6    2    1    2    0  502  1.78912434163E+02  1.04140767392E+02  1.36332349415E+02  3.01896509866E+02  1.72336979901E+02  0.00000000000E+00  1.
        5    1    1    2  502    0 -4.30985015529E+02 -3.50548150113E+02  2.75926136871E+02  6.20296156821E+02  5.39479660939E-06  0.00000000000E+00  1.
       -5    1    4    4    0  502  1.12193732721E+02 -1.05227101668E+01  4.42658499514E+01  1.21161830058E+02  4.75000000000E+00  0.00000000000E+00  1.
      -24    2    4    4    0    0  6.67187014417E+01  1.14663477559E+02  9.20664994634E+01  1.80734679808E+02  8.11768806614E+01  0.00000000000E+00  1.
        1    1    7    7  704    0  1.19692858937E+01  7.13196851140E+00 -1.42376460282E+01  1.99208268924E+01  1.68587394044E-06  0.00000000000E+00  1.
       -2    1    7    7    0  704  5.47494155481E+01  1.07531509047E+02  1.06304145492E+02  1.60813852915E+02  4.26496119976E-06  0.00000000000E+00  1.
</event>
<event>
 9 113   1.0000000E+00   7.4550000E+01   7.8125000E-03   1.3429423E-01
       -2   -1    0    0    0  501  0.00000000000E+00  0.00000000000E+00  1.67453124121E+02  1.67453124121E+02  0.00000000000E+00  0.00000000000E+00  1.
        1   -1    0    0  501    0  0.00000000000E+00  0.00000000000E+00 -5.07836460758E+02  5.07836460758E+02  0.00000000000E+00  0.00000000000E+00  1.
       25    1    1    2    0    0  7.16537664575E+01 -4.55315033474E+01 -1.78636641154E+02  2.33973138645E+02  1.25000000000E+02  0.00000000000E+00  1.
       -6    2    1    2    0  502 -1.33886493332E+02 -5.54468570385E+01 -2.14623654427E+02  3.11449151091E+02  1.73024026146E+02  0.00000000000E+00  1.
        5    1    1    2  502    0  6.22327268747E+01  1.00978360386E+02  5.28769589431E+01  1.29867295142E+02  4.10190833428E-06  0.00000000000E+00  1.
       -5    1    4    4    0  502 -1.67761620269E+01  1.29588045967E+01  1.91404429304E+01  2.89532258048E+01  4.75000000000E+00  0.00000000000E+00  1.
      -24    2    4    4    0    0 -1.17110331305E+02 -6.84056616353E+01 -2.33764097357E+02  2.82495925287E+02  8.22443332286E+01  0.00000000000E+00  1.
        3    1    7    7  704    0 -1.01233476560E+02 -5.12151593389E+01 -1.15352834946E+02  1.61794579182E+02  0.00000000000E+00  0.00000000000E+00  1.
       -4    1    7    7    0  704 -1.58768547456E+01 -1.71905022964E+01 -1.18411262411E+02  1.20701346105E+02  1.34869915235E-06  0.00000000000E+00  1.
</event>
<event>
 9 113   1.0000000E+00   7.4550000E+01   7.8125000E-03   1.3429423E-01
        1   -1    0    0  501    0  0.00000000000E+00  0.00000000000E+00  1.59549756944E+02  1.59549756944E+02  0.00000000000E+00  0.00000000000E+00  1.
       -2   -1    0    0    0  501  0.00000000000E+00  0.00000000000E+00 -5.59203491718E+02  5.59203491718E+02  0.00000000000E+00  0.00000000000E+00  1.
       25    1    1    2    0    0 -2.47217007623E+01  2.94400936488E+01  6.17238841011E+00  1.30923565416E+02  1.25000000000E+02  0.00000000000E+00  1.
       -6    2    1    2    0  502 -1.29500142859E+02  6.98368003899E+01 -1.46198691671E+02  2.69951275778E+02  1.72777799960E+02  0.00000000000E+00  1.
        5    1    1    2  502    0  1.54221843621E+02 -9.92768940387E+01 -2.59627431512E+02  3.17878407467E+02  5.39479660939E-06  0.00000000000E+00  1.
       -5    1    4    4    0  502 -1.26541582478E+02  1.16290206742E+01 -8.38922391451E+01  1.52343285072E+02  4.75000000000E+00  0.00000000000E+00  1.
      -24    2    4    4    0    0 -2.95856038093E+00  5.82077797157E+01 -6.23064525263E+01  1.17607990706E+02  8.09484203218E+01  0.00000000000E+00  1.
        3    1    7    7  704    0  3.25730352094E+00 -1.29517347493E+01  9.44919212560E+00  1.63598499709E+01  2.04053434952E-06  0.00000000000E+00  1.
       -4    1    7    7    0  704 -6.21586390187E+00  7.11595144650E+01 -7.17556446519E+01  1.01248140735E+02  2.13248059988E-06  0.00000000000E+00  1.
</event>
<event>
 9 113   1.0000000E+00   7.4550000E+01   7.8125000E-03   1.3429423E-01
       -2   -1    0    0    0  501  0.00000000000E+00  0.00000000000E+00  1.11157112159E+02  1.11157112159E+02  0.00000000000E+00  0.00000000000E+00  1.
        1   -1    0    0  501    0  0.00000000000E+00  0.00000000000E+00 -1.67760505170E+03  1.67760505170E+03  0.00000000000E+00  0.00000000000E+00  1.
       25    1    1    2    0    0  5.44895666118E+01 -1.96592682213E+01 -1.67861977886E+02  2.17159488202E+02  1.25000000000E+02  0.00000000000E+00  1.
       -6    2    1    2    0  502  1.93470652947E+02  2.37037909318E+02 -4.71279185894E+02  5.87409808145E+02  1.71255212017E+02  0.00000000000E+00  1.
        5    1    1    2  502    0 -2.47960219559E+02 -2.17378641096E+02 -9.27306775757E+02  9.84192867508E+02  1.07895932188E-05  0.00000000000E+00  1.
       -5    1    4    4    0  502  8.56834397790E+01  1.79033663879E+02 -3.16449157884E+02  3.73573736604E+02  4.75000000000E+00  0.00000000000E+00  1.
      -24    2    4    4    0    0  1.07787213168E+02  5.80042454383E+01 -1.54830028010E+02  2.13836071541E+02  8.22857952954E+01  0.00000000000E+00  1.
        3    1    7    7  704    0  1.06511151645E+02  2.67684029415E+01 -1.43237092164E+02  1.80493870789E+02  2.69739830470E-06  0.00000000000E+00  1.
       -4    1    7    7    0  704  1.27606152318E+00  3.12358424968E+01 -1.15929358456E+01  3.33422007525E+01  9.83024984745E-07  0.00000000000E+00  1.
</event>
<event>
 9 113   1.0000000E+00   7.4550000E+01   7.8125000E-03   1.3429423E-01
        1   -1    0    0  501    0  0.00000000000E+00  0.00000000000E+00  1.82714070455E+01  1.82714070455E+01  0.00000000000E+00  0.00000000000E+00  1.
       -2   -1    0    0    0  501  0.00000000000E+00  0.00000000000E+00 -3.64300682981E+03  3.64300682981E+03  0.00000000000E+00  0.00000000000E+00  1.
       25    1    1    2    0    0 -3.75191782922E+01  2.67456223565E+01 -5.60586397898E+02  5.76198860258E+02  1.25000000000E+02  0.00000000000E+00  1.
       -6    2    1    2    0  502 -7.04483673510E+01 -6.18244197992E+01 -1.07856351042E+03  1.09625124221E+03  1.72285544070E+02  0.00000000000E+00  1.
        5    1    1    2  502    0  1.07967545643E+02  3.50787974428E+01 -1.98558551444E+03  1.98882813438E+03  2.15791864376E-05  0.00000000000E+00  1.
       -5    1    4    4    0  502 -8.33044521217E+01 -3.14304208335E+01 -7.91749855311E+02  7.96754603992E+02  4.74999999996E+00  0.00000000000E+00  1.
      -24    2    4    4    0    0  1.28560847707E+01 -3.03939989658E+01 -2.86813655110E+02  2.99496638221E+02  7.96686228032E+01  0.00000000000E+00  1.
       11    1    7    7    0    0 -1.93441260609E+01 -4.30342319630E+01 -1.16240644813E+02  1.25451296688E+02  5.10995038018E-04  0.00000000000E+00  1.
      -12    1    7    7    0    0  3.22002108316E+01  1.26402329973E+01 -1.70573010297E+02  1.74045341534E+02  3.30362473978E-06  0.00000000000E+00  1.
</event>
<event>
 9 113   1.0000000E+00   7.4550000E+01   7.8125000E-03   1.3429423E-01
       -2   -1    0    0    0  501  0.00000000000E+00  0.00000000000E+00  5.86156763526E+02  5.86156763526E+02  0.00000000000E+00  0.00000000000E+00  1.
        1   -1    0    0  501    0  0.00000000000E+00  0.00000000000E+00 -1.64696252828E+02  1.64696252828E+02  0.00000000000E+00  0.00000000000E+00  1.
       25    1    1    2    0    0  6.92312357029E+01  2.05024683020E+01  1.93587254365E+02  2.41483623163E+02  1.25000000000E+02  0.00000000000E+00  1.
       -6    2    1    2    0  502  3.71765892840E+01  3.64734338172E+01  3.13110780024E+02  3.61605006122E+02  1.73226469455E+02  0.00000000000E+00  1.
        5    1    1    2  502    0 -1.06407824987E+02 -5.69759021192E+01 -8.52375236908E+01  1.47764387068E+02  2.33601545599E-06  0.00000000000E+00  1.
       -5    1    4    4    0  502  7.58734157926E+01 -1.63408632889E+01  1.52357287767E+02  1.71052929448E+02  4.75000000000E+00  0.00000000000E+00  1.
      -24    2    4    4    0    0 -3.86968265086E+01  5.28142971061E+01  1.60753492257E+02  1.90552076674E+02  7.86232426907E+01  0.00000000000E+00  1.
        3    1    7    7  704    0 -6.87942185893E+00 -1.92195636240E+01  1.66790476651E+01  2.63611210313E+01  1.43051147461E-06  0.00000000000E+00  1.
       -4    1    7    7    0  704 -3.18174046496E+01  7.20338607301E+01  1.44074444592E+02  1.64190955643E+02  0.00000000000E+00  0.00000000000E+00  1.
</event>
<event>
 9 113   1.0000000E+00   7.4550000E+01   7.8125000E-03   1.3429423E-01
        1   -1    0    0  501    0  0.00000000000E+00  0.00000000000E+00  1.75218891880E+03  1.75218891880E+03  0.00000000000E+00  0.00000000000E+00  1.
       -2   -1    0    0    0  501  0.00000000000E+00  0.00000000000E+00 -5.78403147723E+01  5.78403147723E+01  0.00000000000E+00  0.00000000000E+00  1.
       25    1    1    2    0    0  4.76607332849E+01 -6.79532824235E+01  7.75493121575E+02  7.89875797641E+02  1.25000000000E+02  0.00000000000E+00  1.
       -6    2    1    2    0  502 -1.62757993812E+02 -6.22904517576E+01  3.71265963339E+02  4.45640519525E+02  1.74318077600E+02  0.00000000000E+00  1.
        5    1    1    2  502    0  1.15097260528E+02  1.30243734181E+02  5.47589519113E+02  5.74512916406E+02  7.62939453125E-06  0.00000000000E+00  1.
       -5    1    4    4    0  502 -1.57680385199E+01  6.31025690142E+00  1.83260015901E+02  1.84106616690E+02  4.75000000000E+00  0.00000000000E+00  1.
      -24    2    4    4    0    0 -1.46989955292E+02 -6.86007086590E+01  1.88005947438E+02  2.61533902835E+02  8.21075019387E+01  0.00000000000E+00  1.
        3    1    7    7  704    0 -8.24256375680E+01 -1.59422050272E+01  4.30673868246E+01  9.43553890221E+01  1.90734863281E-06  0.00000000000E+00  1.
       -4    1    7    7    0  704 -6.45643177245E+01 -5.26585036318E+01  1.44938560613E+02  1.67178513813E+02  1.90734863281E-06  0.00000000000E+00  1.
</event>
<event>
 9 113   1.0000000E+00   7.4550000E+01   7.8125000E-03   1.3429423E-01
       -2   -1    0    0    0  501  0.00000000000E+00  0.00000000000E+00  5.75944414939E+02  5.75944414939E+02  0.00000000000E+00  0.00000000000E+00  1.
        1   -1    0    0  501    0  0.00000000000E+00  0.00000000000E+00 -1.23567509945E+02  1.23567509945E+02  0.00000000000E+00  0.00000000000E+00  1.
       25    1    1    2    0    0  8.36926229220E+00  1.18768587884E+02  1.86018847795E+02  2.53779498294E+02  1.25000000000E+02  0.00000000000E+00  1.
       -6    2    1    2    0  502  3.39270739490E+01 -3.00148233118E+01  2.92712499206E+02  3.43944571722E+02  1.74829417606E+02  0.00000000000E+00  1.
        5    1    1    2  502    0 -4.22963362412E+01 -8.87537645721E+01 -2.63544420064E+01  1.01787854868E+02  1.75201159199E-06  0.00000000000E+00  1.
       -5    1    4    4    0  502 -3.46243580690E+00 -7.23428823981E+01  6.96546862818E+01  1.00597310682E+02  4.75000000000E+00  0.00000000000E+00  1.
      -24    2    4    4    0    0  3.73895097559E+01  4.23280590862E+01  2.23057812924E+02  2.43347261040E+02  7.92051862152E+01  0.00000000000E+00  1.
        3    1    7    7  704    0  3.86882722369E+01  2.02844266631E+01  4.08546704887E+01  5.98109059827E+01  1.34869915235E-06  0.00000000000E+00  1.
       -2    1    7    7    0  704 -1.29876248097E+00  2.20436324231E+01  1.82203142436E+02  1.83536355057E+02  2.69739830470E-06  0.00000000000E+00  1.
</event>
<event>
 9 113   1.0000000E+00   7.4550000E+01   7.8125000E-03   1.3429423E-01
        1   -1    0    0  501    0  0.00000000000E+00  0.00000000000E+00  8.29656269876E+02  8.29656269876E+02  0.00000000000E+00  0.00000000000E+00  1.
       -2   -1    0    0    0  501  0.00000000000E+00  0.00000000000E+00 -7.48070406935E+01  7.48070406935E+01  0.00000000000E+00  0.00000000000E+00  1.
       25    1    1    2    0    0 -1.04147728564E+02  9.56257389213E+01  2.81623869891E+02  3.39010376540E+02  1.25000000000E+02  0.00000000000E+00  1.
       -6    2    1    2    0  502  7.49324428707E-01 -7.81957738836E+00  2.54445640529E+02  3.08031650289E+02  1.73433578981E+02  0.00000000000E+00  1.
        5    1    1    2  502    0  1.03398404135E+02 -8.78061615330E+01  2.18779718763E+02  2.57421283741E+02  2.69739830470E-06  0.00000000000E+00  1.
       -5    1    4    4    0  502 -4.55937671398E+01  2.66404205637E+01  2.57513347915E+01  5.89423222596E+01  4.75000000000E+00  0.00000000000E+00  1.
      -24    2    4    4    0    0  4.63430915685E+01 -3.44599979520E+01  2.28694305737E+02  2.49089328029E+02  8.00576933627E+01  0.00000000000E+00  1.
        3    1    7    7  704    0  1.30558666308E+01 -2.43284092764E+01  1.28421996450E+01  3.04507675293E+01  1.66039327111E-06  0.00000000000E+00  1.
       -4    1    7    7    0  704  3.32872249377E+01 -1.01315886756E+01  2.15852106092E+02  2.18638560500E+02  0.00000000000E+00  0.00000000000E+00  1.
</event>
<event>
 9 113   1.0000000E+00   7.4550000E+01   7.8125000E-03   1.3429423E-01
        1   -1    0    0  501    0  0.00000000000E+00  0.00000000000E+00  1.51110888338E+03  1.51110888338E+03  0.00000000000E+00  0.00000000000E+00  1.
       -2   -1    0    0    0  501  0.00000000000E+00  0.00000000000E+00 -4.84249182932E+01  4.84249182932E+01  0.00000000000E+00  0.00000000000E+00  1.
       25    1    1    2    0    0 -3.03296397850E+01  2.43968078149E+01  5.41835731209E+02  5.57428067912E+02  1.25000000000E+02  0.00000000000E+00  1.
       -6    2    1    2    0  502  1.14518579487E+02 -2.87750701358E+01  2.50212213251E+02  3.26191819930E+02  1.72778592482E+02  0.00000000000E+00  1.
        5    1    1    2  502    0 -8.41889397022E+01  4.37826232093E+00  6.70636020627E+02  6.75913913832E+02  1.07895932188E-05  0.00000000000E+00  1.
       -5    1    4    4    0  502  1.47885720607E+01 -4.93553918169E+01  8.94097791337E+00  5.25086673897E+01  4.75000000000E+00  0.00000000000E+00  1.
      -24    2    4    4    0    0  9.97300074265E+01  2.05803216811E+01  2.41271235338E+02  2.73683152540E+02  7.95049367091E+01  0.00000000000E+00  1.
       11    1    7    7    0    0  6.88896674436E+01  2.06793673460E+00  2.22862755578E+02  2.33276382145E+02  5.11005717009E-04  0.00000000000E+00  1.
      -12    1    7    7    0    0  3.08403399829E+01  1.85123849464E+01  1.84084797600E+01  4.04067703948E+01  1.41050333574E-06  0.00000000000E+00  1.
</event>
<event>
 9 113   1.0000000E+00   7.4550000E+01   7.8125000E-03   1.3429423E-01
        1   -1    0    0  501    0  0.00000000000E+00  0.00000000000E+00  1.22162114557E+02  1.22162114557E+02  0.00000000000E+00  0.00000000000E+00  1.
       -2   -1    0    0    0  501  0.00000000000E+00  0.00000000000E+00 -4.88597923723E+02  4.88597923723E+02  0.00000000000E+00  0.00000000000E+00  1.
       25    1    1    2    0    0 -3.64174296036E+01 -5.38950294473E+01 -3.01870370842E+02  3.33139046301E+02  1.25000000000E+02  0.00000000000E+00  1.
       -6    2    1    2    0  502  2.95647092524E+01  2.67730997978E+00 -1.16468984817E+02  2.04380342731E+02  1.65302934180E+02  0.00000000000E+00  1.
        5    1    1    2  502    0  6.85272035127E+00  5.12177194676E+01  5.19035464933E+01  7.32406492479E+01  0.00000000000E+00  0.00000000000E+00  1.
       -5    1    4    4    0  502 -3.09857587014E+01 -1.46617110021E+01 -9.27849684790E+01  9.90287629300E+01  4.75000000000E+00  0.00000000000E+00  1.
      -24    2    4    4    0    0  6.05504679538E+01  1.73390209818E+01 -2.36840163378E+01  1.05351579801E+02  8.10618400887E+01  0.00000000000E+00  1.
       11    1    7    7    0    0  3.12374856126E+00  1.43580882499E+01  2.56660643522E+01  2.95746405364E+01  5.10998041507E-04  0.00000000000E+00  1.
      -12    1    7    7    0    0  5.74267193925E+01  2.98093273191E+00 -4.93500806899E+01  7.57769392642E+01  1.90734863281E-06  0.00000000000E+00  1.
</event>
<event>
 9 113   1.0000000E+00   7.4550000E+01   7.8125000E-03   1.3429423E-01
       -2   -1    0    0    0  501  0.00000000000E+00  0.00000000000E+00  5.88926957178E+02  5.88926957178E+02  0.00000000000E+00  0.00000000000E+00  1.
        1   -1    0    0  501    0  0.00000000000E+00  0.00000000000E+00 -1.62674056903E+02  1.62674056903E+02  0.00000000000E+00  0.00000000000E+00  1.
       25    1    1    2    0    0  3.90371988427E+01  6.66538287068E+01  3.33281238841E+02  3.64236214479E+02  1.25000000000E+02  0.00000000000E+00  1.
       -6    2    1    2    0  502 -3.14935743843E+01 -1.00484401131E+02  1.94522387964E+02  2.80061659111E+02  1.71774891607E+02  0.00000000000E+00  1.
        5    1    1    2  502    0 -7.54362445835E+00  3.38305724243E+01 -1.01550726529E+02  1.07303140490E+02  2.33601545599E-06  0.00000000000E+00  1.
       -5    1    4    4    0  502  5.03940190530E+01 -1.79388456449E+01  8.79162367107E+01  1.03020320892E+02  4.75000000000E+00  0.00000000000E+00  1.
      -24    2    4    4    0    0 -8.18875934373E+01 -8.25455554861E+01  1.06606151253E+02  1.77041338219E+02  8.03704999600E+01  0.00000000000E+00  1.
       11    1    7    7    0    0 -5.78252224068E+01 -8.44260086907E+01  4.67527031049E+01  1.12504766733E+02  5.10998597706E-04  0.00000000000E+00  1.
      -12    1    7    7    0    0 -2.40623710305E+01  1.88045320461E+00  5.98534481482E+01  6.45365714854E+01  6.74349576174E-07  0.00000000000E+00  1.
</event>
<event>
 9 113   1.0000000E+00   7.4550000E+01   7.8125000E-03   1.3429423E-01
        1   -1    0    0  501    0  0.00000000000E+00  0.00000000000E+00  2.89636170259E+02  2.89636170259E+02  0.00000000000E+00  0.00000000000E+00  1.
       -2   -1    0    0    0  501  0.00000000000E+00  0.00000000000E+00 -2.18347662095E+02  2.18347662095E+02  0.00000000000E+00  0.00000000000E+00  1.
       25    1    1    2    0    0  8.60111017135E+01  1.34631637910E+01  3.80834435831E+00  1.52376736689E+02  1.25000000000E+02  0.00000000000E+00  1.
       -6    2    1    2    0  502 -6.75042856795E+01  1.05153149703E+02 -3.61027841353E+00  2.16085831903E+02  1.76255607461E+02  0.00000000000E+00  1.
        5    1    1    2  502    0 -1.85068160340E+01 -1.18616313494E+02  7.10904422192E+01  1.39521263761E+02  2.52318507296E-06  0.00000000000E+00  1.
       -5    1    4    4    0  502 -1.42488010698E+01  8.65930159859E+01  5.28805350640E+01  1.02568475850E+02  4.75000000000E+00  0.00000000000E+00  1.
      -24    2    4    4    0    0 -5.32554846097E+01  1.85601337168E+01 -5.64908134776E+01  1.13517356054E+02  8.07115413894E+01  0.00000000000E+00  1.
        3    1    7    7  704    0  1.36553345201E+01  1.67948323782E+01  5.44938283576E+00  2.23210736471E+01  1.71926082395E-06  0.00000000000E+00  1.
       -4    1    7    7    0  704 -6.69108191298E+01  1.76530133861E+00 -6.19401963133E+01  9.11962824065E+01  1.65181236989E-06  0.00000000000E+00  1.
</event>
<event>
 9 113   1.0000000E+00   7.4550000E+01   7.8125000E-03   1.3429423E-01
       -2   -1    0    0    0  501  0.00000000000E+00  0.00000000000E+00  1.86487367746E+02  1.86487367746E+02  0.00000000000E+00  0.00000000000E+00  1.
        1   -1    0    0  501    0  0.00000000000E+00  0.00000000000E+00 -3.95892137906E+02  3.95892137906E+02  0.00000000000E+00  0.00000000000E+00  1.
       25    1    1    2    0    0  5.62695560619E+01 -6.18590968273E+00 -4.10232896312E+01  1.43221641906E+02  1.25000000000E+02  0.00000000000E+00  1.
       -6    2    1    2    0  502  1.29827719494E+02 -4.40978983558E+00 -1.15408426425E+02  2.45378067899E+02  1.73253018215E+02  0.00000000000E+00  1.
        5    1    1    2  502    0 -1.86097275556E+02  1.05956995183E+01 -5.29730541034E+01  1.93779795848E+02  4.72044703322E-06  0.00000000000E+00  1.
       -5    1    4    4    0  502  9.32919326380E+01 -1.84753743548E+01 -1.23281425651E+02  1.55774184522E+02  4.75000000000E+00  0.00000000000E+00  1.
      -24    2    4    4    0    0  3.65357868562E+01  1.40655845192E+01  7.87299922686E+00  8.96038833767E+01  8.02132620599E+01  0.00000000000E+00  1.
        1    1    7    7  704    0 -7.65437160001E+00 -1.78498663948E+01 -2.04260332123E+01  2.81856340658E+01  1.36961046375E-06  0.00000000000E+00  1.
       -2    1    7    7    0  704  4.41901584562E+01  3.19154509140E+01  2.82990324392E+01  6.14182493109E+01  1.39020726558E-06  0.00000000000E+00  1.
</event>
<event>
 9 113   1.0000000E+00   7.4550000E+01   7.8125000E-03   1.3429423E-01
        1   -1    0    0  501    0  0.00000000000E+00  0.00000000000E+00  9.26855685054E+02  9.26855685054E+02  0.00000000000E+00  0.00000000000E+00  1.
       -2   -1    0    0    0  501  0.00000000000E+00  0.00000000000E+00 -1.08734324258E+02  1.08734324258E+02  0.00000000000E+00  0.00000000000E+00  1.
       25    1    1    2    0    0 -3.35892260622E+00  1.57057056398E+01 -3.30324988574E+01  1.30284678806E+02  1.25000000000E+02  0.00000000000E+00  1.
       -6    2    1    2    0  502 -2.78333828078E+01  3.68872853364E-01  2.51088281027E+02  3.04214613025E+02  1.69488561983E+02  0.00000000000E+00  1.
        5    1    1    2  502    0  3.11923054141E+01 -1.60745784932E+01  6.00065578626E+02  6.01090717482E+02  0.00000000000E+00  0.00000000000E+00  1.
       -5    1    4    4    0  502 -6.90739605104E+01 -1.19742623053E+01  1.63264667877E+02  1.77742817732E+02  4.75000000000E+00  0.00000000000E+00  1.
      -24    2    4    4    0    0  4.12405777025E+01  1.23431351586E+01  8.78236131504E+01  1.26471795293E+02  8.01809811809E+01  0.00000000000E+00  1.
        1    1    7    7  704    0 -2.36026376513E+01  1.09019088050E+01  2.84535163898E+01  3.85426869151E+01  1.21570098724E-06  0.00000000000E+00  1.
       -2    1    7    7    0  704  6.48432153538E+01  1.44122635360E+00  5.93700967606E+01  8.79291083782E+01  1.50789149292E-06  0.00000000000E+00  1.
</event>
<event>
 9 113   1.0000000E+00   7.4550000E+01   7.8125000E-03   1.3429423E-01
        3   -1    0    0  501    0  0.00000000000E+00  0.00000000000E+00  1.51489966194E+02  1.51489966194E+02  0.00000000000E+00  0.00000000000E+00  1.
       -4   -1    0    0    0  501  0.00000000000E+00  0.00000000000E+00 -2.89349119516E+02  2.89349119516E+02  0.00000000000E+00  0.00000000000E+00  1.
       25    1    1    2    0    0 -4.83050100807E+01 -7.98648980230E+01  1.43328610454E+00  1.56009071032E+02  1.25000000000E+02  0.00000000000E+00  1.
       -6    2    1    2    0  502  1.18580049514E+01  8.58099413181E+01 -1.52820453712E+02  2.45501464067E+02  1.71501951814E+02  0.00000000000E+00  1.
        5    1    1    2  502    0  3.64470051294E+01 -5.94504329506E+00  1.35280142854E+01  3.93285506113E+01  1.56341517551E-06  0.00000000000E+00  1.
       -5    1    4    4    0  502 -7.59754076387E+00  8.89979816982E+01 -2.30924808334E+01  9.23806719127E+01  4.75000000000E+00  0.00000000000E+00  1.
      -24    2    4    4    0    0  1.94555457153E+01 -3.18804038010E+00 -1.29727972878E+02  1.53120792154E+02  7.89173503253E+01  0.00000000000E+00  1.
        1    1    7    7  704    0  9.69658299946E+00 -2.76792366992E+01 -1.07179797776E+01  3.12256137911E+01  8.59630411974E-07  0.00000000000E+00  1.
       -2    1    7    7    0  704  9.75896271579E+00  2.44911963191E+01 -1.19009993101E+02  1.21895178363E+02  1.34869915235E-06  0.00000000000E+00  1.
</event>
<event>
 9 113   1.0000000E+00   7.4550000E+01   7.8125000E-03   1.3429423E-01
        1   -1    0    0  501    0  0.00000000000E+00  0.00000000000E+00  1.91721155012E+02  1.91721155012E+02  0.00000000000E+00  0.00000000000E+00  1.
       -2   -1    0    0    0  501  0.00000000000E+00  0.00000000000E+00 -4.86640313042E+02  4.86640313042E+02  0.00000000000E+00  0.00000000000E+00  1.
       25    1    1    2    0    0  1.49012950499E+02  6.33021418472E+01 -1.11214499027E+02  2.32821144600E+02  1.25000000000E+02  0.00000000000E+00  1.
       -6    2    1    2    0  502  1.44399279847E+01 -1.40697098296E+02 -9.94490177915E+01  2.46026324336E+02  1.75027598218E+02  0.00000000000E+00  1.
        5    1    1    2  502    0 -1.63452878483E+02  7.73949564483E+01 -8.42556412112E+01  1.99513999118E+02  1.65181236989E-06  0.00000000000E+00  1.
       -5    1    4    4    0  502  6.58920944069E+01 -9.63669664340E+01 -7.13015409681E+01  1.36875244546E+02  4.75000000000E+00  0.00000000000E+00  1.
      -24    2    4    4    0    0 -5.14521664222E+01 -4.43301318615E+01 -2.81474768234E+01  1.09151079791E+02  8.06795621428E+01  0.00000000000E+00  1.
        3    1    7    7  704    0 -6.71550630375E+01 -3.01508402655E+01 -4.11339874320E+01  8.43260373926E+01  1.06624029994E-06  0.00000000000E+00  1.
       -4    1    7    7    0  704  1.57028966153E+01 -1.41792915960E+01  1.29865106086E+01  2.48250423980E+01  1.13091861969E-06  0.00000000000E+00  1.
</event>
<event>
 9 113   1.0000000E+00   7.4550000E+01   7.8125000E-03   1.3429423E-01
       -2   -1    0    0    0  501  0.00000000000E+00  0.00000000000E+00  2.79458319367E+01  2.79458319367E+01  0.00000000000E+00  0.00000000000E+00  1.
        1   -1    0    0  501    0  0.00000000000E+00  0.00000000000E+00 -2.95523968721E+03  2.95523968721E+03  0.00000000000E+00  0.00000000000E+00  1.
       25    1    1    2    0    0 -7.51297960023E+01 -6.18724375658E+01 -5.77893492942E+02  5.99214964735E+02  1.25000000000E+02  0.00000000000E+00  1.
       -6    2    1    2    0  502  8.08234742219E+01 -3.49462022243E+01 -5.81631264658E+02  6.13542964909E+02  1.74316868738E+02  0.00000000000E+00  1.
        5    1    1    2  502    0 -5.69367821967E+00  9.68186397901E+01 -1.76776909768E+03  1.77042758951E+03  2.15791864376E-05  0.00000000000E+00  1.
       -5    1    4    4    0  502  2.28638881213E+01 -7.94885169303E+01 -3.22133351987E+02  3.32616356583E+02  4.75000000000E+00  0.00000000000E+00  1.
      -24    2    4    4    0    0  5.79595861006E+01  4.45423147060E+01 -2.59497912671E+02  2.80926608326E+02  7.89763329425E+01  0.00000000000E+00  1.
        3    1    7    7  704    0 -6.97006684336E+00 -1.06443649170E+00 -1.21796952624E+02  1.22000871002E+02  1.34869915235E-06  0.00000000000E+00  1.
       -4    1    7    7    0  704  6.49296529439E+01  4.56067511977E+01 -1.37700960047E+02  1.58925737324E+02  1.90734863281E-06  0.00000000000E+00  1.
</event>
<event>
 9 113   1.0000000E+00   7.4550000E+01   7.8125000E-03   1.3429423E-01
       -2   -1    0    0    0  501  0.00000000000E+00  0.00000000000E+00  2.13063523613E+02  2.13063523613E+02  0.00000000000E+00  0.00000000000E+00  1.
        1   -1    0    0  501    0  0.00000000000E+00  0.00000000000E+00 -4.16458744691E+02  4.16458744691E+02  0.00000000000E+00  0.00000000000E+00  1.
       25    1    1    2    0    0  4.10223601473E+01 -3.19373220157E+00 -1.06416862600E+01  1.32027570772E+02  1.25000000000E+02  0.00000000000E+00  1.
       -6    2    1    2    0  502  1.41582803714E+01  3.69327101355E+01  9.85531248978E+01  1.99094309271E+02  1.68408264571E+02  0.00000000000E+00  1.
        5    1    1    2  502    0 -5.51806405187E+01 -3.37389779340E+01 -2.91306659716E+02  2.98400388262E+02  5.39479660939E-06  0.00000000000E+00  1.
       -5    1    4    4    0  502 -2.41585991831E+01  7.43916483342E+01  6.18010805943E+01  9.97982530859E+01  4.75000000000E+00  0.00000000000E+00  1.
      -24    2    4    4    0    0  3.83168795545E+01 -3.74589381986E+01  3.67520443035E+01  9.92960561852E+01  7.50842107483E+01  0.00000000000E+00  1.
        3    1    7    7  704    0  1.86439130142E+01 -3.48514928831E+01 -1.62238617557E+01  4.27251183606E+01  7.53945746462E-07  0.00000000000E+00  1.
       -2    1    7    7    0  704  1.96729665403E+01 -2.60744531553E+00  5.29759060591E+01  5.65709378246E+01  9.53674316406E-07  0.00000000000E+00  1.
</event>
<event>
 9 113   1.0000000E+00   7.4550000E+01   7.8125000E-03   1.3429423E-01
       -2   -1    0    0    0  501  0.00000000000E+00  0.00000000000E+00  4.26698390119E+02  4.26698390119E+02  0.00000000000E+00  0.00000000000E+00  1.
        1   -1    0    0  501    0  0.00000000000E+00  0.00000000000E+00 -1.67263508007E+02  1.67263508007E+02  0.00000000000E+00  0.00000000000E+00  1.
       25    1    1    2    0    0  1.02230020612E+02  1.45137044849E+02  1.90517843377E+02  2.88855997941E+02  1.25000000000E+02  0.00000000000E+00  1.
       -6    2    1    2    0  502 -3.66482091192E+01 -9.78484059054E+01  1.00320958464E+02  2.18368390732E+02  1.63410702201E+02  0.00000000000E+00  1.
        5    1    1    2  502    0 -6.55818114926E+01 -4.72886389438E+01 -3.14039197282E+01  8.67375094529E+01  1.26159253648E-06  0.00000000000E+00  1.
       -5    1    4    4    0  502  1.82816451640E+01 -7.06248513178E+01 -2.45306658771E+00  7.31482618334E+01  4.75000000000E+00  0.00000000000E+00  1.
      -24    2    4    4    0    0 -5.49298542832E+01 -2.72235545876E+01  1.02774025052E+02  1.45220128899E+02  8.22677020225E+01  0.00000000000E+00  1.
        3    1    7    7  704    0 -4.27001696982E+01 -2.68115010059E+01  9.69909305445E+00  5.13442643780E+01  1.45024359949E-06  0.00000000000E+00  1.
       -4    1    7    7    0  704 -1.22296845850E+01 -4.12053581759E-01  9.30749319973E+01  9.38758645207E+01  0.00000000000E+00  0.00000000000E+00  1.
</event>
<event>
 9 113   1.0000000E+00   7.4550000E+01   7.8125000E-03   1.3429423E-01
       -2   -1    0    0    0  501  0.00000000000E+00  0.00000000000E+00  4.13272827760E+02  4.13272827760E+02  0.00000000000E+00  0.00000000000E+00  1.
        1   -1    0    0  501    0  0.00000000000E+00  0.00000000000E+00 -3.00605229913E+02  3.00605229913E+02  0.00000000000E+00  0.00000000000E+00  1.
       25    1    1    2    0    0 -3.62689388979E+01 -1.30921458139E+02  9.10997913375E+01  2.05864120506E+02  1.25000000000E+02  0.00000000000E+00  1.
       -6    2    1    2    0  502  9.47873883469E+00 -1.46719366108E+02 -1.00579559970E+01  2.27296408392E+02  1.73049345298E+02  0.00000000000E+00  1.
        5    1    1    2  502    0  2.67902000632E+01  2.77640824247E+02  3.16257625066E+01  2.80717528776E+02  3.26903085728E-06  0.00000000000E+00  1.
       -5    1    4    4    0  502 -4.76544489927E+01 -5.88825179733E+01  3.97104120256E+01  8.56596565188E+01  4.75000000000E+00  0.00000000000E+00  1.
      -24    2    4    4    0    0  5.71331878274E+01 -8.78368481342E+01 -4.97683680226E+01  1.41636751873E+02  8.12684808768E+01  0.00000000000E+00  1.
        1    1    7    7  704    0  1.81102562607E+01  6.55197529699E+00 -3.28905712228E+01  3.81142943983E+01  4.76837158203E-07  0.00000000000E+00  1.
       -2    1    7    7    0  704  3.90229315667E+01 -9.43888234312E+01 -1.68777967999E+01  1.03522457475E+02  5.84003863998E-07  0.00000000000E+00  1.
</event>
<event>
 9 113   1.0000000E+00   7.4550000E+01   7.8125000E-03   1.3429423E-01
       -2   -1    0    0    0  501  0.00000000000E+00  0.00000000000E+00  5.73202817210E+01  5.73202817210E+01  0.00000000000E+00  0.00000000000E+00  1.
        1   -1    0    0  501    0  0.00000000000E+00  0.00000000000E+00 -1.62065424927E+03  1.62065424927E+03  0.00000000000E+00  0.00000000000E+00  1.
       25    1    1    2    0    0 -1.62689596882E+02  1.31612598467E+02 -3.37412749269E+02  4.16247695943E+02  1.25000000000E+02  0.00000000000E+00  1.
       -6    2    1    2    0  502  9.43347466923E+01 -1.04651057164E+02 -9.67854773214E+02  9.93403149320E+02  1.73942711391E+02  0.00000000000E+00  1.
        5    1    1    2  502    0  6.83548501892E+01 -2.69615413023E+01 -2.58066445067E+02  2.68323685729E+02  5.39479660939E-06  0.00000000000E+00  1.
       -5    1    4    4    0  502  1.28762486192E+01 -3.60118900631E+01 -3.82118648685E+01  5.42711997393E+01  4.75000000000E+00  0.00000000000E+00  1.
      -24    2    4    4    0    0  8.14584980731E+01 -6.86391671012E+01 -9.29642908346E+02  9.39131949580E+02  7.99128244834E+01  0.00000000000E+00  1.
        1    1    7    7  704    0  3.48603662228E+01 -7.72697602822E+01 -6.49570013947E+02  6.55077906823E+02  1.32144989591E-05  0.00000000000E+00  1.
       -2    1    7    7    0  704  4.65981318504E+01  8.63059318103E+00 -2.80072894398E+02  2.84054042758E+02  3.81469726562E-06  0.00000000000E+00  1.
</event>
<event>
 9 113   1.0000000E+00   7.4550000E+01   7.8125000E-03   1.3429423E-01
       -2   -1    0    0    0  501  0.00000000000E+00  0.00000000000E+00  3.48852611066E+02  3.48852611066E+02  0.00000000000E+00  0.00000000000E+00  1.
        1   -1    0    0  501    0  0.00000000000E+00  0.00000000000E+00 -1.42560635278E+02  1.42560635278E+02  0.00000000000E+00  0.00000000000E+00  1.
       25    1    1    2    0    0 -1.29980729411E+01  7.89868449838E+00  1.24699929691E+02  1.77218541868E+02  1.25000000000E+02  0.00000000000E+00  1.
       -6    2    1    2    0  502  6.21158514139E+01 -7.61752499904E+01  1.07900016117E+02  2.26067779850E+02  1.72635975105E+02  0.00000000000E+00  1.
        5    1    1    2  502    0 -4.91177784728E+01  6.82765654920E+01 -2.63079700204E+01  8.81269246262E+01  2.86102294922E-06  0.00000000000E+00  1.
       -5    1    4    4    0  502 -1.33492777545E+00 -3.44403780261E+01  1.09277225609E+02  1.14682152960E+02  4.75000000000E+00  0.00000000000E+00  1.
      -24    2    4    4    0    0  6.34507791893E+01 -4.17348719642E+01 -1.37720949173E+00  1.11385626890E+02  8.14681548466E+01  0.00000000000E+00  1.
        3    1    7    7  704    0  7.04490210407E+01 -4.83280096504E+01  2.01784348610E+01  8.77828588951E+01  1.43051147461E-06  0.00000000000E+00  1.
       -4    1    7    7    0  704 -6.99824185141E+00  6.59313768615E+00 -2.15556443528E+01  2.36027679949E+01  1.34869915235E-06  0.00000000000E+00  1.
</event>
<event>
 9 113   1.0000000E+00   7.4550000E+01   7.8125000E-03   1.3429423E-01
       -2   -1    0    0    0  501  0.00000000000E+00  0.00000000000E+00  9.87560701786E+01  9.87560701786E+01  0.00000000000E+00  0.00000000000E+00  1.
        1   -1    0    0  501    0  0.00000000000E+00  0.00000000000E+00 -6.54145712001E+02  6.54145712001E+02  0.00000000000E+00  0.00000000000E+00  1.
       25    1    1    2    0    0  3.22811167789E+01  6.11587417961E+01 -2.63548906668E+01  1.45265420733E+02  1.25000000000E+02  0.00000000000E+00  1.
       -6    2    1    2    0  502 -6.66449103123E+00  4.08213348818E+01 -2.36534083317E+02  2.96810384026E+02  1.74462702812E+02  0.00000000000E+00  1.
        5    1    1    2  502    0 -2.56166257476E+01 -1.01980076678E+02 -2.92500667838E+02  3.10825977421E+02  6.60724947956E-06  0.00000000000E+00  1.
       -5    1    4    4    0  502 -5.20235928644E+01 -2.91563836173E+01 -1.04780973350E+02  1.20657216097E+02  4.75000000000E+00  0.00000000000E+00  1.
      -24    2    4    4    0    0  4.53591018332E+01  6.99777184991E+01 -1.31753109968E+02  1.76153167929E+02  8.19556427578E+01  0.00000000000E+00  1.
        3    1    7    7  704    0 -1.50335565918E+01  2.63120021704E+01 -7.96520582441E+01  8.52219435623E+01  1.65181236989E-06  0.00000000000E+00  1.
       -4    1    7    7    0  704  6.03926584250E+01  4.36657163287E+01 -5.21010517236E+01  9.09312243667E+01  6.74349576174E-07  0.00000000000E+00  1.
</event>
<event>
 9 113   1.0000000E+00   7.4550000E+01   7.8125000E-03   1.3429423E-01
       -2   -1    0    0    0  501  0.00000000000E+00  0.00000000000E+00  5.66577292082E+02  5.66577292082E+02  0.00000000000E+00  0.00000000000E+00  1.
        1   -1    0    0  501    0  0.00000000000E+00  0.00000000000E+00 -5.71977932146E+02  5.71977932146E+02  0.00000000000E+00  0.00000000000E+00  1.
       25    1    1    2    0    0  4.01597066051E+02 -9.31737922779E+01  9.36976641951E+01  4.40869381228E+02  1.25000000000E+02  0.00000000000E+00  1.
       -6    2    1    2    0  502  7.26915703378E+01  1.73471065571E+01 -1.08250294180E+02  2.17286888177E+02  1.72946463045E+02  0.00000000000E+00  1.
        5    1    1    2  502    0 -4.74288636389E+02  7.58266857208E+01  9.15198992042E+00  4.80398954823E+02  4.26662687497E-06  0.00000000000E+00  1.
       -5    1    4    4    0  502  2.84578924404E+01 -3.89317126791E+01  1.77234501256E+01  5.15966382493E+01  4.75000000000E+00  0.00000000000E+00  1.
      -24    2    4    4    0    0  4.42336778974E+01  5.62788192362E+01 -1.25973744306E+02  1.65690249928E+02  8.03738198166E+01  0.00000000000E+00  1.
       11    1    7    7    0    0 -4.99071147542E-01  6.35264403848E+00 -8.88193362124E+01  8.90476257054E+01  5.11002157370E-04  0.00000000000E+00  1.
      -12    1    7    7    0    0  4.47327490449E+01  4.99261751977E+01 -3.71544080932E+01  7.66426242227E+01  1.26159253648E-06  0.00000000000E+00  1.
</event>
<event>
 9 113   1.0000000E+00   7.4550000E+01   7.8125000E-03   1.3429423E-01
        3   -1    0    0  501    0  0.00000000000E+00  0.00000000000E+00  2.86551476389E+03  2.86551476389E+03  0.00000000000E+00  0.00000000000E+00  1.
       -4   -1    0    0    0  501  0.00000000000E+00  0.00000000000E+00 -2.44105155015E+01  2.44105155015E+01  0.00000000000E+00  0.00000000000E+00  1.
       25    1    1    2    0    0 -7.71902046485E+01  6.97928544199E+00  9.81648743823E+02  9.92605810163E+02  1.25000000000E+02  0.00000000000E+00  1.
       -6    2    1    2    0  502 -7.12466210523E+01 -7.69737134057E+01  7.99240091354E+02  8.24477713153E+02  1.73140816363E+02  0.00000000000E+00  1.
        5    1    1    2  502    0  1.48436825701E+02  6.99944279637E+01  1.06021541321E+03  1.07284175608E+03  1.52587890625E-05  0.00000000000E+00  1.
       -5    1    4    4    0  502 -2.79076989439E+01 -9.32742813772E+01  5.46120017987E+02  5.54750906058E+02  4.75000000001E+00  0.00000000000E+00  1.
      -24    2    4    4    0    0 -4.33389221084E+01  1.63005679715E+01  2.53120073368E+02  2.69726807095E+02  8.08628977844E+01  0.00000000000E+00  1.
        1    1    7    7  704    0  5.60889030362E+00  1.06957770813E+01  1.86384534948E+02  1.86775411030E+02  3.81469726562E-06  0.00000000000E+00  1.
       -2    1    7    7    0  704 -4.89478124120E+01  5.60479089015E+00  6.67355384200E+01  8.29513960645E+01  3.69356474515E-06  0.00000000000E+00  1.
</event>
<event>
 9 113   1.0000000E+00   7.4550000E+01   7.8125000E-03   1.3429423E-01
       -2   -1    0    0    0  501  0.00000000000E+00  0.00000000000E+00  2.15098458674E+02  2.15098458674E+02  0.00000000000E+00  0.00000000000E+00  1.
        1   -1    0    0  501    0  0.00000000000E+00  0.00000000000E+00 -7.98547739027E+02  7.98547739027E+02  0.00000000000E+00  0.00000000000E+00  1.
       25    1    1    2    0    0 -5.18240781468E+00 -2.54268181840E+01 -1.41478868309E+02  1.90564032838E+02  1.25000000000E+02  0.00000000000E+00  1.
       -6    2    1    2    0  502  3.21277419960E+02  7.79904664274E+01 -2.53980344489E+02  4.51572731174E+02  1.73522974626E+02  0.00000000000E+00  1.
        5    1    1    2  502    0 -3.16095012145E+02 -5.25636482434E+01 -1.87990067556E+02  3.71509433688E+02  1.17576866207E-05  0.00000000000E+00  1.
       -5    1    4    4    0  502  1.63968306946E+02  4.12842931137E+01 -2.02622801215E+02  2.63948026348E+02  4.74999999999E+00  0.00000000000E+00  1.
      -24    2    4    4    0    0  1.57309113014E+02  3.67061733137E+01 -5.13575432737E+01  1.87624704826E+02  8.04483213821E+01  0.00000000000E+00  1.
        3    1    7    7  704    0  8.95849721599E+01  3.04807642233E+01 -6.92972262036E+01  1.17288745343E+02  2.86102294922E-06  0.00000000000E+00  1.
       -4    1    7    7    0  704  6.77241408542E+01  6.22540909045E+00  1.79396829299E+01  7.03359594831E+01  1.28392334154E-06  0.00000000000E+00  1.
</event>
<event>
 9 113   1.0000000E+00   7.4550000E+01   7.8125000E-03   1.3429423E-01
       -2   -1    0    0    0  501  0.00000000000E+00  0.00000000000E+00  8.75285588105E+01  8.75285588105E+01  0.00000000000E+00  0.00000000000E+00  1.
        1   -1    0    0  501    0  0.00000000000E+00  0.00000000000E+00 -7.44555463773E+02  7.44555463773E+02  0.00000000000E+00  0.00000000000E+00  1.
       25    1    1    2    0    0 -7.52987672440E+01 -9.64338576467E+00 -8.94243851490E+01  1.71419426836E+02  1.25000000000E+02  0.00000000000E+00  1.
       -6    2    1    2    0  502  4.17326737027E+01  4.62569635368E+01 -1.42199818804E+02  2.32371828193E+02  1.72900420301E+02  0.00000000000E+00  1.
        5    1    1    2  502    0  3.35660935413E+01 -3.66135777721E+01 -4.25402701010E+02  4.28292767554E+02  7.62939453125E-06  0.00000000000E+00  1.
       -5    1    4    4    0  502 -6.97046250318E+00  7.80291217519E+01 -9.37950493035E+01  1.22299652341E+02  4.75000000000E+00  0.00000000000E+00  1.
      -24    2    4    4    0    0  4.87031362059E+01 -3.17721582152E+01 -4.84047695004E+01  1.10072175852E+02  7.99462111208E+01  0.00000000000E+00  1.
        1    1    7    7  704    0  2.02120482572E+01 -5.67590697629E+01 -2.32151354136E+01  6.45682693540E+01  1.68587394044E-06  0.00000000000E+00  1.
       -4    1    7    7    0  704  2.84910879487E+01  2.49869115477E+01 -2.51896340868E+01  4.55039064984E+01  5.84003863998E-07  0.00000000000E+00  1.
</event>
<event>
 9 113   1.0000000E+00   7.4550000E+01   7.8125000E-03   1.3429423E-01
       -2   -1    0    0    0  501  0.00000000000E+00  0.00000000000E+00  3.70086029879E+02  3.70086029879E+02  0.00000000000E+00  0.00000000000E+00  1.
        1   -1    0    0  501    0  0.00000000000E+00  0.00000000000E+00 -1.75419892928E+03  1.75419892928E+03  0.00000000000E+00  0.00000000000E+00  1.
       25    1    1    2    0    0  5.01104885551E+00 -1.42226279042E+02  1.66176845480E+02  2.51978509073E+02  1.25000000000E+02  0.00000000000E+00  1.
       -6    2    1    2    0  502 -1.13873540963E+02 -1.72625114987E+02  1.71088308329E+01  2.69895535976E+02  1.72581211583E+02  0.00000000000E+00  1.
        5    1    1    2  502    0  1.08862492107E+02  3.14851394029E+02 -1.56739857571E+03  1.60241091411E+03  3.73762472959E-05  0.00000000000E+00  1.
       -5    1    4    4    0  502 -1.20486361766E+02 -9.88630814225E+01 -1.18351366420E+01  1.56376165701E+02  4.75000000000E+00  0.00000000000E+00  1.
      -24    2    4    4    0    0  6.61282080315E+00 -7.37620335643E+01  2.89439674749E+01  1.13519370275E+02  8.10205355442E+01  0.00000000000E+00  1.
        1    1    7    7  704    0 -1.00821996889E+01 -4.80704753408E+01 -2.21995193538E+01  5.39002783815E+01  1.03924249257E-06  0.00000000000E+00  1.
       -2    1    7    7    0  704  1.66950204921E+01 -2.56915582234E+01  5.11434868287E+01  5.96190918932E+01  9.53674316406E-07  0.00000000000E+00  1.
</event>
<event>
 9 113   1.0000000E+00   7.4550000E+01   7.8125000E-03   1.3429423E-01
       -2   -1    0    0    0  501  0.00000000000E+00  0.00000000000E+00  2.39263085223E+03  2.39263085223E+03  0.00000000000E+00  0.00000000000E+00  1.
        1   -1    0    0  501    0  0.00000000000E+00  0.00000000000E+00 -8.09726759944E+02  8.09726759944E+02  0.00000000000E+00  0.00000000000E+00  1.
       25    1    1    2    0    0 -2.28042137332E+02 -9.57790807331E+02  9.68773934870E+02  1.38690821033E+03  1.25000000000E+02  0.00000000000E+00  1.
       -6    2    1    2    0  502 -2.13020648146E+01 -3.28984874132E+02  2.81323300518E+02  4.63145963423E+02  1.63329601261E+02  0.00000000000E+00  1.
        5    1    1    2  502    0  2.49344202146E+02  1.28677568146E+03  3.32806856895E+02  1.35230343841E+03  3.07550725872E-05  0.00000000000E+00  1.
       -5    1    4    4    0  502 -6.47883260366E+01 -1.67822174704E+02  1.08504755118E+02  2.10137226345E+02  4.75000000000E+00  0.00000000000E+00  1.
      -24    2    4    4    0    0  4.34862612220E+01 -1.61162699428E+02  1.72818545399E+02  2.53008737078E+02  7.92634897140E+01  0.00000000000E+00  1.
        3    1    7    7  704    0  4.46655962455E+01 -1.67560659043E+02  1.74783184277E+02  2.46212817402E+02  2.69739830470E-06  0.00000000000E+00  1.
       -4    1    7    7    0  704 -1.17933502346E+00  6.39795961442E+00 -1.96463887766E+00  6.79591967617E+00  2.05236111721E-06  0.00000000000E+00  1.
</event>
<event>
 9 113   1.0000000E+00   7.4550000E+01   7.8125000E-03   1.3429423E-01
       -2   -1    0    0    0  501  0.00000000000E+00  0.00000000000E+00  9.49329636487E+02  9.49329636487E+02  0.00000000000E+00  0.00000000000E+00  1.
        1   -1    0    0  501    0  0.00000000000E+00  0.00000000000E+00 -1.09661291945E+02  1.09661291945E+02  0.00000000000E+00  0.00000000000E+00  1.
       25    1    1    2    0    0  1.62600553879E+02 -3.29802754675E+01  5.30149174508E+02  5.69394227160E+02  1.25000000000E+02  0.00000000000E+00  1.
       -6    2    1    2    0  502 -2.64015365386E+01  7.13530215665E+01  2.90858134434E+02  3.46870129754E+02  1.73009068347E+02  0.00000000000E+00  1.
        5    1    1    2  502    0 -1.36199017340E+02 -3.83727460989E+01  1.86610356000E+01  1.42726571518E+02  4.96689478302E-06  0.00000000000E+00  1.
       -5    1    4    4    0  502  2.45738897252E+00  9.79806966463E+01  1.35611486557E+02  1.67389645624E+02  4.75000000000E+00  0.00000000000E+00  1.
      -24    2    4    4    0    0 -2.88589255111E+01 -2.66276750798E+01  1.55246647878E+02  1.79480484130E+02  8.10546225980E+01  0.00000000000E+00  1.
        1    1    7    7  704    0 -5.63317705111E+01 -1.16200667830E+01  1.14115965099E+02  1.27791814337E+02  1.90734863281E-06  0.00000000000E+00  1.
       -2    1    7    7    0  704  2.74728449999E+01 -1.50076082968E+01  4.11306827785E+01  5.16886697933E+01  1.26159253648E-06  0.00000000000E+00  1.
</event>
<event>
 9 113   1.0000000E+00   7.4550000E+01   7.8125000E-03   1.3429423E-01
       -2   -1    0    0    0  501  0.00000000000E+00  0.00000000000E+00  1.09983520200E+02  1.09983520200E+02  0.00000000000E+00  0.00000000000E+00  1.
        1   -1    0    0  501    0  0.00000000000E+00  0.00000000000E+00 -9.95392435836E+02  9.95392435836E+02  0.00000000000E+00  0.00000000000E+00  1.
       25    1    1    2    0    0  1.86522592342E+02  4.35636820877E+01 -2.68169569066E+02  3.52460479521E+02  1.25000000000E+02  0.00000000000E+00  1.
       -6    2    1    2    0  502 -1.91934160210E+01 -4.95840860100E+01 -8.98601400035E+01  1.99594479236E+02  1.70106268480E+02  0.00000000000E+00  1.
        5    1    1    2  502    0 -1.67329176321E+02  6.02040392233E+00 -5.27379206566E+02  5.53320997279E+02  1.07895932188E-05  0.00000000000E+00  1.
       -5    1    4    4    0  502 -4.67039933923E+01 -2.62614864214E+01 -9.64181351922E+01  1.10408097356E+02  4.75000000000E+00  0.00000000000E+00  1.
      -24    2    4    4    0    0  2.75105773713E+01 -2.33225995886E+01  6.55799518866E+00  8.91863818799E+01  8.13045379610E+01  0.00000000000E+00  1.
        3    1    7    7  704    0 -1.29179722187E+01 -3.47550992153E+01 -1.72513973159E+01  4.08950074834E+01  6.30796268240E-07  0.00000000000E+00  1.
       -2    1    7    7    0  704  4.04285495900E+01  1.14324996267E+01  2.38093925046E+01  4.82913743965E+01  1.11828226085E-06  0.00000000000E+00  1.
</event>
<event>
 9 113   1.0000000E+00   7.4550000E+01   7.8125000E-03   1.3429423E-01
       -2   -1    0    0    0  501  0.00000000000E+00  0.00000000000E+00  9.75712595369E+02  9.75712595369E+02  0.00000000000E+00  0.00000000000E+00  1.
        1   -1    0    0  501    0  0.00000000000E+00  0.00000000000E+00 -1.22136424576E+02  1.22136424576E+02  0.00000000000E+00  0.00000000000E+00  1.
       25    1    1    2    0    0 -1.40667406342E+02  7.52770009232E+01  1.90355132919E+02  2.78053992425E+02  1.25000000000E+02  0.00000000000E+00  1.
       -6    2    1    2    0  502 -7.12539210214E+01  8.87776782098E+01  2.21227952110E+02  3.02898060417E+02  1.72762353540E+02  0.00000000000E+00  1.
        5    1    1    2  502    0  2.11921327364E+02 -1.64054679133E+02  4.41993085764E+02  5.16896967103E+02  1.42732902022E-05  0.00000000000E+00  1.
       -5    1    4    4    0  502 -5.83079704508E+00  7.22220406846E+01  1.96036135212E+01  7.52122697299E+01  4.75000000000E+00  0.00000000000E+00  1.
      -24    2    4    4    0    0 -6.54231239763E+01  1.65556375252E+01  2.01624338589E+02  2.27685790687E+02  8.14504210240E+01  0.00000000000E+00  1.
       15    1    7    7    0    0 -2.31352228647E+01  9.98724644505E-01  2.30736338262E+00  2.33391716206E+01  1.77680000000E+00  0.00000000000E+00  1.
      -16    1    7    7    0    0 -4.22879011116E+01  1.55569128807E+01  1.99316975206E+02  2.04346619067E+02  2.69739830470E-06  0.00000000000E+00  1.
</event>
<event>
 9 113   1.0000000E+00   7.4550000E+01   7.8125000E-03   1.3429423E-01
       -2   -1    0    0    0  501  0.00000000000E+00  0.00000000000E+00  5.04632061411E+02  5.04632061411E+02  0.00000000000E+00  0.00000000000E+00  1.
        1   -1    0    0  501    0  0.00000000000E+00  0.00000000000E+00 -2.19832081919E+02  2.19832081919E+02  0.00000000000E+00  0.00000000000E+00  1.
       25    1    1    2    0    0  2.78848484293E+01 -3.19125383068E+01 -1.40102355124E+02  1.92482842831E+02  1.25000000000E+02  0.00000000000E+00  1.
       -6    2    1    2    0  502 -2.62502413583E+01  1.27121025695E+02  3.53044046187E+02  4.12687790084E+02  1.69771267274E+02  0.00000000000E+00  1.
        5    1    1    2  502    0 -1.63460707095E+00 -9.52084873885E+01  7.18582884296E+01  1.19293510415E+02  3.01578298585E-06  0.00000000000E+00  1.
       -5    1    4    4    0  502 -1.09219838349E+00 -7.10033823213E+00 -1.19113496674E+01  1.46986547418E+01  4.75000000000E+00  0.00000000000E+00  1.
      -24    2    4    4    0    0 -2.51580429748E+01  1.34221363927E+02  3.64955395854E+02  3.97989135342E+02  8.09605411720E+01  0.00000000000E+00  1.
        3    1    7    7  704    0 -3.46013981734E+01  1.41423979064E+01  1.05825140181E+02  1.12232902789E+02  1.34869915235E-06  0.00000000000E+00  1.
       -2    1    7    7    0  704  9.44335519851E+00  1.20078966021E+02  2.59130255673E+02  2.85756232554E+02  0.00000000000E+00  0.00000000000E+00  1.
</event>
<event>
 9 113   1.0000000E+00   7.4550000E+01   7.8125000E-03   1.3429423E-01
       -2   -1    0    0    0  501  0.00000000000E+00  0.00000000000E+00  1.20529376781E+03  1.20529376781E+03  0.00000000000E+00  0.00000000000E+00  1.
        1   -1    0    0  501    0  0.00000000000E+00  0.00000000000E+00 -8.83885061281E+01  8.83885061281E+01  0.00000000000E+00  0.00000000000E+00  1.
       25    1    1    2    0    0  6.30008774913E+01 -3.49764760516E+01  3.91195231199E+02  4.16954641843E+02  1.25000000000E+02  0.00000000000E+00  1.
       -6    2    1    2    0  502  1.16602783192E+02 -1.16880664265E+02  4.82425099979E+02  5.38340836541E+02  1.72683469013E+02  0.00000000000E+00  1.
        5    1    1    2  502    0 -1.79603660683E+02  1.51857140316E+02  2.43284930506E+02  3.38386795556E+02  5.39479660939E-06  0.00000000000E+00  1.
       -5    1    4    4    0  502  5.29652715858E+01 -1.24055439545E+02  3.01947393617E+02  3.30741383995E+02  4.75000000000E+00  0.00000000000E+00  1.
      -24    2    4    4    0    0  6.36375116058E+01  7.17477528024E+00  1.80477706363E+02  2.07599452546E+02  8.01506077315E+01  0.00000000000E+00  1.
       15    1    7    7    0    0  6.78457861763E+01 -2.17340435320E+01  1.45590641163E+02  1.62096302125E+02  1.77680000000E+00  0.00000000000E+00  1.
      -16    1    7    7    0    0 -4.20827457046E+00  2.89088188122E+01  3.48870652000E+01  4.55031504211E+01  1.58148993986E-06  0.00000000000E+00  1.
</event>
<event>
 9 113   1.0000000E+00   7.4550000E+01   7.8125000E-03   1.3429423E-01
       -2   -1    0    0    0  501  0.00000000000E+00  0.00000000000E+00  3.33101304595E+01  3.33101304595E+01  0.00000000000E+00  0.00000000000E+00  1.
        1   -1    0    0  501    0  0.00000000000E+00  0.00000000000E+00 -3.48235707625E+03  3.48235707625E+03  0.00000000000E+00  0.00000000000E+00  1.
       25    1    1    2    0    0  4.78468554716E+01 -1.71550580963E+02 -1.17703879011E+03  1.19698130178E+03  1.25000000000E+02  0.00000000000E+00  1.
       -6    2    1    2    0  502 -3.61533478484E+01 -7.96433013889E+01 -6.79851981978E+02  7.06793729213E+02  1.72361649557E+02  0.00000000000E+00  1.
        5    1    1    2  502    0 -1.16935076232E+01  2.51193882352E+02 -1.59215617371E+03  1.61189217571E+03  3.73762472959E-05  0.00000000000E+00  1.
       -5    1    4    4    0  502 -1.00438368337E+01 -5.90647485493E+01 -5.28265485028E+02  5.31673309798E+02  4.75000000000E+00  0.00000000000E+00  1.
      -24    2    4    4    0    0 -2.61095110146E+01 -2.05785528396E+01 -1.51586496951E+02  1.75120419415E+02  8.11388429547E+01  0.00000000000E+00  1.
        1    1    7    7  704    0 -1.60483231180E+00  1.63971506812E+01 -1.18858843474E+02  1.19995277862E+02  0.00000000000E+00  0.00000000000E+00  1.
       -2    1    7    7    0  704 -2.45046787028E+01 -3.69757035209E+01 -3.27276534768E+01  5.51251415535E+01  1.71926082395E-06  0.00000000000E+00  1.
</event>
<event>
 9 113   1.0000000E+00   7.4550000E+01   7.8125000E-03   1.3429423E-01
       -2   -1    0    0    0  501  0.00000000000E+00  0.00000000000E+00  2.02184943725E+02  2.02184943725E+02  0.00000000000E+00  0.00000000000E+00  1.
        1   -1    0    0  501    0  0.00000000000E+00  0.00000000000E+00 -5.91885720024E+02  5.91885720024E+02  0.00000000000E+00  0.00000000000E+00  1.
       25    1    1    2    0    0 -8.61317315476E+01 -1.54086517631E+02 -5.90231665166E+01  2.24209866600E+02  1.25000000000E+02  0.00000000000E+00  1.
       -6    2    1    2    0  502  5.67614559718E+01  8.79412498617E+01  2.88326577939E+01  2.03138228948E+02  1.71692433128E+02  0.00000000000E+00  1.
        5    1    1    2  502    0  2.93702755758E+01  6.61452677690E+01 -3.59510267576E+02  3.66722568201E+02  5.39479660939E-06  0.00000000000E+00  1.
       -5    1    4    4    0  502  2.49926990575E+01  1.42849817139E+01  7.50389685064E+01  8.05115209349E+01  4.75000000000E+00  0.00000000000E+00  1.
      -24    2    4    4    0    0  3.17687569143E+01  7.36562681478E+01 -4.62063107125E+01  1.22626708014E+02  8.04225504149E+01  0.00000000000E+00  1.
       11    1    7    7    0    0  3.89547272481E+01  8.86714077226E+01 -4.11433584755E+01  1.05227682999E+02  5.10997262826E-04  0.00000000000E+00  1.
      -12    1    7    7    0    0 -7.18597033384E+00 -1.50151395749E+01 -5.06295223699E+00  1.73990250142E+01  1.65073662092E-06  0.00000000000E+00  1.
</event>
<event>
 9 113   1.0000000E+00   7.4550000E+01   7.8125000E-03   1.3429423E-01
       -2   -1    0    0    0  501  0.00000000000E+00  0.00000000000E+00  2.46094505672E+02  2.46094505672E+02  0.00000000000E+00  0.00000000000E+00  1.
        1   -1    0    0  501    0  0.00000000000E+00  0.00000000000E+00 -2.18353757533E+02  2.18353757533E+02  0.00000000000E+00  0.00000000000E+00  1.
       25    1    1    2    0    0 -7.59266487013E+01  3.95018494413E+01  7.99770803198E+01  1.71308451247E+02  1.25000000000E+02  0.00000000000E+00  1.
       -6    2    1    2    0  502 -1.69118444574E+01 -7.35015978192E+01 -3.16645846121E+01  1.92153845112E+02  1.73873399080E+02  0.00000000000E+00  1.
        5    1    1    2  502    0  9.28384931587E+01  3.39997483779E+01 -2.05717475693E+01  1.00985966846E+02  1.01152436426E-06  0.00000000000E+00  1.
       -5    1    4    4    0  502 -1.70894560415E+00 -6.43340131253E+01  4.83684168370E+01  8.06464629553E+01  4.75000000000E+00  0.00000000000E+00  1.
      -24    2    4    4    0    0 -1.52028988533E+01 -9.16758469387E+00 -8.00330014491E+01  1.11507382156E+02  7.55873151512E+01  0.00000000000E+00  1.
       13    1    7    7    0    0  3.07600993936E+01 -5.93522047117E+00 -3.67391201357E+01  4.82823432439E+01  1.05659999993E-01  0.00000000000E+00  1.
      -14    1    7    7    0    0 -4.59629982468E+01 -3.23236422270E+00 -4.32938813134E+01  6.32250389125E+01  1.58148993986E-06  0.00000000000E+00  1.
</event>
<event>
 9 113   1.0000000E+00   7.4550000E+01   7.8125000E-03   1.3429423E-01
       -2   -1    0    0    0  501  0.00000000000E+00  0.00000000000E+00  1.48132841846E+02  1.48132841846E+02  0.00000000000E+00  0.00000000000E+00  1.
        1   -1    0    0  501    0  0.00000000000E+00  0.00000000000E+00 -1.02942142716E+03  1.02942142716E+03  0.00000000000E+00  0.00000000000E+00  1.
       25    1    1    2    0    0  9.81090501545E+01 -5.49954167103E+01 -5.05122338700E+01  1.75574392643E+02  1.25000000000E+02  0.00000000000E+00  1.
       -6    2    1    2    0  502 -1.64788232171E+02 -9.37022437697E+01 -1.38215627764E+02  2.90504322651E+02  1.71329885809E+02  0.00000000000E+00  1.
        5    1    1    2  502    0  6.66791820168E+01  1.48697660480E+02 -6.92560723680E+02  7.11475553713E+02  1.07895932188E-05  0.00000000000E+00  1.
       -5    1    4    4    0  502 -1.00420154528E+02 -1.00605771674E+02 -3.86200420384E+01  1.47376385071E+02  4.75000000000E+00  0.00000000000E+00  1.
      -24    2    4    4    0    0 -6.43680776436E+01  6.90352790475E+00 -9.95955857258E+01  1.43127937580E+02  7.98462128271E+01  0.00000000000E+00  1.
        3    1    7    7  704    0  4.96058941796E+00  1.34886736505E+01 -6.26827592277E+01  6.43092533670E+01  1.34869915235E-06  0.00000000000E+00  1.
       -4    1    7    7    0  704 -6.93286670615E+01 -6.58514574571E+00 -3.69128264981E+01  7.88186842132E+01  1.43051147461E-06  0.00000000000E+00  1.
</event>
<event>
 9 113   1.0000000E+00   7.4550000E+01   7.8125000E-03   1.3429423E-01
       -2   -1    0    0    0  501  0.00000000000E+00  0.00000000000E+00  2.15468626297E+01  2.15468626297E+01  0.00000000000E+00  0.00000000000E+00  1.
        1   -1    0    0  501    0  0.00000000000E+00  0.00000000000E+00 -1.76526406954E+03  1.76526406954E+03  0.00000000000E+00  0.00000000000E+00  1.
       25    1    1    2    0    0 -4.26128743234E+01 -7.73987265710E+01 -4.34007499480E+02  4.60210744700E+02  1.25000000000E+02  0.00000000000E+00  1.
       -6    2    1    2    0  502  5.29586855869E+01  6.86955924263E+01 -1.13618209600E+03  1.15254671211E+03  1.73004224037E+02  0.00000000000E+00  1.
        5    1    1    2  502    0 -1.03458112636E+01  8.70313414474E+00 -1.73527611433E+02  1.74053475358E+02  1.90734863281E-06  0.00000000000E+00  1.
       -5    1    4    4    0  502  6.74662709642E+01  3.08536578481E+01 -8.06040940855E+02  8.09461677138E+02  4.75000000001E+00  0.00000000000E+00  1.
      -24    2    4    4    0    0 -1.45075853772E+01  3.78419345782E+01 -3.30141155141E+02  3.43085034971E+02  8.40932628549E+01  0.00000000000E+00  1.
        3    1    7    7  704    0 -4.12793691353E+01  2.04956763662E+01 -2.79212034855E+02  2.82990140242E+02  3.81469726562E-06  0.00000000000E+00  1.
       -4    1    7    7    0  704  2.67717837580E+01  1.73462582120E+01 -5.09291202855E+01  6.00948947299E+01  1.50789149292E-06  0.00000000000E+00  1.
</event>
</LesHouchesEvents>
