<LesHouchesEvents version="1.0">
<!--
Output from the JHUGenerator v7.4.1 described in arXiv:1001.3396 [hep-ph], arXiv:1208.4018 [hep-ph], arXiv:1309.4819 [hep-ph], arXiv:1606.03107 [hep-ph]
   
   Command line: ./JHUGen Seed=765543533 PDFSet=3 Process=112 VegasNc0=100000 VegasNc2=100 DataFile=compare_to_reference/tqH_112 TopDK=1 DecayMode1=11 ghg2=0.383432074687728,0.918260989345657 ghg3=6294.49296087723,2253.12941717723 ghg4=0.335495485382528,0.17285803562226 ghz1=0.154934976270359,0.453918144016304 ghz2=0.469297059144414,0.745302300947002 ghz3=3947.40921062637,3597.4885961919 ghz4=0.177791270766536,0.920170534486048 ghzgs2=0.0240331049939919,0.232175381101053 ghzgs3=0.331962910170583,0.0450183240308457 ghzgs4=0.808286540247172,0.133184346613754 ghgsgs2=0.530394804029869,0.211218112389125 ghgsgs3=0.914978695198138,0.055650585081425 ghgsgs4=0.694524307167701,0.511424456076726 ghz1_prime=0.143354267833606,0.0910761280837012 ghz1_prime2=7416.7007267243,4861.35525489789 ghz1_prime3=4431.44656075298,4436.48625894176 ghz1_prime4=2441.69123517064,6946.16318931911 ghz1_prime5=78314042.889773,69465359.939181 ghz1_prime6=51233058.8130761,29537873.5850789 ghz1_prime7=47832192.9001564,59559649.9633293 g
   
   Input Parameter:
    Collider: P-P, sqrt(s)=13000.00
    Resonance: spin=0, mass= 125.00 width=   0.00407
    DecayMode1:11
    W boson: mass=80.399, width=2.0850
    Top quark mass=173.2000, width=2.0000
    Top quark decay= 1
    Random seed:   765543533
    To reproduce results using this seed, JHUGen should be compiled with the same compiler:
      GNU Fortran (GCC) 6.3.0
    
    WidthScheme:   2
    PDFSet:   3
    Unweighted: T
    
    
    LHE output: compare_to_reference/tqH_112.lhe
    Histogram output: compare_to_reference/tqH_112.dat
    Log file: compare_to_reference/tqH_112.log
    
-->
<init>
2212 2212   6500.0000000000000000    6500.0000000000000000 0 0  263000  263000  3  1
 8.5643834E+00  2.3229934E-01  1.0000000E+00 112
</init>
<event>
 9 112   1.0000000E+00   3.1250000E+01   7.8125000E-03   1.5660620E-01
       -1   -1    0    0    0  501  0.00000000000E+00  0.00000000000E+00  5.65395711376E+01  5.65395711376E+01  0.00000000000E+00 0.00000000000E+00  1.
        2   -1    0    0  501    0  0.00000000000E+00  0.00000000000E+00 -8.79258291569E+02  8.79258291569E+02  0.00000000000E+00 0.00000000000E+00  1.
       25    1    1    2    0    0  3.52648363699E+01 -8.62580901800E+01 -3.24890740271E+02  3.60365175787E+02  1.25000000000E+02 0.00000000000E+00  1.
        6    2    1    2  502    0 -5.44677013794E+01 -1.90783368414E+01 -3.19555863865E+02  3.67477258209E+02  1.72025788008E+02 0.00000000000E+00  1.
       -5    1    1    2    0  502  1.92028650095E+01  1.05336427021E+02 -1.78272116295E+02  2.07955428711E+02  3.30362473978E-06 0.00000000000E+00  1.
        5    1    4    4  502    0 -1.95792692372E+01 -6.88635507941E+01 -7.83183340201E+01  1.06216102148E+02  4.75000000000E+00 0.00000000000E+00  1.
       24    2    4    4    0    0 -3.48884321421E+01  4.97852139527E+01 -2.41237529845E+02  2.61261156061E+02  7.97876909979E+01 0.00000000000E+00  1.
      -11    1    7    7    0    0  7.30903787464E+00  1.09057641928E+01  1.68837296070E-01  1.31295938085E+01  5.10975760877E-04 0.00000000000E+00  1.
       12    1    7    7    0    0 -4.21974700168E+01  3.88794497599E+01 -2.41406367141E+02  2.48131562252E+02  5.39479660939E-06 0.00000000000E+00  1.
</event>
<event>
 9 112   1.0000000E+00   3.1250000E+01   7.8125000E-03   1.5660620E-01
        2   -1    0    0  501    0  0.00000000000E+00  0.00000000000E+00  1.36140763433E+03  1.36140763433E+03  0.00000000000E+00 0.00000000000E+00  1.
       -1   -1    0    0    0  501  0.00000000000E+00  0.00000000000E+00 -7.01170112987E+01  7.01170112987E+01  0.00000000000E+00 0.00000000000E+00  1.
       25    1    1    2    0    0  1.07712585166E+02 -3.72080779229E+00  3.53042785081E+02  3.89717915308E+02  1.25000000000E+02 0.00000000000E+00  1.
        6    2    1    2  502    0 -7.07941860329E+01 -1.81398040462E+02  6.09291688126E+02  6.62538876844E+02  1.72639324172E+02 0.00000000000E+00  1.
       -5    1    1    2    0  502 -3.69183991334E+01  1.85118848255E+02  3.28956149819E+02  3.79267853473E+02  9.34406182397E-06 0.00000000000E+00  1.
        5    1    4    4  502    0  2.86672427478E+00 -8.71884757539E+00  2.43598279748E+02  2.43817392339E+02  4.75000000000E+00 0.00000000000E+00  1.
       24    2    4    4    0    0 -7.36609103077E+01 -1.72679192887E+02  3.65693408378E+02  4.18721484504E+02  7.96993054604E+01 0.00000000000E+00  1.
      -13    1    7    7    0    0 -3.93984744159E+01 -2.75611016850E+01  1.41717757503E+02  1.49652223732E+02  1.05660000073E-01 0.00000000000E+00  1.
       14    1    7    7    0    0 -3.42624358917E+01 -1.45118091202E+02  2.23975650875E+02  2.69069260772E+02  0.00000000000E+00 0.00000000000E+00  1.
</event>
<event>
 9 112   1.0000000E+00   3.1250000E+01   7.8125000E-03   1.5660620E-01
       -1   -1    0    0    0  501  0.00000000000E+00  0.00000000000E+00  1.58073602209E+02  1.58073602209E+02  0.00000000000E+00 0.00000000000E+00  1.
        2   -1    0    0  501    0  0.00000000000E+00  0.00000000000E+00 -2.18919038070E+03  2.18919038070E+03  0.00000000000E+00 0.00000000000E+00  1.
       25    1    1    2    0    0 -1.07648338609E+02 -1.11468790335E+02 -3.52602177812E+02  4.04928082284E+02  1.25000000000E+02 0.00000000000E+00  1.
        6    2    1    2  502    0 -4.06029249195E+01 -2.70940216554E+02 -1.42232545997E+03  1.45875761172E+03  1.72935991609E+02 0.00000000000E+00  1.
       -5    1    1    2    0  502  1.48251263529E+02  3.82409006889E+02 -2.56189140703E+02  4.83578288907E+02  1.82946453984E-05 0.00000000000E+00  1.
        5    1    4    4  502    0 -2.05421121437E+01 -6.48678212392E+01 -6.92543772645E+02  6.95894569696E+02  4.75000000000E+00 0.00000000000E+00  1.
       24    2    4    4    0    0 -2.00608127759E+01 -2.06072395315E+02 -7.29781687329E+02  7.62863042020E+02  8.06873063134E+01 0.00000000000E+00  1.
      -11    1    7    7    0    0  2.61173125516E+01 -1.16110234789E+02 -3.42092966793E+02  3.62203393920E+02  5.11069786266E-04 0.00000000000E+00  1.
       12    1    7    7    0    0 -4.61781253274E+01 -8.99621605259E+01 -3.87688720536E+02  4.00659648100E+02  7.62939453125E-06 0.00000000000E+00  1.
</event>
<event>
 9 112   1.0000000E+00   3.1250000E+01   7.8125000E-03   1.5660620E-01
       -1   -1    0    0    0  501  0.00000000000E+00  0.00000000000E+00  4.14862648110E+01  4.14862648110E+01  0.00000000000E+00 0.00000000000E+00  1.
        2   -1    0    0  501    0  0.00000000000E+00  0.00000000000E+00 -3.25230618650E+03  3.25230618650E+03  0.00000000000E+00 0.00000000000E+00  1.
       25    1    1    2    0    0  4.53493932610E+00  5.61530545715E+01 -4.05012966651E+02  4.27591200059E+02  1.25000000000E+02 0.00000000000E+00  1.
        6    2    1    2  502    0  2.06676826030E+02  1.23903969086E+01 -2.27552129931E+03  2.29129996299E+03  1.70849361913E+02 0.00000000000E+00  1.
       -5    1    1    2    0  502 -2.11211765356E+02 -6.85434514802E+01 -5.30285655729E+02  5.74901288255E+02  2.28881835938E-05 0.00000000000E+00  1.
        5    1    4    4  502    0  1.75341526574E+02 -9.81050548787E+00 -1.44987408798E+03  1.46047880178E+03  4.75000000010E+00 0.00000000000E+00  1.
       24    2    4    4    0    0  3.13352994560E+01  2.22009023965E+01 -8.25647211324E+02  8.30821161209E+02  8.42359975736E+01 0.00000000000E+00  1.
       -3    1    7    7    0  703  2.49175781194E+01  1.98695921712E+00 -6.15844075371E+01  6.64640726856E+01  7.56955521888E-06 0.00000000000E+00  1.
        4    1    7    7  703    0  6.41772133661E+00  2.02139431794E+01 -7.64062803787E+02  7.64357088524E+02  0.00000000000E+00 0.00000000000E+00  1.
</event>
<event>
 9 112   1.0000000E+00   3.1250000E+01   7.8125000E-03   1.5660620E-01
       -1   -1    0    0    0  501  0.00000000000E+00  0.00000000000E+00  1.29071682895E+02  1.29071682895E+02  0.00000000000E+00 0.00000000000E+00  1.
        2   -1    0    0  501    0  0.00000000000E+00  0.00000000000E+00 -5.20403302206E+02  5.20403302206E+02  0.00000000000E+00 0.00000000000E+00  1.
       25    1    1    2    0    0 -3.24889160064E+01 -6.62822277926E+01 -7.32633827429E+01  1.62608076784E+02  1.25000000000E+02 0.00000000000E+00  1.
        6    2    1    2  502    0 -8.77724991076E+01 -2.14613325757E+01 -2.52610475955E+02  3.24243236068E+02  1.82090700416E+02 0.00000000000E+00  1.
       -5    1    1    2    0  502  1.20261415114E+02  8.77435603683E+01 -6.54577606135E+01  1.62623672249E+02  2.52318507296E-06 0.00000000000E+00  1.
        5    1    4    4  502    0 -2.08919629921E+01  5.20005140818E+01 -1.98757748102E+01  5.96501174077E+01  4.75000000000E+00 0.00000000000E+00  1.
       24    2    4    4    0    0 -6.68805361155E+01 -7.34618466575E+01 -2.32734701145E+02  2.64593118660E+02  7.72944260590E+01 0.00000000000E+00  1.
      -15    1    7    7    0    0 -1.46461328873E+01 -3.67706878758E+01 -2.40139725753E+01  4.63294786556E+01  1.77679999999E+00 0.00000000000E+00  1.
       16    1    7    7    0    0 -5.22344032282E+01 -3.66911587818E+01 -2.08720728570E+02  2.18263640005E+02  3.81469726562E-06 0.00000000000E+00  1.
</event>
<event>
 9 112   1.0000000E+00   3.1250000E+01   7.8125000E-03   1.5660620E-01
        4   -1    0    0  501    0  0.00000000000E+00  0.00000000000E+00  1.14071713639E+03  1.14071713639E+03  0.00000000000E+00 0.00000000000E+00  1.
       -3   -1    0    0    0  501  0.00000000000E+00  0.00000000000E+00 -3.21842297292E+02  3.21842297292E+02  0.00000000000E+00 0.00000000000E+00  1.
       25    1    1    2    0    0 -1.54041892916E+02 -8.76733013623E+01  2.75877371140E+02  3.50925685084E+02  1.25000000000E+02 0.00000000000E+00  1.
        6    2    1    2  502    0  4.85252577574E+02 -1.77996616699E+02  3.05010839015E+02  6.24890840533E+02  1.74080702741E+02 0.00000000000E+00  1.
       -5    1    1    2    0  502 -3.31210684658E+02  2.65669918061E+02  2.37986628938E+02  4.86742908061E+02  1.20631319434E-05 0.00000000000E+00  1.
        5    1    4    4  502    0  3.93518890992E+02 -1.20803138365E+02  2.68044337955E+02  4.91244181051E+02  4.74999999999E+00 0.00000000000E+00  1.
       24    2    4    4    0    0  9.17336865818E+01 -5.71934783338E+01  3.69665010597E+01  1.33646659482E+02  6.93451092163E+01 0.00000000000E+00  1.
       -1    1    7    7    0  703  1.03085291869E+02 -4.79051397938E+01  3.43358512117E+01  1.18745233575E+02  1.26159253648E-06 0.00000000000E+00  1.
        2    1    7    7  703    0 -1.13516052871E+01 -9.28833853999E+00  2.63064984799E+00  1.49014259066E+01  1.59045029451E-06 0.00000000000E+00  1.
</event>
<event>
 9 112   1.0000000E+00   3.1250000E+01   7.8125000E-03   1.5660620E-01
       -1   -1    0    0    0  501  0.00000000000E+00  0.00000000000E+00  4.64445917817E+02  4.64445917817E+02  0.00000000000E+00 0.00000000000E+00  1.
        2   -1    0    0  501    0  0.00000000000E+00  0.00000000000E+00 -9.46358974684E+02  9.46358974684E+02  0.00000000000E+00 0.00000000000E+00  1.
       25    1    1    2    0    0 -3.04682705701E+02 -2.52383412872E+02 -4.60519898555E+02  6.19864916906E+02  1.25000000000E+02 0.00000000000E+00  1.
        6    2    1    2  502    0 -6.19298152349E+01  3.54442637424E+02  4.32613448319E+01  4.04933459329E+02  1.80650705197E+02 0.00000000000E+00  1.
       -5    1    1    2    0  502  3.66612520936E+02 -1.02059224552E+02 -6.46545031441E+01  3.86006516266E+02  8.63588823141E-06 0.00000000000E+00  1.
        5    1    4    4  502    0  1.09610994925E+01  8.47338913381E+01 -5.14009737262E+01  9.98228462997E+01  4.75000000000E+00 0.00000000000E+00  1.
       24    2    4    4    0    0 -7.28909147274E+01  2.69708746086E+02  9.46623185581E+01  3.05110613029E+02  7.79463819750E+01 0.00000000000E+00  1.
       -3    1    7    7    0  703 -2.83780931340E+01  2.11023784135E+02  4.91343198487E+01  2.18518958051E+02  3.43852164790E-06 0.00000000000E+00  1.
        4    1    7    7  703    0 -4.45128215934E+01  5.86849619514E+01  4.55279987094E+01  8.65916549785E+01  3.37174788087E-06 0.00000000000E+00  1.
</event>
<event>
 9 112   1.0000000E+00   3.1250000E+01   7.8125000E-03   1.5660620E-01
       -1   -1    0    0    0  501  0.00000000000E+00  0.00000000000E+00  3.36732355463E+02  3.36732355463E+02  0.00000000000E+00 0.00000000000E+00  1.
        2   -1    0    0  501    0  0.00000000000E+00  0.00000000000E+00 -1.17827939222E+03  1.17827939222E+03  0.00000000000E+00 0.00000000000E+00  1.
       25    1    1    2    0    0  1.45230770427E+02  8.53833188132E+01 -9.40378231083E+02  9.63492867283E+02  1.25000000000E+02 0.00000000000E+00  1.
        6    2    1    2  502    0  7.40078048596E+01 -1.25867825387E+02 -1.08227347925E+02  2.47252897940E+02  1.67633445509E+02 0.00000000000E+00  1.
       -5    1    1    2    0  502 -2.19238575287E+02  4.04845065736E+01  2.07058542248E+02  3.04265982463E+02  7.13664510112E-06 0.00000000000E+00  1.
        5    1    4    4  502    0  2.05995373805E+01 -3.47705587460E+01 -1.06796234266E+02  1.14286179607E+02  4.75000000000E+00 0.00000000000E+00  1.
       24    2    4    4    0    0  5.34082674791E+01 -9.10972666408E+01 -1.43111365911E+00  1.32966718333E+02  8.07895109118E+01 0.00000000000E+00  1.
       -1    1    7    7    0  703  3.14550744147E+01 -9.20548492401E+01 -2.53065589550E+01  1.00518351067E+02  2.07848498513E-06 0.00000000000E+00  1.
        4    1    7    7  703    0  2.19531930644E+01  9.57582599269E-01  2.38754452959E+01  3.24483672661E+01  5.84003863998E-07 0.00000000000E+00  1.
</event>
<event>
 9 112   1.0000000E+00   3.1250000E+01   7.8125000E-03   1.5660620E-01
       -1   -1    0    0    0  501  0.00000000000E+00  0.00000000000E+00  3.18803078209E+02  3.18803078209E+02  0.00000000000E+00 0.00000000000E+00  1.
        2   -1    0    0  501    0  0.00000000000E+00  0.00000000000E+00 -2.00880966399E+02  2.00880966399E+02  0.00000000000E+00 0.00000000000E+00  1.
       25    1    1    2    0    0 -7.29320815625E+01  9.71870152362E+01  4.27013044347E+01  1.79479263014E+02  1.25000000000E+02 0.00000000000E+00  1.
        6    2    1    2  502    0  1.55940546820E+02 -7.64911899052E+01  5.60969741574E+01  2.52543823993E+02  1.74536976746E+02 0.00000000000E+00  1.
       -5    1    1    2    0  502 -8.30084652579E+01 -2.06958253310E+01  1.91238332183E+01  8.76609576012E+01  1.45024359949E-06 0.00000000000E+00  1.
        5    1    4    4  502    0  5.41230629761E+01 -9.47947308310E+01  5.33356919318E+01  1.21583738522E+02  4.75000000000E+00 0.00000000000E+00  1.
       24    2    4    4    0    0  1.01817483844E+02  1.83035409257E+01  2.76128222554E+00  1.30960085470E+02  8.02564619210E+01 0.00000000000E+00  1.
       -1    1    7    7    0  703  1.03316627464E+02  1.55272383278E+01  2.58739160050E+01  1.07633081206E+02  1.21570098724E-06 0.00000000000E+00  1.
        2    1    7    7  703    0 -1.49914361935E+00  2.77630259791E+00 -2.31126337795E+01  2.33270042639E+01  1.01152436426E-06 0.00000000000E+00  1.
</event>
<event>
 9 112   1.0000000E+00   3.1250000E+01   7.8125000E-03   1.5660620E-01
       -1   -1    0    0    0  501  0.00000000000E+00  0.00000000000E+00  2.26135743008E+02  2.26135743008E+02  0.00000000000E+00 0.00000000000E+00  1.
        2   -1    0    0  501    0  0.00000000000E+00  0.00000000000E+00 -2.35933434419E+03  2.35933434419E+03  0.00000000000E+00 0.00000000000E+00  1.
       25    1    1    2    0    0 -1.07743644758E+02 -2.67293354520E+02 -7.29502452115E+02  7.94262713463E+02  1.25000000000E+02 0.00000000000E+00  1.
        6    2    1    2  502    0 -4.22246210705E+02  2.75800601882E+02 -4.39372327718E+02  6.90806513789E+02  1.72649247537E+02 0.00000000000E+00  1.
       -5    1    1    2    0  502  5.29989855463E+02 -8.50724736222E+00 -9.64323821347E+02  1.10040085995E+03  1.52587890625E-05 0.00000000000E+00  1.
        5    1    4    4  502    0 -2.19440574562E+02  8.81260165884E+01 -2.61968032824E+02  3.52945000369E+02  4.75000000000E+00 0.00000000000E+00  1.
       24    2    4    4    0    0 -2.02805636143E+02  1.87674585294E+02 -1.77404294894E+02  3.37861513419E+02  7.95376790377E+01 0.00000000000E+00  1.
      -13    1    7    7    0    0 -1.61017108867E+02  1.72749008271E+02 -1.74044967964E+02  2.93360514119E+02  1.05660000004E-01 0.00000000000E+00  1.
       14    1    7    7    0    0 -4.17885272754E+01  1.49255770228E+01 -3.35932693032E+00  4.45009993004E+01  2.20093732329E-06 0.00000000000E+00  1.
</event>
<event>
 9 112   1.0000000E+00   3.1250000E+01   7.8125000E-03   1.5660620E-01
       -1   -1    0    0    0  501  0.00000000000E+00  0.00000000000E+00  3.79685008162E+02  3.79685008162E+02  0.00000000000E+00 0.00000000000E+00  1.
        2   -1    0    0  501    0  0.00000000000E+00  0.00000000000E+00 -2.86951793509E+02  2.86951793509E+02  0.00000000000E+00 0.00000000000E+00  1.
       25    1    1    2    0    0 -1.39850460186E+02  7.73560607557E+01  2.36276991639E+01  2.04267911130E+02  1.25000000000E+02 0.00000000000E+00  1.
        6    2    1    2  502    0 -9.76541673871E+01 -4.60219817607E+01 -2.44309353847E+01  2.05193191325E+02  1.72780253354E+02 0.00000000000E+00  1.
       -5    1    1    2    0  502  2.37504627573E+02 -3.13340789950E+01  9.35364508739E+01  2.57175699215E+02  5.87884331033E-06 0.00000000000E+00  1.
        5    1    4    4  502    0  3.42544132421E+01 -2.29428975098E+01 -2.80804708713E+01  5.01080504217E+01  4.75000000000E+00 0.00000000000E+00  1.
       24    2    4    4    0    0 -1.31908580629E+02 -2.30790842509E+01  3.64953548659E+00  1.55085140903E+02  7.81381087960E+01 0.00000000000E+00  1.
       -3    1    7    7    0  703 -3.67426508067E+01  1.88496243809E+01  2.58900194542E+01  4.87403717153E+01  1.96604996949E-06 0.00000000000E+00  1.
        4    1    7    7  703    0 -9.51659298226E+01 -4.19287086318E+01 -2.22404839676E+01  1.06344769188E+02  1.68587394044E-06 0.00000000000E+00  1.
</event>
<event>
 9 112   1.0000000E+00   3.1250000E+01   7.8125000E-03   1.5660620E-01
       -1   -1    0    0    0  501  0.00000000000E+00  0.00000000000E+00  5.25284550797E+02  5.25284550797E+02  0.00000000000E+00 0.00000000000E+00  1.
        2   -1    0    0  501    0  0.00000000000E+00  0.00000000000E+00 -2.93714654897E+02  2.93714654897E+02  0.00000000000E+00 0.00000000000E+00  1.
       25    1    1    2    0    0  6.42593656431E+01  6.49002842510E+01  6.23494145637E+01  1.66894465053E+02  1.25000000000E+02 0.00000000000E+00  1.
        6    2    1    2  502    0  2.58522872185E+01  2.21187014276E+02  2.06933961179E+02  3.49799664730E+02  1.73049429693E+02 0.00000000000E+00  1.
       -5    1    1    2    0  502 -9.01116528616E+01 -2.86087298527E+02 -3.77134798425E+01  3.02305075912E+02  8.39558451732E-06 0.00000000000E+00  1.
        5    1    4    4  502    0  4.73977672455E+01  9.32850423009E+01  1.58475400709E+02  1.89962266218E+02  4.75000000000E+00 0.00000000000E+00  1.
       24    2    4    4    0    0 -2.15454800270E+01  1.27901971975E+02  4.84585604701E+01  1.59837398512E+02  7.98538648742E+01 0.00000000000E+00  1.
       -3    1    7    7    0  703 -3.56116037938E+01  2.40341573992E+01  3.23729177321E+01  5.37943570382E+01  1.90734863281E-06 0.00000000000E+00  1.
        4    1    7    7  703    0  1.40661237668E+01  1.03867814576E+02  1.60856427380E+01  1.06043041473E+02  1.99475294717E-06 0.00000000000E+00  1.
</event>
<event>
 9 112   1.0000000E+00   3.1250000E+01   7.8125000E-03   1.5660620E-01
       -1   -1    0    0    0  501  0.00000000000E+00  0.00000000000E+00  1.28383176395E+02  1.28383176395E+02  0.00000000000E+00 0.00000000000E+00  1.
        2   -1    0    0  501    0  0.00000000000E+00  0.00000000000E+00 -7.71879409853E+02  7.71879409853E+02  0.00000000000E+00 0.00000000000E+00  1.
       25    1    1    2    0    0  1.19818246409E+02 -4.37472690934E+01 -2.72568139593E+02  3.25865963928E+02  1.25000000000E+02 0.00000000000E+00  1.
        6    2    1    2  502    0  4.61791678902E+01  6.59706003968E+01 -3.59053274061E+02  4.06497755874E+02  1.72732557016E+02 0.00000000000E+00  1.
       -5    1    1    2    0  502 -1.65997414299E+02 -2.22233313034E+01 -1.18748198038E+01  1.67898866445E+02  3.66265571016E-06 0.00000000000E+00  1.
        5    1    4    4  502    0 -2.67519926853E+01 -2.01786486577E+01 -1.63802313383E+02  1.67262091772E+02  4.75000000000E+00 0.00000000000E+00  1.
       24    2    4    4    0    0  7.29311605755E+01  8.61492490545E+01 -1.95250960678E+02  2.39235664102E+02  7.98130192218E+01 0.00000000000E+00  1.
       -3    1    7    7    0  703  4.85381643292E+01  8.10329358004E+01 -8.79015557716E+01  1.29030901678E+02  1.90734863281E-06 0.00000000000E+00  1.
        4    1    7    7  703    0  2.43929962463E+01  5.11631325414E+00 -1.07349404906E+02  1.10204762424E+02  1.34869915235E-06 0.00000000000E+00  1.
</event>
<event>
 9 112   1.0000000E+00   3.1250000E+01   7.8125000E-03   1.5660620E-01
       -1   -1    0    0    0  501  0.00000000000E+00  0.00000000000E+00  1.39425363967E+02  1.39425363967E+02  0.00000000000E+00 0.00000000000E+00  1.
        2   -1    0    0  501    0  0.00000000000E+00  0.00000000000E+00 -1.03195731260E+03  1.03195731260E+03  0.00000000000E+00 0.00000000000E+00  1.
       25    1    1    2    0    0  1.50998883479E+02  1.03293584655E+02 -7.33874593767E+02  7.66594512646E+02  1.25000000000E+02 0.00000000000E+00  1.
        6    2    1    2  502    0 -6.64936263451E+01 -7.61379602955E+01 -2.19676887396E+02  2.97075816586E+02  1.72562205020E+02 0.00000000000E+00  1.
       -5    1    1    2    0  502 -8.45052571337E+01 -2.71556243592E+01  6.10195325318E+01  1.07712347333E+02  3.16297987972E-06 0.00000000000E+00  1.
        5    1    4    4  502    0 -1.42812078051E+01  4.38743517254E+01 -4.94174631337E+01  6.77758054048E+01  4.75000000000E+00 0.00000000000E+00  1.
       24    2    4    4    0    0 -5.22124185400E+01 -1.20012312021E+02 -1.70259424263E+02  2.29300011181E+02  8.03811662699E+01 0.00000000000E+00  1.
      -11    1    7    7    0    0 -3.99505669670E+01 -2.09475115241E+01 -9.19814683123E+01  1.02447237899E+02  5.11000377541E-04 0.00000000000E+00  1.
       12    1    7    7    0    0 -1.22618515730E+01 -9.90648004969E+01 -7.82779559503E+01  1.26852773282E+02  2.33601545599E-06 0.00000000000E+00  1.
</event>
<event>
 9 112   1.0000000E+00   3.1250000E+01   7.8125000E-03   1.5660620E-01
       -1   -1    0    0    0  501  0.00000000000E+00  0.00000000000E+00  4.21186975766E+02  4.21186975766E+02  0.00000000000E+00 0.00000000000E+00  1.
        2   -1    0    0  501    0  0.00000000000E+00  0.00000000000E+00 -3.12620818867E+02  3.12620818867E+02  0.00000000000E+00 0.00000000000E+00  1.
       25    1    1    2    0    0  1.10297106385E+02 -1.76456580842E+02 -4.90852516419E+01  2.47662549709E+02  1.25000000000E+02 0.00000000000E+00  1.
        6    2    1    2  502    0  1.04260492632E+02  1.27472103019E+02  8.72359255160E+01  2.55076461631E+02  1.74168043008E+02 0.00000000000E+00  1.
       -5    1    1    2    0  502 -2.14557599017E+02  4.89844778231E+01  7.04154830247E+01  2.31068783295E+02  6.10649513000E-06 0.00000000000E+00  1.
        5    1    4    4  502    0  4.26411151761E+01  9.13699801259E+01  1.03396280856E+02  1.44499451094E+02  4.75000000000E+00 0.00000000000E+00  1.
       24    2    4    4    0    0  6.16193774563E+01  3.61021228931E+01 -1.61603553398E+01  1.10577010537E+02  8.28601666604E+01 0.00000000000E+00  1.
      -15    1    7    7    0    0  2.12963161639E+01  5.83368744610E+01 -1.73821660432E+01  6.45137250407E+01  1.77680000000E+00 0.00000000000E+00  1.
       16    1    7    7    0    0  4.03230612924E+01 -2.22347515679E+01  1.22181070337E+00  4.60632854958E+01  7.98568785606E-07 0.00000000000E+00  1.
</event>
<event>
 9 112   1.0000000E+00   3.1250000E+01   7.8125000E-03   1.5660620E-01
       -1   -1    0    0    0  501  0.00000000000E+00  0.00000000000E+00  2.89298989205E+02  2.89298989205E+02  0.00000000000E+00 0.00000000000E+00  1.
        2   -1    0    0  501    0  0.00000000000E+00  0.00000000000E+00 -6.16219234306E+02  6.16219234306E+02  0.00000000000E+00 0.00000000000E+00  1.
       25    1    1    2    0    0 -2.40021117834E+00  1.39236263959E+02 -2.68431407834E+01  1.89045106845E+02  1.25000000000E+02 0.00000000000E+00  1.
        6    2    1    2  502    0 -5.51721296641E+00  1.79525265464E+02 -3.09554000253E+02  3.97472474344E+02  1.72918848623E+02 0.00000000000E+00  1.
       -5    1    1    2    0  502  7.91742414476E+00 -3.18761529423E+02  9.47689593561E+00  3.19000642322E+02  3.94292721952E-06 0.00000000000E+00  1.
        5    1    4    4  502    0 -2.52074808451E+01  9.20860433657E+01 -2.40689448680E+02  2.58977276376E+02  4.75000000000E+00 0.00000000000E+00  1.
       24    2    4    4    0    0  1.96902678787E+01  8.74392220979E+01 -6.88645515737E+01  1.38495197968E+02  8.00329256398E+01 0.00000000000E+00  1.
      -11    1    7    7    0    0  4.92788030708E+01  5.72624478810E+01 -5.68809847081E+01  9.45665627537E+01  5.11000377541E-04 0.00000000000E+00  1.
       12    1    7    7    0    0 -2.95885351921E+01  3.01767742169E+01 -1.19835668656E+01  4.39286352142E+01  1.18011175831E-06 0.00000000000E+00  1.
</event>
<event>
 9 112   1.0000000E+00   3.1250000E+01   7.8125000E-03   1.5660620E-01
       -1   -1    0    0    0  501  0.00000000000E+00  0.00000000000E+00  9.33430456302E+02  9.33430456302E+02  0.00000000000E+00 0.00000000000E+00  1.
        2   -1    0    0  501    0  0.00000000000E+00  0.00000000000E+00 -1.05924286395E+02  1.05924286395E+02  0.00000000000E+00 0.00000000000E+00  1.
       25    1    1    2    0    0 -8.49534308128E+00 -4.57974428117E+01  1.61831916486E+01  1.34374373725E+02  1.25000000000E+02 0.00000000000E+00  1.
        6    2    1    2  502    0  1.34345795739E+01 -1.31566177679E+02  3.71717696242E+02  4.30918079913E+02  1.73280693845E+02 0.00000000000E+00  1.
       -5    1    1    2    0  502 -4.93923649257E+00  1.77363620490E+02  4.39605282017E+02  4.74062289059E+02  5.39479660939E-06 0.00000000000E+00  1.
        5    1    4    4  502    0  8.79003055607E+00 -1.30939564194E+02  2.04126404086E+02  2.42719149334E+02  4.75000000000E+00 0.00000000000E+00  1.
       24    2    4    4    0    0  4.64454901778E+00 -6.26613484588E-01  1.67591292156E+02  1.88198930579E+02  8.54987238761E+01 0.00000000000E+00  1.
       -3    1    7    7    0  703  1.18499187459E+01 -3.60182036120E+01  1.32585826177E+02  1.37901170658E+02  1.90734863281E-06 0.00000000000E+00  1.
        4    1    7    7  703    0 -7.20536972817E+00  3.53915901274E+01  3.50054659787E+01  5.02977599208E+01  1.90734863281E-06 0.00000000000E+00  1.
</event>
<event>
 9 112   1.0000000E+00   3.1250000E+01   7.8125000E-03   1.5660620E-01
       -1   -1    0    0    0  501  0.00000000000E+00  0.00000000000E+00  2.70369608398E+02  2.70369608398E+02  0.00000000000E+00 0.00000000000E+00  1.
        2   -1    0    0  501    0  0.00000000000E+00  0.00000000000E+00 -1.53937729681E+03  1.53937729681E+03  0.00000000000E+00 0.00000000000E+00  1.
       25    1    1    2    0    0  1.06624403321E+02 -2.33773310778E+02 -8.12143189292E+01  2.97051325220E+02  1.25000000000E+02 0.00000000000E+00  1.
        6    2    1    2  502    0 -3.01701937904E+02  2.60515795303E+01 -1.17737025025E+03  1.22754263235E+03  1.70168927678E+02 0.00000000000E+00  1.
       -5    1    1    2    0  502  1.95077534583E+02  2.07721731248E+02 -1.04231192391E+01  2.85152947638E+02  1.30238535726E-05 0.00000000000E+00  1.
        5    1    4    4  502    0  3.48340786830E+00  2.88034698176E+01 -6.61868330684E+01  7.24226026564E+01  4.75000000003E+00 0.00000000000E+00  1.
       24    2    4    4    0    0 -3.05185345772E+02 -2.75189028737E+00 -1.11118341718E+03  1.15512002970E+03  8.01749849995E+01 0.00000000000E+00  1.
       -3    1    7    7    0  703 -2.09279102123E+02  3.37253394811E+01 -7.05234494282E+02  7.36403987655E+02  7.62939453125E-06 0.00000000000E+00  1.
        4    1    7    7  703    0 -9.59062436498E+01 -3.64772297685E+01 -4.05948922898E+02  4.18716042044E+02  5.39479660939E-06 0.00000000000E+00  1.
</event>
<event>
 9 112   1.0000000E+00   3.1250000E+01   7.8125000E-03   1.5660620E-01
       -1   -1    0    0    0  501  0.00000000000E+00  0.00000000000E+00  7.69148862670E+01  7.69148862670E+01  0.00000000000E+00 0.00000000000E+00  1.
        2   -1    0    0  501    0  0.00000000000E+00  0.00000000000E+00 -1.91093645674E+03  1.91093645674E+03  0.00000000000E+00 0.00000000000E+00  1.
       25    1    1    2    0    0  1.76001333508E+02 -6.67930333393E+01 -1.14733212477E+03  1.16937324377E+03  1.25000000000E+02 0.00000000000E+00  1.
        6    2    1    2  502    0  5.73569774691E+01 -1.73952558848E+01 -4.02137709139E+02  4.40968549527E+02  1.70722308935E+02 0.00000000000E+00  1.
       -5    1    1    2    0  502 -2.33358310977E+02  8.41882892242E+01 -2.84551736555E+02  3.77509549708E+02  5.39479660939E-06 0.00000000000E+00  1.
        5    1    4    4  502    0  7.08480985220E+01  3.57455516128E+01 -2.33248748648E+02  2.46423900566E+02  4.75000000000E+00 0.00000000000E+00  1.
       24    2    4    4    0    0 -1.34911210529E+01 -5.31408074977E+01 -1.68888960491E+02  1.94544648961E+02  7.94870033066E+01 0.00000000000E+00  1.
       -3    1    7    7    0  703 -4.14615970321E+01 -2.85327432017E+01 -1.35395251174E+02  1.44447414319E+02  2.69739830470E-06 0.00000000000E+00  1.
        4    1    7    7  703    0  2.79704759792E+01 -2.46080642960E+01 -3.34937093175E+01  5.00972346417E+01  6.74349576174E-07 0.00000000000E+00  1.
</event>
<event>
 9 112   1.0000000E+00   3.1250000E+01   7.8125000E-03   1.5660620E-01
       -1   -1    0    0    0  501  0.00000000000E+00  0.00000000000E+00  1.73406849618E+02  1.73406849618E+02  0.00000000000E+00 0.00000000000E+00  1.
        2   -1    0    0  501    0  0.00000000000E+00  0.00000000000E+00 -3.63235996820E+02  3.63235996820E+02  0.00000000000E+00 0.00000000000E+00  1.
       25    1    1    2    0    0 -4.68908826014E+01 -7.55875267449E+01 -9.70449824349E+01  1.81535004025E+02  1.25000000000E+02 0.00000000000E+00  1.
        6    2    1    2  502    0  2.00807313832E+01 -6.63380518302E+01 -9.85577222589E+01  2.10556854771E+02  1.72674814552E+02 0.00000000000E+00  1.
       -5    1    1    2    0  502  2.68101512182E+01  1.41925578575E+02  5.77355749187E+00  1.44550987642E+02  3.01696079608E-06 0.00000000000E+00  1.
        5    1    4    4  502    0  2.06602686767E+01 -1.23997070387E+01  3.51477344739E+01  4.28780267164E+01  4.75000000000E+00 0.00000000000E+00  1.
       24    2    4    4    0    0 -5.79537293484E-01 -5.39383447915E+01 -1.33705456733E+02  1.67678828055E+02  8.56116774472E+01 0.00000000000E+00  1.
      -11    1    7    7    0    0  2.54540921503E+00 -5.33951242927E+01 -2.51491713517E+01  5.90762154022E+01  5.10999153905E-04 0.00000000000E+00  1.
       12    1    7    7    0    0 -3.12494650851E+00 -5.43220498795E-01 -1.08556285381E+02  1.08602612652E+02  2.69739830470E-06 0.00000000000E+00  1.
</event>
<event>
 9 112   1.0000000E+00   3.1250000E+01   7.8125000E-03   1.5660620E-01
       -1   -1    0    0    0  501  0.00000000000E+00  0.00000000000E+00  6.94458090320E+02  6.94458090320E+02  0.00000000000E+00 0.00000000000E+00  1.
        2   -1    0    0  501    0  0.00000000000E+00  0.00000000000E+00 -1.11420396557E+03  1.11420396557E+03  0.00000000000E+00 0.00000000000E+00  1.
       25    1    1    2    0    0 -2.87818935596E+02 -3.99726894972E+01 -5.93164975087E+02  6.72240465357E+02  1.25000000000E+02 0.00000000000E+00  1.
        6    2    1    2  502    0 -3.60689592788E+02 -1.24415680376E+02 -6.90864264410E+01  4.24806682159E+02  1.73526767444E+02 0.00000000000E+00  1.
       -5    1    1    2    0  502  6.48508528384E+02  1.64388369873E+02  2.42505526282E+02  7.11614908370E+02  1.17576866207E-05 0.00000000000E+00  1.
        5    1    4    4  502    0 -2.19901676693E+01  8.91196743723E+00 -4.50517072753E+01  5.11391187462E+01  4.75000000000E+00 0.00000000000E+00  1.
       24    2    4    4    0    0 -3.38699425119E+02 -1.33327647813E+02 -2.40347191657E+01  3.73667563412E+02  8.09704759418E+01 0.00000000000E+00  1.
       -1    1    7    7    0  703 -6.33711577975E+01 -5.56538851316E+01 -2.36466476115E+01  8.75923656154E+01  7.53945746462E-07 0.00000000000E+00  1.
        2    1    7    7  703    0 -2.75328267321E+02 -7.76737626814E+01 -3.88071554208E-01  2.86075197797E+02  4.87720890273E-06 0.00000000000E+00  1.
</event>
<event>
 9 112   1.0000000E+00   3.1250000E+01   7.8125000E-03   1.5660620E-01
       -1   -1    0    0    0  501  0.00000000000E+00  0.00000000000E+00  6.73716102620E+01  6.73716102620E+01  0.00000000000E+00 0.00000000000E+00  1.
        2   -1    0    0  501    0  0.00000000000E+00  0.00000000000E+00 -1.54710926917E+03  1.54710926917E+03  0.00000000000E+00 0.00000000000E+00  1.
       25    1    1    2    0    0 -4.19885375778E+01  1.49133088657E+02 -6.32464955477E+02  6.63054021424E+02  1.25000000000E+02 0.00000000000E+00  1.
        6    2    1    2  502    0 -3.96220670453E+01 -1.04034031517E+02 -8.31409708095E+02  8.56844352423E+02  1.74777440347E+02 0.00000000000E+00  1.
       -5    1    1    2    0  502  8.16106046231E+01 -4.50990571394E+01 -1.58629953371E+01  9.45825055858E+01  2.93458309772E-06 0.00000000000E+00  1.
        5    1    4    4  502    0  7.02129335605E+00  1.17060278203E+01 -4.05987774006E+02  4.06244956633E+02  4.75000000001E+00 0.00000000000E+00  1.
       24    2    4    4    0    0 -4.66433604014E+01 -1.15740059337E+02 -4.25421934089E+02  4.50599395790E+02  8.05271946436E+01 0.00000000000E+00  1.
       -3    1    7    7    0  703 -6.15631884717E+01 -5.97303845284E+01 -1.95614758389E+02  2.13595128011E+02  5.39479660939E-06 0.00000000000E+00  1.
        4    1    7    7  703    0  1.49198280703E+01 -5.60096748091E+01 -2.29807175701E+02  2.37004267779E+02  4.67203091199E-06 0.00000000000E+00  1.
</event>
<event>
 9 112   1.0000000E+00   3.1250000E+01   7.8125000E-03   1.5660620E-01
       -1   -1    0    0    0  501  0.00000000000E+00  0.00000000000E+00  2.26333699244E+02  2.26333699244E+02  0.00000000000E+00 0.00000000000E+00  1.
        2   -1    0    0  501    0  0.00000000000E+00  0.00000000000E+00 -5.79990141307E+02  5.79990141307E+02  0.00000000000E+00 0.00000000000E+00  1.
       25    1    1    2    0    0  5.43126016582E+01  4.53897146092E+01 -3.90125385020E+02  4.15731765599E+02  1.25000000000E+02 0.00000000000E+00  1.
        6    2    1    2  502    0 -2.06682349972E+01 -9.47573856080E+01 -1.13351616854E+02  2.29299451160E+02  1.74136472899E+02 0.00000000000E+00  1.
       -5    1    1    2    0  502 -3.36443666610E+01  4.93676709988E+01  1.49820559810E+02  1.61292623792E+02  1.90734863281E-06 0.00000000000E+00  1.
        5    1    4    4  502    0  2.87287708453E+00  7.60458147363E+00 -9.66651882506E+01  9.71226245612E+01  4.75000000000E+00 0.00000000000E+00  1.
       24    2    4    4    0    0 -2.35411120817E+01 -1.02361967082E+02 -1.66864286029E+01  1.32176826598E+02  7.84864340333E+01 0.00000000000E+00  1.
      -13    1    7    7    0    0 -2.58825448969E+01 -2.02066860979E+01  2.38027973792E+01  4.05561415880E+01  1.05660000006E-01 0.00000000000E+00  1.
       14    1    7    7    0    0  2.34143281516E+00 -8.21552809838E+01 -4.04892259822E+01  9.16206850105E+01  1.50789149292E-06 0.00000000000E+00  1.
</event>
<event>
 9 112   1.0000000E+00   3.1250000E+01   7.8125000E-03   1.5660620E-01
       -1   -1    0    0    0  501  0.00000000000E+00  0.00000000000E+00  5.38915794696E+01  5.38915794696E+01  0.00000000000E+00 0.00000000000E+00  1.
        2   -1    0    0  501    0  0.00000000000E+00  0.00000000000E+00 -2.14030392126E+03  2.14030392126E+03  0.00000000000E+00 0.00000000000E+00  1.
       25    1    1    2    0    0 -1.63635870401E+02 -2.18955453999E+01 -3.76767823191E+02  4.29924534753E+02  1.25000000000E+02 0.00000000000E+00  1.
        6    2    1    2  502    0 -2.10133800160E+01 -9.94297973283E+01 -1.03269906690E+03  1.05218225729E+03  1.74046812771E+02 0.00000000000E+00  1.
       -5    1    1    2    0  502  1.84649250417E+02  1.21325342728E+02 -6.76945451696E+02  7.12088708687E+02  1.07895932188E-05 0.00000000000E+00  1.
        5    1    4    4  502    0 -1.70904239565E+01 -2.56218393659E+01 -2.87715401984E+01  4.24137391524E+01  4.75000000000E+00 0.00000000000E+00  1.
       24    2    4    4    0    0 -3.92295605946E+00 -7.38079579624E+01 -1.00392752670E+03  1.00976851814E+03  7.93660954203E+01 0.00000000000E+00  1.
      -11    1    7    7    0    0  8.25734537474E+00 -8.62781578848E+00 -6.22891603194E+02  6.23006077247E+02  5.11112494642E-04 0.00000000000E+00  1.
       12    1    7    7    0    0 -1.21803014342E+01 -6.51801421739E+01 -3.81035923511E+02  3.86762440889E+02  5.39479660939E-06 0.00000000000E+00  1.
</event>
<event>
 9 112   1.0000000E+00   3.1250000E+01   7.8125000E-03   1.5660620E-01
       -1   -1    0    0    0  501  0.00000000000E+00  0.00000000000E+00  2.50606025289E+01  2.50606025289E+01  0.00000000000E+00 0.00000000000E+00  1.
        2   -1    0    0  501    0  0.00000000000E+00  0.00000000000E+00 -2.89612754580E+03  2.89612754580E+03  0.00000000000E+00 0.00000000000E+00  1.
       25    1    1    2    0    0 -2.96488722213E+01 -2.60091918879E+01 -2.16237163001E+03  2.16634060109E+03  1.25000000000E+02 0.00000000000E+00  1.
        6    2    1    2  502    0  1.64148639026E+01  2.61179036273E+01 -7.17218523518E+02  7.39106012768E+02  1.75851343427E+02 0.00000000000E+00  1.
       -5    1    1    2    0  502  1.32340083187E+01 -1.08711739448E-01  8.52321025280E+00  1.57415344689E+01  3.80910523144E-06 0.00000000000E+00  1.
        5    1    4    4  502    0  5.59047035593E+01  2.65403493727E+01 -1.18446258013E+02  1.33722864770E+02  4.75000000000E+00 0.00000000000E+00  1.
       24    2    4    4    0    0 -3.94898396568E+01 -4.22445745403E-01 -5.98772265505E+02  6.05383147998E+02  8.00056500858E+01 0.00000000000E+00  1.
       -1    1    7    7    0  703  7.60754153780E+00 -3.12465424813E+01 -1.80801685288E+02  1.83639512383E+02  7.38712949029E-06 0.00000000000E+00  1.
        2    1    7    7  703    0 -4.70973811946E+01  3.08240967359E+01 -4.17970580217E+02  4.21743635616E+02  5.39479660939E-06 0.00000000000E+00  1.
</event>
<event>
 9 112   1.0000000E+00   3.1250000E+01   7.8125000E-03   1.5660620E-01
       -1   -1    0    0    0  501  0.00000000000E+00  0.00000000000E+00  5.99801998674E+01  5.99801998674E+01  0.00000000000E+00 0.00000000000E+00  1.
        2   -1    0    0  501    0  0.00000000000E+00  0.00000000000E+00 -7.61332094827E+02  7.61332094827E+02  0.00000000000E+00 0.00000000000E+00  1.
       25    1    1    2    0    0  1.44435670880E+00 -6.85200037737E+01 -1.61550479844E+02  2.15454483873E+02  1.25000000000E+02 0.00000000000E+00  1.
        6    2    1    2  502    0 -6.66454035477E+01  1.00612845746E+01 -3.42869281317E+02  3.90333186516E+02  1.73947731125E+02 0.00000000000E+00  1.
       -5    1    1    2    0  502  6.52010468389E+01  5.84587191990E+01 -1.96932133799E+02  2.15524624305E+02  0.00000000000E+00 0.00000000000E+00  1.
        5    1    4    4  502    0 -4.49411624631E+01  2.53739719940E+01 -2.83063404643E+02  2.87769004736E+02  4.75000000000E+00 0.00000000000E+00  1.
       24    2    4    4    0    0 -2.17042410846E+01 -1.53126874194E+01 -5.98058766738E+01  1.02564181780E+02  7.89754140380E+01 0.00000000000E+00  1.
       -3    1    7    7    0  703 -1.04032539508E+01  3.01294155944E+01 -8.26649217969E+00  3.29293830763E+01  8.76005795997E-07 0.00000000000E+00  1.
        4    1    7    7  703    0 -1.13009871338E+01 -4.54421030138E+01 -5.15393844941E+01  6.96347987040E+01  6.74349576174E-07 0.00000000000E+00  1.
</event>
<event>
 9 112   1.0000000E+00   3.1250000E+01   7.8125000E-03   1.5660620E-01
       -1   -1    0    0    0  501  0.00000000000E+00  0.00000000000E+00  1.45677532150E+02  1.45677532150E+02  0.00000000000E+00 0.00000000000E+00  1.
        2   -1    0    0  501    0  0.00000000000E+00  0.00000000000E+00 -1.08364731951E+03  1.08364731951E+03  0.00000000000E+00 0.00000000000E+00  1.
       25    1    1    2    0    0  6.38379253058E+01  6.24741520944E+01 -8.77093904196E+02  8.90447649873E+02  1.25000000000E+02 0.00000000000E+00  1.
        6    2    1    2  502    0  2.76407211518E+01 -1.00904564663E+02 -1.11115685315E+02  2.27659950027E+02  1.68927844618E+02 0.00000000000E+00  1.
       -5    1    1    2    0  502 -9.14786464576E+01  3.84304125684E+01  5.02398021550E+01  1.11217251757E+02  1.50789149292E-06 0.00000000000E+00  1.
        5    1    4    4  502    0 -2.16975638202E+00 -5.88386116212E+01 -1.18478262649E+02  1.32387126567E+02  4.75000000000E+00 0.00000000000E+00  1.
       24    2    4    4    0    0  2.98104775339E+01 -4.20659530416E+01  7.36257733355E+00  9.52728234598E+01  7.97777811732E+01 0.00000000000E+00  1.
       -3    1    7    7    0  703  5.07220467067E+01 -3.61796783319E+01 -1.50125875508E+01  6.40864488897E+01  1.33812095646E-06 0.00000000000E+00  1.
        4    1    7    7  703    0 -2.09115691729E+01 -5.88627470966E+00  2.23751648843E+01  3.11863745701E+01  8.25906184945E-07 0.00000000000E+00  1.
</event>
<event>
 9 112   1.0000000E+00   3.1250000E+01   7.8125000E-03   1.5660620E-01
       -1   -1    0    0    0  501  0.00000000000E+00  0.00000000000E+00  2.69900517402E+01  2.69900517402E+01  0.00000000000E+00 0.00000000000E+00  1.
        2   -1    0    0  501    0  0.00000000000E+00  0.00000000000E+00 -4.22428932326E+03  4.22428932326E+03  0.00000000000E+00 0.00000000000E+00  1.
       25    1    1    2    0    0  1.07592606591E+02 -2.64076277369E+01 -7.02627452889E+02  7.22207635898E+02  1.25000000000E+02 0.00000000000E+00  1.
        6    2    1    2  502    0  1.25329847611E+02  1.14663546266E+02 -1.81292801792E+03  1.82898227438E+03  1.72083881572E+02 0.00000000000E+00  1.
       -5    1    1    2    0  502 -2.32922454202E+02 -8.82559185293E+01 -1.68174380071E+03  1.70008946472E+03  2.15791864376E-05 0.00000000000E+00  1.
        5    1    4    4  502    0  8.37161503203E+01  1.28349294244E+02 -1.11415113240E+03  1.12464983150E+03  4.74999999990E+00 0.00000000000E+00  1.
       24    2    4    4    0    0  4.16136972907E+01 -1.36857479782E+01 -6.98776885518E+02  7.04332442883E+02  7.66554294401E+01 0.00000000000E+00  1.
       -3    1    7    7    0  703 -6.24185669956E+00 -3.27187671947E+01 -1.84444591441E+02  1.87428081710E+02  8.09219491409E-06 0.00000000000E+00  1.
        4    1    7    7  703    0  4.78555539903E+01  1.90330192165E+01 -5.14332294077E+02  5.16904361173E+02  1.07895932188E-05 0.00000000000E+00  1.
</event>
<event>
 9 112   1.0000000E+00   3.1250000E+01   7.8125000E-03   1.5660620E-01
       -1   -1    0    0    0  501  0.00000000000E+00  0.00000000000E+00  1.96729367906E+02  1.96729367906E+02  0.00000000000E+00 0.00000000000E+00  1.
        2   -1    0    0  501    0  0.00000000000E+00  0.00000000000E+00 -1.53929190327E+03  1.53929190327E+03  0.00000000000E+00 0.00000000000E+00  1.
       25    1    1    2    0    0  1.44642659719E+02 -2.25005178725E+02 -1.04592840369E+01  2.95437347141E+02  1.25000000000E+02 0.00000000000E+00  1.
        6    2    1    2  502    0 -4.92286595454E+00 -9.93597893568E+01 -4.26671265792E+02  4.68708760387E+02  1.66562092506E+02 0.00000000000E+00  1.
       -5    1    1    2    0  502 -1.39719793764E+02  3.24364968081E+02 -9.05431985533E+02  9.71875163647E+02  1.07895932188E-05 0.00000000000E+00  1.
        5    1    4    4  502    0  2.24509794185E+01  1.37718380872E+01 -1.01108582060E+01  2.86094731656E+01  4.75000000000E+00 0.00000000000E+00  1.
       24    2    4    4    0    0 -2.73738453731E+01 -1.13131627444E+02 -4.16560407586E+02  4.40099287221E+02  8.13432044204E+01 0.00000000000E+00  1.
       -3    1    7    7    0  703  2.55719001847E+01 -6.51893842003E+01 -1.86867926193E+02  1.99557509834E+02  2.69739830470E-06 0.00000000000E+00  1.
        4    1    7    7  703    0 -5.29457455578E+01 -4.79422432436E+01 -2.29692481394E+02  2.40541777387E+02  3.81469726562E-06 0.00000000000E+00  1.
</event>
<event>
 9 112   1.0000000E+00   3.1250000E+01   7.8125000E-03   1.5660620E-01
       -1   -1    0    0    0  501  0.00000000000E+00  0.00000000000E+00  6.69281459149E+01  6.69281459149E+01  0.00000000000E+00 0.00000000000E+00  1.
        2   -1    0    0  501    0  0.00000000000E+00  0.00000000000E+00 -1.48097858114E+03  1.48097858114E+03  0.00000000000E+00 0.00000000000E+00  1.
       25    1    1    2    0    0 -1.58008548545E+01  7.47083060869E+01 -3.21255734158E+02  3.53073993296E+02  1.25000000000E+02 0.00000000000E+00  1.
        6    2    1    2  502    0 -1.11431437461E+02 -1.77003978586E+02 -9.10833481885E+02  9.50369349781E+02  1.72733597166E+02 0.00000000000E+00  1.
       -5    1    1    2    0  502  1.27232292315E+02  1.02295672500E+02 -1.81961219182E+02  2.44463383978E+02  1.37540865916E-05 0.00000000000E+00  1.
        5    1    4    4  502    0  1.75090145178E+01 -3.94711664273E+01 -3.60233779903E+02  3.62843598885E+02  4.75000000000E+00 0.00000000000E+00  1.
       24    2    4    4    0    0 -1.28940451979E+02 -1.37532812159E+02 -5.50599701982E+02  5.87525750896E+02  8.05329843377E+01 0.00000000000E+00  1.
       -3    1    7    7    0  703 -4.96041245213E+00 -1.89283983439E+00  1.60532552324E+00  5.54667507336E+00  2.94032799826E-06 0.00000000000E+00  1.
        4    1    7    7  703    0 -1.23980039526E+02 -1.35639972325E+02 -5.52205027505E+02  5.81979075823E+02  7.62939453125E-06 0.00000000000E+00  1.
</event>
<event>
 9 112   1.0000000E+00   3.1250000E+01   7.8125000E-03   1.5660620E-01
       -1   -1    0    0    0  501  0.00000000000E+00  0.00000000000E+00  5.50396528410E+02  5.50396528410E+02  0.00000000000E+00 0.00000000000E+00  1.
        2   -1    0    0  501    0  0.00000000000E+00  0.00000000000E+00 -1.84363863857E+03  1.84363863857E+03  0.00000000000E+00 0.00000000000E+00  1.
       25    1    1    2    0    0 -6.95735903875E+02  4.48567366364E+02 -8.50472775020E+02  1.19339434855E+03  1.25000000000E+02 0.00000000000E+00  1.
        6    2    1    2  502    0 -7.39875197300E+01  4.54314008164E+01 -1.34784520154E+02  2.35569019503E+02  1.72591224634E+02 0.00000000000E+00  1.
       -5    1    1    2    0  502  7.69723423605E+02 -4.93998767180E+02 -3.07984814990E+02  9.65071798928E+02  1.32144989591E-05 0.00000000000E+00  1.
        5    1    4    4  502    0 -8.78048223701E+01  6.32805737387E+01 -6.88703210086E+01  1.28373679000E+02  4.75000000000E+00 0.00000000000E+00  1.
       24    2    4    4    0    0  1.38173026401E+01 -1.78491729223E+01 -6.59141991452E+01  1.07195340503E+02  8.14656280300E+01 0.00000000000E+00  1.
       -3    1    7    7    0  703  1.11585515720E+01 -4.54219821595E+01 -1.48009869593E+01  4.90585257774E+01  8.92080637640E-07 0.00000000000E+00  1.
        4    1    7    7  703    0  2.65875106808E+00  2.75728092372E+01 -5.11132121859E+01  5.81368147255E+01  1.34869915235E-06 0.00000000000E+00  1.
</event>
<event>
 9 112   1.0000000E+00   3.1250000E+01   7.8125000E-03   1.5660620E-01
       -1   -1    0    0    0  501  0.00000000000E+00  0.00000000000E+00  3.00376011080E+02  3.00376011080E+02  0.00000000000E+00 0.00000000000E+00  1.
        2   -1    0    0  501    0  0.00000000000E+00  0.00000000000E+00 -3.61411417062E+02  3.61411417062E+02  0.00000000000E+00 0.00000000000E+00  1.
       25    1    1    2    0    0 -1.56093430963E+02  2.28127488502E+01 -1.36009934646E+02  2.42918264077E+02  1.25000000000E+02 0.00000000000E+00  1.
        6    2    1    2  502    0  1.61415737432E+02 -3.98848568032E+01 -8.67619086224E+01  2.56147134327E+02  1.74464562428E+02 0.00000000000E+00  1.
       -5    1    1    2    0  502 -5.32230646918E+00  1.70721079530E+01  1.61736437286E+02  1.62722029738E+02  1.90734863281E-06 0.00000000000E+00  1.
        5    1    4    4  502    0  4.25544024813E+01 -2.94067694087E+01 -9.94305812604E+01  1.12181274050E+02  4.75000000000E+00 0.00000000000E+00  1.
       24    2    4    4    0    0  1.18861334951E+02 -1.04780873945E+01  1.26686726380E+01  1.43965860277E+02  7.95478874467E+01 0.00000000000E+00  1.
       -1    1    7    7    0  703  8.98708282373E+00 -1.19090437507E+01  2.92528854131E+01  3.28378483724E+01  2.21100294483E-06 0.00000000000E+00  1.
        2    1    7    7  703    0  1.09874252127E+02  1.43095635620E+00 -1.65842127751E+01  1.11128011905E+02  1.84678237257E-06 0.00000000000E+00  1.
</event>
<event>
 9 112   1.0000000E+00   3.1250000E+01   7.8125000E-03   1.5660620E-01
       -1   -1    0    0    0  501  0.00000000000E+00  0.00000000000E+00  1.73444091290E+02  1.73444091290E+02  0.00000000000E+00 0.00000000000E+00  1.
        2   -1    0    0  501    0  0.00000000000E+00  0.00000000000E+00 -1.33279838598E+03  1.33279838598E+03  0.00000000000E+00 0.00000000000E+00  1.
       25    1    1    2    0    0 -2.83555001192E+01  1.24621238469E+02 -2.70564925870E+02  3.24291329788E+02  1.25000000000E+02 0.00000000000E+00  1.
        6    2    1    2  502    0 -2.14805324871E+02  2.14343402557E+02 -5.10237668092E+02  6.18634535977E+02  1.74016635269E+02 0.00000000000E+00  1.
       -5    1    1    2    0  502  2.43160824990E+02 -3.38964641026E+02 -3.78551700732E+02  5.63316611509E+02  5.39479660939E-06 0.00000000000E+00  1.
        5    1    4    4  502    0 -1.75402637470E+01  1.09966807078E+02 -1.73894046337E+02  2.06547963831E+02  4.75000000000E+00 0.00000000000E+00  1.
       24    2    4    4    0    0 -1.97265061124E+02  1.04376595479E+02 -3.36343621755E+02  4.12086572146E+02  8.29477728663E+01 0.00000000000E+00  1.
      -13    1    7    7    0    0 -7.10974000793E+00 -2.67448007536E+00  3.38047791071E+00  8.31504910353E+00  1.05659999883E-01 0.00000000000E+00  1.
       14    1    7    7    0    0 -1.90155321116E+02  1.07051075554E+02 -3.39724099666E+02  4.03771523042E+02  8.52992239952E-06 0.00000000000E+00  1.
</event>
<event>
 9 112   1.0000000E+00   3.1250000E+01   7.8125000E-03   1.5660620E-01
       -1   -1    0    0    0  501  0.00000000000E+00  0.00000000000E+00  1.31673992828E+02  1.31673992828E+02  0.00000000000E+00 0.00000000000E+00  1.
        2   -1    0    0  501    0  0.00000000000E+00  0.00000000000E+00 -5.40395558159E+02  5.40395558159E+02  0.00000000000E+00 0.00000000000E+00  1.
       25    1    1    2    0    0 -6.41480458281E+01  3.67318042108E+01 -3.45562482468E+02  3.74836799839E+02  1.25000000000E+02 0.00000000000E+00  1.
        6    2    1    2  502    0  1.08714301436E+02  3.34953462073E+01 -2.02220776216E+01  2.03629384681E+02  1.67676045779E+02 0.00000000000E+00  1.
       -5    1    1    2    0  502 -4.45662556075E+01 -7.02271504181E+01 -4.29370052417E+01  9.36033664664E+01  1.43051147461E-06 0.00000000000E+00  1.
        5    1    4    4  502    0  1.16725358778E+01  6.74935020880E+01 -2.77832225696E+01  7.40681502015E+01  4.75000000000E+00 0.00000000000E+00  1.
       24    2    4    4    0    0  9.70417655577E+01 -3.39981558808E+01  7.56114494797E+00  1.29561234479E+02  7.84599496626E+01 0.00000000000E+00  1.
      -13    1    7    7    0    0  3.92381827458E+01 -2.50451778600E+01  4.11324230622E+01  6.21191058390E+01  1.05659999988E-01 0.00000000000E+00  1.
       14    1    7    7    0    0  5.78035828119E+01 -8.95297802076E+00 -3.35712781142E+01  6.74421286404E+01  1.43051147461E-06 0.00000000000E+00  1.
</event>
<event>
 9 112   1.0000000E+00   3.1250000E+01   7.8125000E-03   1.5660620E-01
       -1   -1    0    0    0  501  0.00000000000E+00  0.00000000000E+00  7.48615503199E+01  7.48615503199E+01  0.00000000000E+00 0.00000000000E+00  1.
        2   -1    0    0  501    0  0.00000000000E+00  0.00000000000E+00 -2.25435732975E+03  2.25435732975E+03  0.00000000000E+00 0.00000000000E+00  1.
       25    1    1    2    0    0  1.50186702734E+01  1.46425608806E+02 -4.61347133374E+02  5.00132179372E+02  1.25000000000E+02 0.00000000000E+00  1.
        6    2    1    2  502    0 -2.71812580347E+02 -2.44791425042E+01 -1.13933162592E+03  1.18422764967E+03  1.72734666954E+02 0.00000000000E+00  1.
       -5    1    1    2    0  502  2.56793910073E+02 -1.21946466302E+02 -5.78817020141E+02  6.44859051033E+02  1.52587890625E-05 0.00000000000E+00  1.
        5    1    4    4  502    0 -9.96175351621E+01 -2.60208881470E+00 -1.77871428021E+02  2.03939284063E+02  4.75000000000E+00 0.00000000000E+00  1.
       24    2    4    4    0    0 -1.72195045185E+02 -2.18770536895E+01 -9.61460197895E+02  9.80288365603E+02  8.01862116259E+01 0.00000000000E+00  1.
       -3    1    7    7    0  703 -1.12054443011E+01  7.31177747838E-01 -9.99054746103E+00  1.50302242649E+01  1.64374870555E-05 0.00000000000E+00  1.
        4    1    7    7  703    0 -1.60989600884E+02 -2.26082314373E+01 -9.51469650434E+02  9.65258141338E+02  1.52587890625E-05 0.00000000000E+00  1.
</event>
<event>
 9 112   1.0000000E+00   3.1250000E+01   7.8125000E-03   1.5660620E-01
       -1   -1    0    0    0  501  0.00000000000E+00  0.00000000000E+00  5.15504379797E+02  5.15504379797E+02  0.00000000000E+00 0.00000000000E+00  1.
        2   -1    0    0  501    0  0.00000000000E+00  0.00000000000E+00 -2.99498822701E+02  2.99498822701E+02  0.00000000000E+00 0.00000000000E+00  1.
       25    1    1    2    0    0 -1.74326810478E+01  6.08602741192E+00  5.62115751436E+01  1.38295622773E+02  1.25000000000E+02 0.00000000000E+00  1.
        6    2    1    2  502    0 -8.72686559681E+01  2.10142920213E+02 -1.17556152705E+02  3.09773764222E+02  1.74254040789E+02 0.00000000000E+00  1.
       -5    1    1    2    0  502  1.04701337016E+02 -2.16228947625E+02  2.77350134658E+02  3.66933815502E+02  5.39479660939E-06 0.00000000000E+00  1.
        5    1    4    4  502    0 -1.79550486989E+01  5.19523291834E+01 -1.03898775856E+02  1.17639051364E+02  4.75000000000E+00 0.00000000000E+00  1.
       24    2    4    4    0    0 -6.93136072691E+01  1.58190591030E+02 -1.36573768490E+01  1.92134712858E+02  8.30697580338E+01 0.00000000000E+00  1.
      -15    1    7    7    0    0 -2.10429431592E+00  5.99283278601E+01  2.77389459414E+01  6.60941652104E+01  1.77680000000E+00 0.00000000000E+00  1.
       16    1    7    7    0    0 -6.72093129532E+01  9.82622631696E+01 -4.13963227904E+01  1.26040547648E+02  1.50789149292E-06 0.00000000000E+00  1.
</event>
<event>
 9 112   1.0000000E+00   3.1250000E+01   7.8125000E-03   1.5660620E-01
       -1   -1    0    0    0  501  0.00000000000E+00  0.00000000000E+00  2.08830273541E+02  2.08830273541E+02  0.00000000000E+00 0.00000000000E+00  1.
        2   -1    0    0  501    0  0.00000000000E+00  0.00000000000E+00 -1.76943151354E+02  1.76943151354E+02  0.00000000000E+00 0.00000000000E+00  1.
       25    1    1    2    0    0  1.17914526455E+01  2.41895777662E+01 -4.04273737849E+01  1.34102746352E+02  1.25000000000E+02 0.00000000000E+00  1.
        6    2    1    2  502    0  3.98837142365E+01 -3.21863110280E+01  2.97814618108E+01  1.84266453080E+02  1.74472120937E+02 0.00000000000E+00  1.
       -5    1    1    2    0  502 -5.16751668820E+01  7.99673326181E+00  4.25330341612E+01  6.74042254618E+01  6.74349576174E-07 0.00000000000E+00  1.
        5    1    4    4  502    0 -2.14274803725E+01  4.78474820576E+01  6.23461537223E+00  5.30089745534E+01  4.75000000000E+00 0.00000000000E+00  1.
       24    2    4    4    0    0  6.13111946089E+01 -8.00337930856E+01  2.35468464386E+01  1.31257478527E+02  8.06820988325E+01 0.00000000000E+00  1.
       -1    1    7    7    0  703  1.21000793110E+00  6.33174380604E+00  2.52136884888E+01  2.60247033803E+01  2.02304872852E-06 0.00000000000E+00  1.
        2    1    7    7  703    0  6.01011866778E+01 -8.63655368916E+01 -1.66684205024E+00  1.05232775147E+02  2.22292164459E-06 0.00000000000E+00  1.
</event>
<event>
 9 112   1.0000000E+00   3.1250000E+01   7.8125000E-03   1.5660620E-01
       -1   -1    0    0    0  501  0.00000000000E+00  0.00000000000E+00  2.66747968512E+02  2.66747968512E+02  0.00000000000E+00 0.00000000000E+00  1.
        2   -1    0    0  501    0  0.00000000000E+00  0.00000000000E+00 -4.55792108501E+02  4.55792108501E+02  0.00000000000E+00 0.00000000000E+00  1.
       25    1    1    2    0    0 -2.16400607788E+02  1.20959776320E+02 -6.17166044663E+01  2.84419461017E+02  1.25000000000E+02 0.00000000000E+00  1.
        6    2    1    2  502    0  7.27315941587E+00 -1.29733681563E+01 -1.01942511979E+02  2.01393445120E+02  1.73048654601E+02 0.00000000000E+00  1.
       -5    1    1    2    0  502  2.09127448372E+02 -1.07986408164E+02 -2.53850235435E+01  2.36727170876E+02  4.96689478302E-06 0.00000000000E+00  1.
        5    1    4    4  502    0 -4.51831674700E+01  2.55443767967E+01  5.84800309409E+00  5.24480261663E+01  4.75000000000E+00 0.00000000000E+00  1.
       24    2    4    4    0    0  5.24563268859E+01 -3.85177449531E+01 -1.07790515073E+02  1.48945418953E+02  7.95654433835E+01 0.00000000000E+00  1.
       -3    1    7    7    0  703  1.34730137855E+01  1.96667432773E+01 -4.67349456092E+00  2.42928887334E+01  1.99920056239E-06 0.00000000000E+00  1.
        4    1    7    7  703    0  3.89833131003E+01 -5.81844882304E+01 -1.03117020512E+02  1.24652530220E+02  0.00000000000E+00 0.00000000000E+00  1.
</event>
<event>
 9 112   1.0000000E+00   3.1250000E+01   7.8125000E-03   1.5660620E-01
       -1   -1    0    0    0  501  0.00000000000E+00  0.00000000000E+00  1.42477574093E+02  1.42477574093E+02  0.00000000000E+00 0.00000000000E+00  1.
        2   -1    0    0  501    0  0.00000000000E+00  0.00000000000E+00 -2.94303774157E+02  2.94303774157E+02  0.00000000000E+00 0.00000000000E+00  1.
       25    1    1    2    0    0 -5.70434966503E+01  4.05575171245E-01  4.18019511364E+00  1.37464901093E+02  1.25000000000E+02 0.00000000000E+00  1.
        6    2    1    2  502    0  8.60550325852E+01 -4.74712133088E+01 -1.11511835616E+02  2.28347374025E+02  1.73345461480E+02 0.00000000000E+00  1.
       -5    1    1    2    0  502 -2.90115359349E+01  4.70656381376E+01 -4.44945595619E+01  7.09690731320E+01  9.53674316406E-07 0.00000000000E+00  1.
        5    1    4    4  502    0  6.46031813729E+01 -4.11650088928E+01  1.40858275558E+01  7.80326985216E+01  4.75000000000E+00 0.00000000000E+00  1.
       24    2    4    4    0    0  2.14518512123E+01 -6.30620441607E+00 -1.25597663171E+02  1.50314675504E+02  7.94970348071E+01 0.00000000000E+00  1.
      -11    1    7    7    0    0  9.96849403905E-01 -2.02300668201E+01  1.98775107892E+00  2.03519155583E+01  5.10994321037E-04 0.00000000000E+00  1.
       12    1    7    7    0    0  2.04550018084E+01  1.39238624040E+01 -1.27585414250E+02  1.29962759946E+02  2.33601545599E-06 0.00000000000E+00  1.
</event>
<event>
 9 112   1.0000000E+00   3.1250000E+01   7.8125000E-03   1.5660620E-01
       -1   -1    0    0    0  501  0.00000000000E+00  0.00000000000E+00  1.86821854945E+01  1.86821854945E+01  0.00000000000E+00 0.00000000000E+00  1.
        2   -1    0    0  501    0  0.00000000000E+00  0.00000000000E+00 -1.92396673139E+03  1.92396673139E+03  0.00000000000E+00 0.00000000000E+00  1.
       25    1    1    2    0    0 -3.85420929513E+01 -3.52896985195E+01 -9.58642116653E+02  9.68168664836E+02  1.25000000000E+02 0.00000000000E+00  1.
        6    2    1    2  502    0  6.47617476505E-01  4.11817937495E+01 -5.99950874731E+02  6.25674085206E+02  1.72715515407E+02 0.00000000000E+00  1.
       -5    1    1    2    0  502  3.78944754748E+01 -5.89209523003E+00 -3.46691554508E+02  3.48806166839E+02  5.39479660939E-06 0.00000000000E+00  1.
        5    1    4    4  502    0  1.57311056739E+01  3.88943442669E+01 -4.83104347008E+02  4.84945986992E+02  4.74999999999E+00 0.00000000000E+00  1.
       24    2    4    4    0    0 -1.50834881974E+01  2.28744948261E+00 -1.16846527723E+02  1.40728098213E+02  7.69320644756E+01 0.00000000000E+00  1.
       -3    1    7    7    0  703  1.44757578890E+01 -1.34229875587E+01 -5.92249067005E-01  1.97503144385E+01  6.91701245092E-07 0.00000000000E+00  1.
        4    1    7    7  703    0 -2.95592460864E+01  1.57104370413E+01 -1.16254278656E+02  1.20977783775E+02  1.34869915235E-06 0.00000000000E+00  1.
</event>
<event>
 9 112   1.0000000E+00   3.1250000E+01   7.8125000E-03   1.5660620E-01
       -1   -1    0    0    0  501  0.00000000000E+00  0.00000000000E+00  5.70188087864E+02  5.70188087864E+02  0.00000000000E+00 0.00000000000E+00  1.
        2   -1    0    0  501    0  0.00000000000E+00  0.00000000000E+00 -1.05862666574E+02  1.05862666574E+02  0.00000000000E+00 0.00000000000E+00  1.
       25    1    1    2    0    0 -3.38669834105E+01  3.05270497522E+01  7.07234472011E+01  1.50684038026E+02  1.25000000000E+02 0.00000000000E+00  1.
        6    2    1    2  502    0 -1.01425061602E+02 -4.98646722277E+01  1.94945748405E+02  2.84239826393E+02  1.73248103682E+02 0.00000000000E+00  1.
       -5    1    1    2    0  502  1.35292045013E+02  1.93376224754E+01  1.98656225684E+02  2.41126890018E+02  6.60724947956E-06 0.00000000000E+00  1.
        5    1    4    4  502    0 -4.33316720862E+01 -3.80452674956E+01  1.72398033698E+02  1.81848070398E+02  4.75000000000E+00 0.00000000000E+00  1.
       24    2    4    4    0    0 -5.80933895161E+01 -1.18194047321E+01  2.25477147064E+01  1.02391755995E+02  8.03811670946E+01 0.00000000000E+00  1.
       -3    1    7    7    0  703  1.20927306037E+01  1.21564145129E+01  2.24175492169E+01  2.82233779012E+01  2.38418579102E-07 0.00000000000E+00  1.
        4    1    7    7  703    0 -7.01861201199E+01 -2.39758192450E+01  1.30165489473E-01  7.41683780934E+01  8.22789630096E-07 0.00000000000E+00  1.
</event>
<event>
 9 112   1.0000000E+00   3.1250000E+01   7.8125000E-03   1.5660620E-01
       -1   -1    0    0    0  501  0.00000000000E+00  0.00000000000E+00  4.23141336313E+01  4.23141336313E+01  0.00000000000E+00 0.00000000000E+00  1.
        2   -1    0    0  501    0  0.00000000000E+00  0.00000000000E+00 -1.22362665623E+03  1.22362665623E+03  0.00000000000E+00 0.00000000000E+00  1.
       25    1    1    2    0    0 -8.50331607208E+01 -4.52662019523E+01 -5.73128439925E+02  5.94458472992E+02  1.25000000000E+02 0.00000000000E+00  1.
        6    2    1    2  502    0 -1.24610461406E+01  6.17980504479E+01 -3.67183100069E+02  4.10982996328E+02  1.73520366482E+02 0.00000000000E+00  1.
       -5    1    1    2    0  502  9.74942068614E+01 -1.65318484956E+01 -2.41000982609E+02  2.60499320545E+02  3.81469726562E-06 0.00000000000E+00  1.
        5    1    4    4  502    0  3.86914308776E+01 -6.89922444464E+00 -2.15625097832E+02  2.19229038762E+02  4.75000000000E+00 0.00000000000E+00  1.
       24    2    4    4    0    0 -5.11524770182E+01  6.86972748925E+01 -1.51558002237E+02  1.91753957566E+02  8.03981387685E+01 0.00000000000E+00  1.
       -3    1    7    7    0  703 -4.88277514849E+01  7.23370139529E+01 -1.60009403319E+02  1.82263002425E+02  4.26496119976E-06 0.00000000000E+00  1.
        4    1    7    7  703    0 -2.32472553328E+00 -3.63973906031E+00  8.45140108195E+00  9.49095514057E+00  2.17209662894E-06 0.00000000000E+00  1.
</event>
<event>
 9 112   1.0000000E+00   3.1250000E+01   7.8125000E-03   1.5660620E-01
       -1   -1    0    0    0  501  0.00000000000E+00  0.00000000000E+00  9.82286821440E+02  9.82286821440E+02  0.00000000000E+00 0.00000000000E+00  1.
        2   -1    0    0  501    0  0.00000000000E+00  0.00000000000E+00 -1.23314172489E+02  1.23314172489E+02  0.00000000000E+00 0.00000000000E+00  1.
       25    1    1    2    0    0 -8.88898117718E+00 -7.63090913021E+01  1.95280065109E+01  1.48014980458E+02  1.25000000000E+02 0.00000000000E+00  1.
        6    2    1    2  502    0 -6.11696549660E+01 -7.59107401122E+01  1.52281228282E+02  2.50286467781E+02  1.73059458899E+02 0.00000000000E+00  1.
       -5    1    1    2    0  502  7.00586361432E+01  1.52219831414E+02  6.87163414159E+02  7.07299545689E+02  7.62939453125E-06 0.00000000000E+00  1.
        5    1    4    4  502    0  1.14871943534E+01 -3.93856824778E+01  1.26789333043E+02  1.33346485112E+02  4.75000000000E+00 0.00000000000E+00  1.
       24    2    4    4    0    0 -7.26568493194E+01 -3.65250576345E+01  2.54918952386E+01  1.16939982669E+02  8.00751224507E+01 0.00000000000E+00  1.
      -11    1    7    7    0    0 -5.93412392371E+01  7.31049500609E-01  4.33896900767E+01  7.35158643612E+01  5.11003937192E-04 0.00000000000E+00  1.
       12    1    7    7    0    0 -1.33156100824E+01 -3.72561071351E+01 -1.78977948381E+01  4.34241183076E+01  1.59936044991E-06 0.00000000000E+00  1.
</event>
<event>
 9 112   1.0000000E+00   3.1250000E+01   7.8125000E-03   1.5660620E-01
       -1   -1    0    0    0  501  0.00000000000E+00  0.00000000000E+00  4.75857233030E+02  4.75857233030E+02  0.00000000000E+00 0.00000000000E+00  1.
        2   -1    0    0  501    0  0.00000000000E+00  0.00000000000E+00 -3.13997398565E+02  3.13997398565E+02  0.00000000000E+00 0.00000000000E+00  1.
       25    1    1    2    0    0  9.60924505384E+01 -6.50713709401E+01 -2.28325651039E+01  1.72088257577E+02  1.25000000000E+02 0.00000000000E+00  1.
        6    2    1    2  502    0 -1.79092605555E+02 -1.35934098933E+02 -6.02787715497E+01  2.90194856131E+02  1.73283823851E+02 0.00000000000E+00  1.
       -5    1    1    2    0  502  8.30001550164E+01  2.01005469873E+02  2.44971171118E+02  3.27571517887E+02  4.67203091199E-06 0.00000000000E+00  1.
        5    1    4    4  502    0 -1.40354707319E+02 -1.17083839645E+02 -5.89743607970E+00  1.82935539535E+02  4.75000000000E+00 0.00000000000E+00  1.
       24    2    4    4    0    0 -3.87378982360E+01 -1.88502592884E+01 -5.43813354700E+01  1.07259316597E+02  8.18002097452E+01 0.00000000000E+00  1.
       -3    1    7    7    0  703 -2.95277260606E+01 -3.28812860787E+01  5.99069736152E+00  4.45976909198E+01  4.61695593143E-07 0.00000000000E+00  1.
        2    1    7    7  703    0 -9.21017217535E+00  1.40310267903E+01 -6.03720328315E+01  6.26616256771E+01  0.00000000000E+00 0.00000000000E+00  1.
</event>
<event>
 9 112   1.0000000E+00   3.1250000E+01   7.8125000E-03   1.5660620E-01
       -1   -1    0    0    0  501  0.00000000000E+00  0.00000000000E+00  1.27656658346E+02  1.27656658346E+02  0.00000000000E+00 0.00000000000E+00  1.
        2   -1    0    0  501    0  0.00000000000E+00  0.00000000000E+00 -1.03184441753E+03  1.03184441753E+03  0.00000000000E+00 0.00000000000E+00  1.
       25    1    1    2    0    0  2.27890394225E+02  1.45621659930E+02 -4.59678022423E+02  5.47785162194E+02  1.25000000000E+02 0.00000000000E+00  1.
        6    2    1    2  502    0 -1.11103906594E+02  2.38857283027E+01 -2.76978677474E+02  3.46313400160E+02  1.74072333465E+02 0.00000000000E+00  1.
       -5    1    1    2    0  502 -1.16786487630E+02 -1.69507388232E+02 -1.67531059287E+02  2.65402513523E+02  3.81469726562E-06 0.00000000000E+00  1.
        5    1    4    4  502    0 -9.03214844473E+01  2.17573773105E+01 -5.32081905353E+01  1.07168223183E+02  4.75000000000E+00 0.00000000000E+00  1.
       24    2    4    4    0    0 -2.07824221469E+01  2.12835099217E+00 -2.23770486939E+02  2.39145176976E+02  8.17358299528E+01 0.00000000000E+00  1.
      -13    1    7    7    0    0 -4.71407282483E+00 -3.12600434252E+01 -3.66930528322E+01  4.84335017083E+01  1.05660000044E-01 0.00000000000E+00  1.
       14    1    7    7    0    0 -1.60683493220E+01  3.33883944174E+01 -1.87077434106E+02  1.90711675268E+02  2.69739830470E-06 0.00000000000E+00  1.
</event>
<event>
 9 112   1.0000000E+00   3.1250000E+01   7.8125000E-03   1.5660620E-01
        2   -1    0    0  501    0  0.00000000000E+00  0.00000000000E+00  5.31720757945E+02  5.31720757945E+02  0.00000000000E+00 0.00000000000E+00  1.
       -1   -1    0    0    0  501  0.00000000000E+00  0.00000000000E+00 -2.10139774165E+02  2.10139774165E+02  0.00000000000E+00 0.00000000000E+00  1.
       25    1    1    2    0    0 -3.02068384122E+01 -6.11299339482E+01  3.53766269506E+02  3.81346162104E+02  1.25000000000E+02 0.00000000000E+00  1.
        6    2    1    2  502    0 -1.02605466928E+02  1.73519308624E+01  3.71842599455E+01  2.04412621551E+02  1.71967669384E+02 0.00000000000E+00  1.
       -5    1    1    2    0  502  1.32812305340E+02  4.37780030858E+01 -6.93695456713E+01  1.56101748455E+02  4.57366134959E-06 0.00000000000E+00  1.
        5    1    4    4  502    0 -1.09771658541E+02 -1.25345680942E+01  3.89399698204E+01  1.17242552709E+02  4.75000000000E+00 0.00000000000E+00  1.
       24    2    4    4    0    0  7.16619161262E+00  2.98864989566E+01 -1.75570987492E+00  8.71700688419E+01  8.15535484367E+01 0.00000000000E+00  1.
       -1    1    7    7    0  703 -1.22188236339E+00  5.65643986541E+01 -1.11558910317E+01  5.76669584452E+01  8.08516738787E-07 0.00000000000E+00  1.
        4    1    7    7  703    0  8.38807397601E+00 -2.66778996975E+01  9.40018115675E+00  2.95031103967E+01  1.22733475458E-06 0.00000000000E+00  1.
</event>
<event>
 9 112   1.0000000E+00   3.1250000E+01   7.8125000E-03   1.5660620E-01
       -1   -1    0    0    0  501  0.00000000000E+00  0.00000000000E+00  6.67867468969E+01  6.67867468969E+01  0.00000000000E+00 0.00000000000E+00  1.
        2   -1    0    0  501    0  0.00000000000E+00  0.00000000000E+00 -7.89659983751E+02  7.89659983751E+02  0.00000000000E+00 0.00000000000E+00  1.
       25    1    1    2    0    0 -6.52147678206E+01  1.32684248999E+02 -2.55321682693E+02  3.20425088792E+02  1.25000000000E+02 0.00000000000E+00  1.
        6    2    1    2  502    0  6.33048726941E+01 -7.77947065313E+01 -4.20776615041E+02  4.63880083088E+02  1.67547749760E+02 0.00000000000E+00  1.
       -5    1    1    2    0  502  1.90989512650E+00 -5.48895424677E+01 -4.67749391203E+01  7.21415587675E+01  1.65181236989E-06 0.00000000000E+00  1.
        5    1    4    4  502    0  5.07107991728E+01 -9.87158832884E+01 -2.36666442829E+02  2.61438287990E+02  4.75000000000E+00 0.00000000000E+00  1.
       24    2    4    4    0    0  1.25940735213E+01  2.09211767572E+01 -1.84110172213E+02  2.02441795098E+02  8.05594101623E+01 0.00000000000E+00  1.
       -1    1    7    7    0  703 -2.31128164302E+01 -1.28284377671E+01 -2.68242102129E+01  3.76604481177E+01  8.25906184945E-07 0.00000000000E+00  1.
        2    1    7    7  703    0  3.57068899516E+01  3.37496145243E+01 -1.57285962000E+02  1.64781346981E+02  0.00000000000E+00 0.00000000000E+00  1.
</event>
<event>
 9 112   1.0000000E+00   3.1250000E+01   7.8125000E-03   1.5660620E-01
       -1   -1    0    0    0  501  0.00000000000E+00  0.00000000000E+00  2.43023581562E+02  2.43023581562E+02  0.00000000000E+00 0.00000000000E+00  1.
        2   -1    0    0  501    0  0.00000000000E+00  0.00000000000E+00 -7.40739408079E+02  7.40739408079E+02  0.00000000000E+00 0.00000000000E+00  1.
       25    1    1    2    0    0  1.81076216991E+02 -9.19726828073E+01 -4.04056637335E+02  4.69184757763E+02  1.25000000000E+02 0.00000000000E+00  1.
        6    2    1    2  502    0 -1.29213334810E+02 -5.28867660277E+01 -2.22228581786E+02  3.14068613208E+02  1.72512188922E+02 0.00000000000E+00  1.
       -5    1    1    2    0  502 -5.18628821812E+01  1.44859448835E+02  1.28569392603E+02  2.00509618670E+02  6.03156597170E-06 0.00000000000E+00  1.
        5    1    4    4  502    0 -6.08363287340E+01 -8.93135684719E+01 -8.81907865247E+01  1.39564142010E+02  4.75000000000E+00 0.00000000000E+00  1.
       24    2    4    4    0    0 -6.83770060761E+01  3.64268024442E+01 -1.34037795261E+02  1.74504471199E+02  8.05192710707E+01 0.00000000000E+00  1.
       -1    1    7    7    0  703 -6.37796443149E+01  5.36117705088E+01 -7.24966413784E+01  1.10443777449E+02  1.65181236989E-06 0.00000000000E+00  1.
        2    1    7    7  703    0 -4.59736176124E+00 -1.71849680647E+01 -6.15411538825E+01  6.40606937501E+01  1.34869915235E-06 0.00000000000E+00  1.
</event>
<event>
 9 112   1.0000000E+00   3.1250000E+01   7.8125000E-03   1.5660620E-01
       -1   -1    0    0    0  501  0.00000000000E+00  0.00000000000E+00  6.24283379518E+02  6.24283379518E+02  0.00000000000E+00 0.00000000000E+00  1.
        2   -1    0    0  501    0  0.00000000000E+00  0.00000000000E+00 -1.81744857903E+02  1.81744857903E+02  0.00000000000E+00 0.00000000000E+00  1.
       25    1    1    2    0    0 -3.19145590415E+01 -1.55428671314E+02  8.59687457828E+01  2.19527301711E+02  1.25000000000E+02 0.00000000000E+00  1.
        6    2    1    2  502    0 -1.04807908394E+02 -4.44179490536E+01  2.44636176684E+02  3.19741052308E+02  1.71551245197E+02 0.00000000000E+00  1.
       -5    1    1    2    0  502  1.36722467436E+02  1.99846620367E+02  1.11933599149E+02  2.66759883401E+02  6.60724947956E-06 0.00000000000E+00  1.
        5    1    4    4  502    0 -5.97088671152E+01 -2.01933323901E+01  7.21703460776E+00  6.36204964907E+01  4.75000000000E+00 0.00000000000E+00  1.
       24    2    4    4    0    0 -4.50990412792E+01 -2.42246166634E+01  2.37419142076E+02  2.56120555817E+02  8.12965836389E+01 0.00000000000E+00  1.
       -3    1    7    7    0  703 -2.71162455550E+00  2.81880659370E+01  6.06569028055E+01  6.69416150608E+01  3.01578298585E-06 0.00000000000E+00  1.
        4    1    7    7  703    0 -4.23874167237E+01 -5.24126826004E+01  1.76762239270E+02  1.89178940757E+02  0.00000000000E+00 0.00000000000E+00  1.
</event>
<event>
 9 112   1.0000000E+00   3.1250000E+01   7.8125000E-03   1.5660620E-01
        2   -1    0    0  501    0  0.00000000000E+00  0.00000000000E+00  1.20747837782E+02  1.20747837782E+02  0.00000000000E+00 0.00000000000E+00  1.
       -1   -1    0    0    0  501  0.00000000000E+00  0.00000000000E+00 -6.43789628909E+02  6.43789628909E+02  0.00000000000E+00 0.00000000000E+00  1.
       25    1    1    2    0    0 -8.21109984936E+01 -1.57987349056E+02 -1.63312330940E+02  2.72025984002E+02  1.25000000000E+02 0.00000000000E+00  1.
        6    2    1    2  502    0  5.85892752478E+01  2.09149364700E+02 -2.93905546826E+02  4.05888097397E+02  1.76602710129E+02 0.00000000000E+00  1.
       -5    1    1    2    0  502  2.35217232458E+01 -5.11620156439E+01 -6.58239133609E+01  8.66233852914E+01  3.56832255056E-06 0.00000000000E+00  1.
        5    1    4    4  502    0  1.94064774382E+01  1.86229535836E+02 -1.90802540211E+02  2.67369076812E+02  4.75000000000E+00 0.00000000000E+00  1.
       24    2    4    4    0    0  3.91827978096E+01  2.29198288642E+01 -1.03103006615E+02  1.38519020585E+02  8.06019782108E+01 0.00000000000E+00  1.
      -15    1    7    7    0    0  1.56032602831E+01  4.81908688144E+01 -8.63104919245E+01  1.00092355368E+02  1.77680000000E+00 0.00000000000E+00  1.
       16    1    7    7    0    0  2.35795375264E+01 -2.52710399502E+01 -1.67925146908E+01  3.84266652178E+01  0.00000000000E+00 0.00000000000E+00  1.
</event>
<event>
 9 112   1.0000000E+00   3.1250000E+01   7.8125000E-03   1.5660620E-01
        2   -1    0    0  501    0  0.00000000000E+00  0.00000000000E+00  2.37607100915E+03  2.37607100915E+03  0.00000000000E+00 0.00000000000E+00  1.
       -1   -1    0    0    0  501  0.00000000000E+00  0.00000000000E+00 -4.83510548522E+01  4.83510548522E+01  0.00000000000E+00 0.00000000000E+00  1.
       25    1    1    2    0    0  1.57080485363E+02  6.60387601942E+01  4.94920265584E+02  5.38150969539E+02  1.25000000000E+02 0.00000000000E+00  1.
        6    2    1    2  502    0 -9.30768065373E+01 -5.65788489567E+01  1.80351732209E+03  1.81525406961E+03  1.74951845075E+02 0.00000000000E+00  1.
       -5    1    1    2    0  502 -6.40036788262E+01 -9.45991123744E+00  2.92823666249E+01  7.10170248536E+01  2.19241408016E-05 0.00000000000E+00  1.
        5    1    4    4  502    0 -3.05827396648E+01 -7.72203644538E+01  1.20193854552E+03  1.20481414267E+03  4.75000000007E+00 0.00000000000E+00  1.
       24    2    4    4    0    0 -6.24940668725E+01  2.06415154970E+01  6.01578776563E+02  6.10439926942E+02  8.00518546772E+01 0.00000000000E+00  1.
       -3    1    7    7    0  703 -4.97761267372E+01 -1.80078485020E+01  4.62863905012E+02  4.65880821631E+02  9.34406182397E-06 0.00000000000E+00  1.
        4    1    7    7  703    0 -1.27179401353E+01  3.86493639990E+01  1.38714871551E+02  1.44559105311E+02  6.60724947956E-06 0.00000000000E+00  1.
</event>
<event>
 9 112   1.0000000E+00   3.1250000E+01   7.8125000E-03   1.5660620E-01
        2   -1    0    0  501    0  0.00000000000E+00  0.00000000000E+00  3.44629383567E+02  3.44629383567E+02  0.00000000000E+00 0.00000000000E+00  1.
       -1   -1    0    0    0  501  0.00000000000E+00  0.00000000000E+00 -1.27551864166E+03  1.27551864166E+03  0.00000000000E+00 0.00000000000E+00  1.
       25    1    1    2    0    0 -4.29183844054E+01 -2.70064578101E+02  1.83029343525E+02  3.51996597506E+02  1.25000000000E+02 0.00000000000E+00  1.
        6    2    1    2  502    0 -3.85533906353E-01 -1.23079959503E+02 -3.81994497028E+02  4.36195448313E+02  1.70873778861E+02 0.00000000000E+00  1.
       -5    1    1    2    0  502  4.33039183117E+01  3.93144537604E+02 -7.31924104588E+02  8.31955979404E+02  0.00000000000E+00 0.00000000000E+00  1.
        5    1    4    4  502    0  6.44362288267E+01 -5.39347554316E+01 -1.28917225612E+02  1.53958432664E+02  4.75000000000E+00 0.00000000000E+00  1.
       24    2    4    4    0    0 -6.48217627331E+01 -6.91452040710E+01 -2.53077271415E+02  2.82237015649E+02  8.14045915509E+01 0.00000000000E+00  1.
       -1    1    7    7    0  703 -6.18986876735E+01 -2.32506162868E+01 -8.33615850597E+01  1.06401092838E+02  1.65181236989E-06 0.00000000000E+00  1.
        2    1    7    7  703    0 -2.92307505954E+00 -4.58945877843E+01 -1.69715686356E+02  1.75835922811E+02  1.90734863281E-06 0.00000000000E+00  1.
</event>
<event>
 9 112   1.0000000E+00   3.1250000E+01   7.8125000E-03   1.5660620E-01
        2   -1    0    0  501    0  0.00000000000E+00  0.00000000000E+00  6.71801797930E+02  6.71801797930E+02  0.00000000000E+00 0.00000000000E+00  1.
       -1   -1    0    0    0  501  0.00000000000E+00  0.00000000000E+00 -9.91464978889E+01  9.91464978889E+01  0.00000000000E+00 0.00000000000E+00  1.
       25    1    1    2    0    0  3.40778691294E+01 -1.31756708987E+01  1.75145133994E+02  2.18256082229E+02  1.25000000000E+02 0.00000000000E+00  1.
        6    2    1    2  502    0  1.02542021381E+02  9.93086413843E+01  2.13250090630E+02  3.07670462555E+02  1.69730492171E+02 0.00000000000E+00  1.
       -5    1    1    2    0  502 -1.36619890511E+02 -8.61329704856E+01  1.84260075417E+02  2.45021751035E+02  3.81469726562E-06 0.00000000000E+00  1.
        5    1    4    4  502    0 -2.99549445553E+01  4.63451976656E+01  3.44915117448E+01  6.52487772484E+01  4.75000000000E+00 0.00000000000E+00  1.
       24    2    4    4    0    0  1.32496965936E+02  5.29634437187E+01  1.78758578885E+02  2.42421685307E+02  8.03310128707E+01 0.00000000000E+00  1.
       -3    1    7    7    0  703  1.12468211068E+02  6.41835023943E+01  1.77116410387E+02  2.19405659245E+02  2.69739830470E-06 0.00000000000E+00  1.
        4    1    7    7  703    0  2.00287548687E+01 -1.12200586756E+01  1.64216849804E+00  2.30160260612E+01  3.72546910810E-06 0.00000000000E+00  1.
</event>
<event>
 9 112   1.0000000E+00   3.1250000E+01   7.8125000E-03   1.5660620E-01
        2   -1    0    0  501    0  0.00000000000E+00  0.00000000000E+00  8.41983722183E+02  8.41983722183E+02  0.00000000000E+00 0.00000000000E+00  1.
       -1   -1    0    0    0  501  0.00000000000E+00  0.00000000000E+00 -1.65664786617E+02  1.65664786617E+02  0.00000000000E+00 0.00000000000E+00  1.
       25    1    1    2    0    0  9.87220033942E+01 -1.01010750286E+02  3.64994904764E+02  4.10847278354E+02  1.25000000000E+02 0.00000000000E+00  1.
        6    2    1    2  502    0  9.37479322978E+01 -1.07850296691E+02  1.32608931393E+02  2.61232012777E+02  1.73886958994E+02 0.00000000000E+00  1.
       -5    1    1    2    0  502 -1.92469935692E+02  2.08861046977E+02  1.78715099409E+02  3.35569217668E+02  8.74056948653E-06 0.00000000000E+00  1.
        5    1    4    4  502    0 -1.80411459158E+01 -6.45410420184E+01  2.84299314817E+00  6.72433949233E+01  4.75000000000E+00 0.00000000000E+00  1.
       24    2    4    4    0    0  1.11789078214E+02 -4.33092546725E+01  1.29765938245E+02  1.93988617854E+02  8.01242508874E+01 0.00000000000E+00  1.
      -15    1    7    7    0    0  2.18435069660E+01  1.68634302827E+01  5.76637451309E+01  6.39513768283E+01  1.77680000000E+00 0.00000000000E+00  1.
       16    1    7    7    0    0  8.99455712476E+01 -6.01726849553E+01  7.21021931139E+01  1.30037241026E+02  1.90734863281E-06 0.00000000000E+00  1.
</event>
<event>
 9 112   1.0000000E+00   3.1250000E+01   7.8125000E-03   1.5660620E-01
        2   -1    0    0  501    0  0.00000000000E+00  0.00000000000E+00  2.74710408161E+03  2.74710408161E+03  0.00000000000E+00 0.00000000000E+00  1.
       -1   -1    0    0    0  501  0.00000000000E+00  0.00000000000E+00 -6.30389926922E+01  6.30389926922E+01  0.00000000000E+00 0.00000000000E+00  1.
       25    1    1    2    0    0  6.14288091968E+01  5.24354851318E+01  9.46076853423E+02  9.57710494504E+02  1.25000000000E+02 0.00000000000E+00  1.
        6    2    1    2  502    0  2.17486585306E+02  1.01891395962E+02  5.78960335374E+02  6.50369246701E+02  1.73501630420E+02 0.00000000000E+00  1.
       -5    1    1    2    0  502 -2.78915394503E+02 -1.54326881094E+02  1.15902790012E+03  1.20206333310E+03  1.52587890625E-05 0.00000000000E+00  1.
        5    1    4    4  502    0 -9.59017059197E+00  4.01838387612E+01  4.59340492384E+01  6.19613722331E+01  4.75000000001E+00 0.00000000000E+00  1.
       24    2    4    4    0    0  2.27076755898E+02  6.17075572010E+01  5.33026286136E+02  5.88407874468E+02  8.20678337659E+01 0.00000000000E+00  1.
       -1    1    7    7    0  703  7.69627363441E+01  4.26073810256E+01  1.21982082877E+02  1.50393750689E+02  2.33601545599E-06 0.00000000000E+00  1.
        2    1    7    7  703    0  1.50114019554E+02  1.91001761755E+01  4.11044203259E+02  4.38014123779E+02  0.00000000000E+00 0.00000000000E+00  1.
</event>
<event>
 9 112   1.0000000E+00   3.1250000E+01   7.8125000E-03   1.5660620E-01
        2   -1    0    0  501    0  0.00000000000E+00  0.00000000000E+00  2.14061259437E+02  2.14061259437E+02  0.00000000000E+00 0.00000000000E+00  1.
       -1   -1    0    0    0  501  0.00000000000E+00  0.00000000000E+00 -1.26831437836E+03  1.26831437836E+03  0.00000000000E+00 0.00000000000E+00  1.
       25    1    1    2    0    0  2.07185400445E+01 -6.74405162602E+01 -8.45718237773E+00  1.43784578689E+02  1.25000000000E+02 0.00000000000E+00  1.
        6    2    1    2  502    0  1.33174357187E+02 -2.70692197553E+02 -1.72113469581E+02  3.89202935604E+02  1.75630872693E+02 0.00000000000E+00  1.
       -5    1    1    2    0  502 -1.53892897232E+02  3.38132713814E+02 -8.73682466967E+02  9.49388123506E+02  1.86881236479E-05 0.00000000000E+00  1.
        5    1    4    4  502    0  6.10460221756E+01 -1.85507190495E+02 -4.96373874961E+01  2.01558843235E+02  4.75000000000E+00 0.00000000000E+00  1.
       24    2    4    4    0    0  7.21283350117E+01 -8.51850070584E+01 -1.22476082085E+02  1.87644092369E+02  8.80393808419E+01 0.00000000000E+00  1.
      -11    1    7    7    0    0  1.78008165587E+01 -5.20556150459E+01 -1.09728543825E+02  1.22747747263E+02  5.10998597706E-04 0.00000000000E+00  1.
       12    1    7    7    0    0  5.43275184530E+01 -3.31293920125E+01 -1.27475382595E+01  6.48963451055E+01  1.45024359949E-06 0.00000000000E+00  1.
</event>
<event>
 9 112   1.0000000E+00   3.1250000E+01   7.8125000E-03   1.5660620E-01
        2   -1    0    0  501    0  0.00000000000E+00  0.00000000000E+00  8.74095483576E+02  8.74095483576E+02  0.00000000000E+00 0.00000000000E+00  1.
       -1   -1    0    0    0  501  0.00000000000E+00  0.00000000000E+00 -5.25529065930E+02  5.25529065930E+02  0.00000000000E+00 0.00000000000E+00  1.
       25    1    1    2    0    0 -1.74869583760E+02 -7.90246127752E+01 -1.98117441704E+01  2.29873369392E+02  1.25000000000E+02 0.00000000000E+00  1.
        6    2    1    2  502    0 -9.16273591739E+01  5.32565423998E+02  2.92405863119E+02  6.38251718020E+02  1.72750001395E+02 0.00000000000E+00  1.
       -5    1    1    2    0  502  2.66496942934E+02 -4.53540811223E+02  7.59722986975E+01  5.31499462095E+02  2.17471203823E-05 0.00000000000E+00  1.
        5    1    4    4  502    0 -4.02842463987E+01  4.10137417020E+02  2.05844189112E+02  4.60684180365E+02  4.75000000001E+00 0.00000000000E+00  1.
       24    2    4    4    0    0 -5.13431127752E+01  1.22428006978E+02  8.65616740070E+01  1.77567537655E+02  8.00785545562E+01 0.00000000000E+00  1.
      -15    1    7    7    0    0 -5.32138964678E+01  1.00071563438E+02  3.08032637274E+01  1.17465035907E+02  1.77680000000E+00 0.00000000000E+00  1.
       16    1    7    7    0    0  1.87078369261E+00  2.23564435399E+01  5.57584102796E+01  6.01025017473E+01  1.65181236989E-06 0.00000000000E+00  1.
</event>
<event>
 9 112   1.0000000E+00   3.1250000E+01   7.8125000E-03   1.5660620E-01
        2   -1    0    0  501    0  0.00000000000E+00  0.00000000000E+00  8.47654301898E+01  8.47654301898E+01  0.00000000000E+00 0.00000000000E+00  1.
       -1   -1    0    0    0  501  0.00000000000E+00  0.00000000000E+00 -3.84182138343E+02  3.84182138343E+02  0.00000000000E+00 0.00000000000E+00  1.
       25    1    1    2    0    0 -4.04413810512E+01  8.69947543891E-01 -1.30511565818E+02  1.85187826064E+02  1.25000000000E+02 0.00000000000E+00  1.
        6    2    1    2  502    0  2.82395359040E+01 -5.47582906584E+00 -7.78386741792E+01  1.91764086093E+02  1.72879002268E+02 0.00000000000E+00  1.
       -5    1    1    2    0  502  1.22018451472E+01  4.60588152195E+00 -9.10664681568E+01  9.19956563765E+01  1.34869915235E-06 0.00000000000E+00  1.
        5    1    4    4  502    0  2.97138330532E+01  5.20573053311E+01 -6.97919936487E+01  9.21214404496E+01  4.75000000000E+00 0.00000000000E+00  1.
       24    2    4    4    0    0 -1.47429714922E+00 -5.75331343970E+01 -8.04668053052E+00  9.96426456433E+01  8.09424033348E+01 0.00000000000E+00  1.
       -1    1    7    7    0  703  2.94277955944E+01 -5.97447630200E+01  3.21906578001E+00  6.66767894125E+01  1.62634416218E-06 0.00000000000E+00  1.
        2    1    7    7  703    0 -3.09020927436E+01  2.21162862301E+00 -1.12657463105E+01  3.29658562308E+01  1.05955534188E-06 0.00000000000E+00  1.
</event>
<event>
 9 112   1.0000000E+00   3.1250000E+01   7.8125000E-03   1.5660620E-01
        2   -1    0    0  501    0  0.00000000000E+00  0.00000000000E+00  6.54459137927E+02  6.54459137927E+02  0.00000000000E+00 0.00000000000E+00  1.
       -1   -1    0    0    0  501  0.00000000000E+00  0.00000000000E+00 -2.67969320998E+02  2.67969320998E+02  0.00000000000E+00 0.00000000000E+00  1.
       25    1    1    2    0    0  1.18560239416E+02 -4.34704356587E+01  2.55782576388E+02  3.11441704867E+02  1.25000000000E+02 0.00000000000E+00  1.
        6    2    1    2  502    0 -7.70614462461E+01 -2.42603866287E+02  5.82199017749E+01  3.12968180225E+02  1.72523686593E+02 0.00000000000E+00  1.
       -5    1    1    2    0  502 -4.14987931699E+01  2.86074301945E+02  7.24873387670E+01  2.98018573833E+02  8.58306884766E-06 0.00000000000E+00  1.
        5    1    4    4  502    0 -9.34762381432E+01 -7.89869006121E+01  4.18433070253E+01  1.29422418493E+02  4.75000000000E+00 0.00000000000E+00  1.
       24    2    4    4    0    0  1.64147918971E+01 -1.63616965674E+02  1.63765947497E+01  1.83545761732E+02  7.98805166773E+01 0.00000000000E+00  1.
       -3    1    7    7    0  703  2.08001655987E+01 -1.68718017937E+01 -1.86229123053E+01  3.26208131019E+01  7.53945746462E-07 0.00000000000E+00  1.
        4    1    7    7  703    0 -4.38537370154E+00 -1.46745163881E+02  3.49995070550E+01  1.50924948630E+02  1.26159253648E-06 0.00000000000E+00  1.
</event>
<event>
 9 112   1.0000000E+00   3.1250000E+01   7.8125000E-03   1.5660620E-01
        2   -1    0    0  501    0  0.00000000000E+00  0.00000000000E+00  2.91373855446E+02  2.91373855446E+02  0.00000000000E+00 0.00000000000E+00  1.
       -1   -1    0    0    0  501  0.00000000000E+00  0.00000000000E+00 -4.95746989619E+02  4.95746989619E+02  0.00000000000E+00 0.00000000000E+00  1.
       25    1    1    2    0    0 -1.81121790263E+02  2.13345792570E+01  7.02604230223E+01  2.31995246122E+02  1.25000000000E+02 0.00000000000E+00  1.
        6    2    1    2  502    0  4.97663263925E+01  3.32243433359E+01  5.87843239816E+01  1.92636402674E+02  1.73414655253E+02 0.00000000000E+00  1.
       -5    1    1    2    0  502  1.31355463870E+02 -5.45589225929E+01 -3.33417881177E+02  3.62489196269E+02  3.81469726562E-06 0.00000000000E+00  1.
        5    1    4    4  502    0  7.56844887158E+01 -1.11665714590E+01  3.60920778267E+00  7.67360608263E+01  4.75000000000E+00 0.00000000000E+00  1.
       24    2    4    4    0    0 -2.59181623233E+01  4.43909147949E+01  5.51751161989E+01  1.15900341848E+02  8.80130180049E+01 0.00000000000E+00  1.
       -3    1    7    7    0  703 -3.83571863815E+01 -1.19902559004E+01  3.88587896167E+01  5.59021065268E+01  6.74349576174E-07 0.00000000000E+00  1.
        4    1    7    7  703    0  1.24390240582E+01  5.63811706953E+01  1.63163265822E+01  5.99982353210E+01  1.21570098724E-06 0.00000000000E+00  1.
</event>
<event>
 9 112   1.0000000E+00   3.1250000E+01   7.8125000E-03   1.5660620E-01
        2   -1    0    0  501    0  0.00000000000E+00  0.00000000000E+00  1.60437900705E+03  1.60437900705E+03  0.00000000000E+00 0.00000000000E+00  1.
       -1   -1    0    0    0  501  0.00000000000E+00  0.00000000000E+00 -4.19795012040E+01  4.19795012040E+01  0.00000000000E+00 0.00000000000E+00  1.
       25    1    1    2    0    0 -8.18125700453E+01 -6.43992138507E+01  7.78478002826E+02  7.95294634865E+02  1.25000000000E+02 0.00000000000E+00  1.
        6    2    1    2  502    0  1.09043595794E+02  4.21582174690E-01  7.41995951234E+02  7.69870166668E+02  1.73929291272E+02 0.00000000000E+00  1.
       -5    1    1    2    0  502 -2.72310257483E+01  6.39776316760E+01  4.19255517819E+01  8.11937067166E+01  1.26159253648E-06 0.00000000000E+00  1.
        5    1    4    4  502    0  4.68421973205E+01  2.30585323979E+01  5.38191854149E+02  5.40739236359E+02  4.75000000000E+00 0.00000000000E+00  1.
       24    2    4    4    0    0  6.22013984731E+01 -2.26369502232E+01  2.03804097085E+02  2.29130930309E+02  8.11383247792E+01 0.00000000000E+00  1.
       -1    1    7    7    0  703  4.08615528774E+01  2.60738708305E+01  6.99823306725E+01  8.51295474556E+01  9.53674316406E-07 0.00000000000E+00  1.
        2    1    7    7  703    0  2.13398455957E+01 -4.87108210537E+01  1.33821766413E+02  1.44001382853E+02  0.00000000000E+00 0.00000000000E+00  1.
</event>
<event>
 9 112   1.0000000E+00   3.1250000E+01   7.8125000E-03   1.5660620E-01
        2   -1    0    0  501    0  0.00000000000E+00  0.00000000000E+00  1.06298926036E+02  1.06298926036E+02  0.00000000000E+00 0.00000000000E+00  1.
       -1   -1    0    0    0  501  0.00000000000E+00  0.00000000000E+00 -6.86367729159E+02  6.86367729159E+02  0.00000000000E+00 0.00000000000E+00  1.
       25    1    1    2    0    0  1.19040709647E+01  1.08989551086E+02 -8.89964496504E+01  1.88588963627E+02  1.25000000000E+02 0.00000000000E+00  1.
        6    2    1    2  502    0 -1.07375025993E+02 -2.72083186362E+01 -2.01263407944E+02  2.88178818282E+02  1.73983858789E+02 0.00000000000E+00  1.
       -5    1    1    2    0  502  9.54709550281E+01 -8.17812324503E+01 -2.89808945529E+02  3.15898873286E+02  6.60724947956E-06 0.00000000000E+00  1.
        5    1    4    4  502    0 -1.08127112876E+02  2.53356057356E+01 -1.12399797695E+02  1.58081126257E+02  4.75000000000E+00 0.00000000000E+00  1.
       24    2    4    4    0    0  7.52086883266E-01 -5.25439243718E+01 -8.88636102494E+01  1.30097692025E+02  7.91658930379E+01 0.00000000000E+00  1.
       -1    1    7    7    0  703  2.92496928962E+01 -2.69384746741E+01 -8.20599998195E+01  9.11870030359E+01  9.53674316406E-07 0.00000000000E+00  1.
        2    1    7    7  703    0 -2.84976060130E+01 -2.56054496977E+01 -6.80361042992E+00  3.89106889887E+01  1.54282797641E-06 0.00000000000E+00  1.
</event>
<event>
 9 112   1.0000000E+00   3.1250000E+01   7.8125000E-03   1.5660620E-01
        2   -1    0    0  501    0  0.00000000000E+00  0.00000000000E+00  4.37439851728E+02  4.37439851728E+02  0.00000000000E+00 0.00000000000E+00  1.
       -1   -1    0    0    0  501  0.00000000000E+00  0.00000000000E+00 -1.69825849827E+02  1.69825849827E+02  0.00000000000E+00 0.00000000000E+00  1.
       25    1    1    2    0    0 -1.07594795655E+02  6.10696453262E+01  1.53003836571E+02  2.33112238284E+02  1.25000000000E+02 0.00000000000E+00  1.
        6    2    1    2  502    0  1.96240738181E+01  4.48335036333E+01  1.47344587527E+02  2.32640682023E+02  1.73251586248E+02 0.00000000000E+00  1.
       -5    1    1    2    0  502  8.79707218369E+01 -1.05903148959E+02 -3.27344221962E+01  1.41512781248E+02  1.34869915235E-06 0.00000000000E+00  1.
        5    1    4    4  502    0  2.00246048229E+01  6.37756643858E+01  1.33608753817E+02  1.49473013493E+02  4.75000000000E+00 0.00000000000E+00  1.
       24    2    4    4    0    0 -4.00531004797E-01 -1.89421607525E+01  1.37358337100E+01  8.31676685299E+01  7.98074061847E+01 0.00000000000E+00  1.
      -13    1    7    7    0    0 -2.88252653667E+01  1.87123267787E+01  1.02400005581E+01  3.58596691619E+01  1.05659999997E-01 0.00000000000E+00  1.
       14    1    7    7    0    0  2.84247343619E+01 -3.76544875311E+01  3.49583315193E+00  4.73079993680E+01  1.07371112911E-06 0.00000000000E+00  1.
</event>
<event>
 9 112   1.0000000E+00   3.1250000E+01   7.8125000E-03   1.5660620E-01
        2   -1    0    0  501    0  0.00000000000E+00  0.00000000000E+00  1.56283471308E+03  1.56283471308E+03  0.00000000000E+00 0.00000000000E+00  1.
       -1   -1    0    0    0  501  0.00000000000E+00  0.00000000000E+00 -2.54330744493E+02  2.54330744493E+02  0.00000000000E+00 0.00000000000E+00  1.
       25    1    1    2    0    0 -1.92050910715E+01  3.62355617310E+02  3.69869464159E+02  5.33009239541E+02  1.25000000000E+02 0.00000000000E+00  1.
        6    2    1    2  502    0  4.16844659273E+00  2.26789616509E+02  3.46977583836E+02  4.49065732579E+02  1.72672181863E+02 0.00000000000E+00  1.
       -5    1    1    2    0  502  1.50366444788E+01 -5.89145233819E+02  5.91656920590E+02  8.35090485451E+02  1.07895932188E-05 0.00000000000E+00  1.
        5    1    4    4  502    0  6.81230695593E+01  1.18652006876E+02  1.82276827955E+02  2.27961522743E+02  4.75000000000E+00 0.00000000000E+00  1.
       24    2    4    4    0    0 -6.39546229666E+01  1.08137609633E+02  1.64700755881E+02  2.21104209837E+02  7.73097419725E+01 0.00000000000E+00  1.
       -3    1    7    7    0  703 -4.79649349999E+01  6.21329543721E+01  1.51526007014E+02  1.70649552622E+02  1.90734863281E-06 0.00000000000E+00  1.
        4    1    7    7  703    0 -1.59896879667E+01  4.60046552610E+01  1.31747488672E+01  5.04546572149E+01  1.46971082758E-06 0.00000000000E+00  1.
</event>
<event>
 9 112   1.0000000E+00   3.1250000E+01   7.8125000E-03   1.5660620E-01
        2   -1    0    0  501    0  0.00000000000E+00  0.00000000000E+00  1.03784420172E+03  1.03784420172E+03  0.00000000000E+00 0.00000000000E+00  1.
       -1   -1    0    0    0  501  0.00000000000E+00  0.00000000000E+00 -5.07702700558E+01  5.07702700558E+01  0.00000000000E+00 0.00000000000E+00  1.
       25    1    1    2    0    0 -1.36091890401E+02 -7.15546662503E+01  4.70031455284E+02  5.10093757903E+02  1.25000000000E+02 0.00000000000E+00  1.
        6    2    1    2  502    0  9.41527592605E+01  6.74795998442E+01  4.60167674647E+02  5.07737665342E+02  1.80623945105E+02 0.00000000000E+00  1.
       -5    1    1    2    0  502  4.19391311405E+01  4.07506640605E+00  5.68748017284E+01  7.07830485263E+01  6.74349576174E-07 0.00000000000E+00  1.
        5    1    4    4  502    0 -5.69350200969E+00  4.57834114132E+01  2.29058856548E+01  5.17279307859E+01  4.75000000001E+00 0.00000000000E+00  1.
       24    2    4    4    0    0  9.98462612702E+01  2.16961884310E+01  4.37261788992E+02  4.56009734556E+02  7.94166570373E+01 0.00000000000E+00  1.
      -11    1    7    7    0    0  5.81474303354E-01  2.95091254428E+01  1.14118219248E+02  1.17873213927E+02  5.10977239204E-04 0.00000000000E+00  1.
       12    1    7    7    0    0  9.92647869669E+01 -7.81293701177E+00  3.23143569744E+02  3.38136520629E+02  5.39479660939E-06 0.00000000000E+00  1.
</event>
<event>
 9 112   1.0000000E+00   3.1250000E+01   7.8125000E-03   1.5660620E-01
        2   -1    0    0  501    0  0.00000000000E+00  0.00000000000E+00  1.12652010287E+03  1.12652010287E+03  0.00000000000E+00 0.00000000000E+00  1.
       -1   -1    0    0    0  501  0.00000000000E+00  0.00000000000E+00 -3.17215303071E+02  3.17215303071E+02  0.00000000000E+00 0.00000000000E+00  1.
       25    1    1    2    0    0  4.09374833693E+01 -1.22982522535E+02  9.55028721516E+02  9.71856695874E+02  1.25000000000E+02 0.00000000000E+00  1.
        6    2    1    2  502    0 -1.34802140814E+00  1.00593612903E+02  9.87467004609E+01  2.23213324702E+02  1.73067574531E+02 0.00000000000E+00  1.
       -5    1    1    2    0  502 -3.95894619612E+01  2.23889096328E+01 -2.44470622176E+02  2.48665385367E+02  3.81469726562E-06 0.00000000000E+00  1.
        5    1    4    4  502    0  1.24850586896E+01  5.39289192883E+01  1.13344801029E+02  1.26229202035E+02  4.75000000000E+00 0.00000000000E+00  1.
       24    2    4    4    0    0 -1.38330800978E+01  4.66646936143E+01 -1.45981005678E+01  9.69841226668E+01  8.26067053826E+01 0.00000000000E+00  1.
      -11    1    7    7    0    0 -1.63534110538E+01  7.02382546615E+01 -9.57279088175E+00  7.27494659534E+01  5.10999501529E-04 0.00000000000E+00  1.
       12    1    7    7    0    0  2.52033095609E+00 -2.35735610472E+01 -5.02530968607E+00  2.42346567134E+01  5.02237664054E-07 0.00000000000E+00  1.
</event>
<event>
 9 112   1.0000000E+00   3.1250000E+01   7.8125000E-03   1.5660620E-01
        2   -1    0    0  501    0  0.00000000000E+00  0.00000000000E+00  1.97001600080E+03  1.97001600080E+03  0.00000000000E+00 0.00000000000E+00  1.
       -1   -1    0    0    0  501  0.00000000000E+00  0.00000000000E+00 -7.57014662929E+01  7.57014662929E+01  0.00000000000E+00 0.00000000000E+00  1.
       25    1    1    2    0    0 -1.66834525319E+02  6.82948527727E+01  9.06497593424E+02  9.32663300788E+02  1.25000000000E+02 0.00000000000E+00  1.
        6    2    1    2  502    0 -1.19246713910E+02 -5.95026072968E+01  3.29653259143E+02  3.95350041164E+02  1.72829525056E+02 0.00000000000E+00  1.
       -5    1    1    2    0  502  2.86081239229E+02 -8.79224547596E+00  6.58163681937E+02  7.17704125138E+02  1.07895932188E-05 0.00000000000E+00  1.
        5    1    4    4  502    0  1.88781628679E+01 -5.60787337499E+01  9.93805460106E+01  1.15759512947E+02  4.75000000000E+00 0.00000000000E+00  1.
       24    2    4    4    0    0 -1.38124876778E+02 -3.42387354687E+00  2.30272713133E+02  2.79590528217E+02  7.78147579864E+01 0.00000000000E+00  1.
       -1    1    7    7    0  703 -1.89573762026E+01 -7.04904771757E+00 -6.64322142833E-02  2.02256174059E+01  3.94450063635E-06 0.00000000000E+00  1.
        2    1    7    7  703    0 -1.19167500575E+02  3.62517417070E+00  2.30339145347E+02  2.59364910811E+02  6.03156597170E-06 0.00000000000E+00  1.
</event>
<event>
 9 112   1.0000000E+00   3.1250000E+01   7.8125000E-03   1.5660620E-01
        2   -1    0    0  501    0  0.00000000000E+00  0.00000000000E+00  2.91718008901E+03  2.91718008901E+03  0.00000000000E+00 0.00000000000E+00  1.
       -1   -1    0    0    0  501  0.00000000000E+00  0.00000000000E+00 -5.14961136785E+01  5.14961136785E+01  0.00000000000E+00 0.00000000000E+00  1.
       25    1    1    2    0    0 -3.14822634795E+01 -1.29541951258E+02  1.15349102109E+03  1.16787789849E+03  1.25000000000E+02 0.00000000000E+00  1.
        6    2    1    2  502    0  2.71122559704E+01  1.94391707900E+02  1.71567333071E+03  1.73570835934E+03  1.75000915519E+02 0.00000000000E+00  1.
       -5    1    1    2    0  502  4.37000750910E+00 -6.48497566420E+01 -3.48037646557E+00  6.50899448647E+01  5.09715559239E-06 0.00000000000E+00  1.
        5    1    4    4  502    0  2.50542762029E+01 -2.13999758170E+01  2.17407788190E+02  2.19941775446E+02  4.74999999999E+00 0.00000000000E+00  1.
       24    2    4    4    0    0  2.05797976748E+00  2.15791683717E+02  1.49826554252E+03  1.51576658389E+03  7.86028936352E+01 0.00000000000E+00  1.
       -1    1    7    7    0  703  2.70305375566E+01  1.90910438181E+02  1.19441413096E+03  1.20987708532E+03  0.00000000000E+00 0.00000000000E+00  1.
        2    1    7    7  703    0 -2.49725577892E+01  2.48812455363E+01  3.03851411567E+02  3.05889498566E+02  9.34406182397E-06 0.00000000000E+00  1.
</event>
<event>
 9 112   1.0000000E+00   3.1250000E+01   7.8125000E-03   1.5660620E-01
        2   -1    0    0  501    0  0.00000000000E+00  0.00000000000E+00  9.58674654744E+02  9.58674654744E+02  0.00000000000E+00 0.00000000000E+00  1.
       -1   -1    0    0    0  501  0.00000000000E+00  0.00000000000E+00 -1.32374379743E+02  1.32374379743E+02  0.00000000000E+00 0.00000000000E+00  1.
       25    1    1    2    0    0 -5.55816799478E+01  5.45701030082E+01  4.67001265794E+01  1.54509291341E+02  1.25000000000E+02 0.00000000000E+00  1.
        6    2    1    2  502    0 -6.86780711161E+01 -2.27382974615E+02  3.23046707526E+02  4.32807851441E+02  1.62922578021E+02 0.00000000000E+00  1.
       -5    1    1    2    0  502  1.24259751064E+02  1.72812871607E+02  4.56553440895E+02  5.03731891705E+02  5.39479660939E-06 0.00000000000E+00  1.
        5    1    4    4  502    0 -8.27793052719E+01 -1.61470596922E+02  2.37549782006E+02  2.98960914641E+02  4.75000000000E+00 0.00000000000E+00  1.
       24    2    4    4    0    0  1.41012341558E+01 -6.59123776932E+01  8.54969255196E+01  1.33846936801E+02  7.78587944917E+01 0.00000000000E+00  1.
      -13    1    7    7    0    0 -1.13949270590E+01 -3.21681970539E+01 -4.48580704720E+00  3.44205010608E+01  1.05660000000E-01 0.00000000000E+00  1.
       14    1    7    7    0    0  2.54961612148E+01 -3.37441806393E+01  8.99827325668E+01  9.94264357397E+01  1.34869915235E-06 0.00000000000E+00  1.
</event>
<event>
 9 112   1.0000000E+00   3.1250000E+01   7.8125000E-03   1.5660620E-01
        2   -1    0    0  501    0  0.00000000000E+00  0.00000000000E+00  2.40308431568E+03  2.40308431568E+03  0.00000000000E+00 0.00000000000E+00  1.
       -1   -1    0    0    0  501  0.00000000000E+00  0.00000000000E+00 -3.66035489446E+01  3.66035489446E+01  0.00000000000E+00 0.00000000000E+00  1.
       25    1    1    2    0    0 -1.02202021698E+02  8.40455099790E+01  9.89276631445E+02  1.00588376789E+03  1.25000000000E+02 0.00000000000E+00  1.
        6    2    1    2  502    0 -2.19693279164E+01  4.21225835810E+00  1.13023764331E+03  1.14363103475E+03  1.73073449169E+02 0.00000000000E+00  1.
       -5    1    1    2    0  502  1.24171349615E+02 -8.82577683371E+01  2.46966491982E+02  2.90173061980E+02  9.72560789794E-06 0.00000000000E+00  1.
        5    1    4    4  502    0  5.04122618208E+00 -4.11895979030E+01  7.53938256772E+02  7.55094334810E+02  4.74999999999E+00 0.00000000000E+00  1.
       24    2    4    4    0    0 -2.70105540985E+01  4.54018562611E+01  3.76299386535E+02  3.88536699942E+02  8.10471486850E+01 0.00000000000E+00  1.
      -15    1    7    7    0    0  1.03582843449E+01  5.67231622627E+01  2.21659326467E+02  2.29043282415E+02  1.77680000000E+00 0.00000000000E+00  1.
       16    1    7    7    0    0 -3.73688384434E+01 -1.13213060016E+01  1.54640060068E+02  1.59493417526E+02  0.00000000000E+00 0.00000000000E+00  1.
</event>
<event>
 9 112   1.0000000E+00   3.1250000E+01   7.8125000E-03   1.5660620E-01
        2   -1    0    0  501    0  0.00000000000E+00  0.00000000000E+00  1.18092298020E+03  1.18092298020E+03  0.00000000000E+00 0.00000000000E+00  1.
       -1   -1    0    0    0  501  0.00000000000E+00  0.00000000000E+00 -3.47987484378E+02  3.47987484378E+02  0.00000000000E+00 0.00000000000E+00  1.
       25    1    1    2    0    0 -1.80869846655E+02 -1.10018558681E+02  5.52453464030E+02  6.04688196182E+02  1.25000000000E+02 0.00000000000E+00  1.
        6    2    1    2  502    0 -1.69986939120E+02 -2.04969495063E+02  3.21242344030E+02  4.50957689979E+02  1.71050113052E+02 0.00000000000E+00  1.
       -5    1    1    2    0  502  3.50856785775E+02  3.14988053744E+02 -4.07603122429E+01  4.73264578412E+02  5.74187973919E-06 0.00000000000E+00  1.
        5    1    4    4  502    0 -4.86437338831E+01 -7.73553475721E+01  2.25009038120E+01  9.42279991110E+01  4.75000000000E+00 0.00000000000E+00  1.
       24    2    4    4    0    0 -1.21343205237E+02 -1.27614147491E+02  2.98741440218E+02  3.56729690868E+02  8.36664816162E+01 0.00000000000E+00  1.
      -13    1    7    7    0    0 -1.12110434343E+02 -1.01940059005E+02  1.81899478443E+02  2.36744496325E+02  1.05659999883E-01 0.00000000000E+00  1.
       14    1    7    7    0    0 -9.23277089392E+00 -2.56740884867E+01  1.16841961775E+02  1.19985194543E+02  1.90734863281E-06 0.00000000000E+00  1.
</event>
<event>
 9 112   1.0000000E+00   3.1250000E+01   7.8125000E-03   1.5660620E-01
        2   -1    0    0  501    0  0.00000000000E+00  0.00000000000E+00  1.34760961008E+02  1.34760961008E+02  0.00000000000E+00 0.00000000000E+00  1.
       -1   -1    0    0    0  501  0.00000000000E+00  0.00000000000E+00 -1.19751857275E+03  1.19751857275E+03  0.00000000000E+00 0.00000000000E+00  1.
       25    1    1    2    0    0 -6.32217064027E+01  7.54152555717E+01 -1.16364169031E+02  1.97104197743E+02  1.25000000000E+02 0.00000000000E+00  1.
        6    2    1    2  502    0 -1.41450070533E+01  2.27223957752E+02 -2.85269152319E+02  4.03969873005E+02  1.73154153370E+02 0.00000000000E+00  1.
       -5    1    1    2    0  502  7.73667134560E+01 -3.02639213324E+02 -6.61124290391E+02  7.31205463011E+02  1.07895932188E-05 0.00000000000E+00  1.
        5    1    4    4  502    0 -5.57194475194E+00  1.08054093195E+02 -3.11676233846E+01  1.12697457256E+02  4.75000000000E+00 0.00000000000E+00  1.
       24    2    4    4    0    0 -8.57306230137E+00  1.19169864557E+02 -2.54101528935E+02  2.91272415749E+02  7.74408106462E+01 0.00000000000E+00  1.
       -3    1    7    7    0  703  3.36388068586E+01  6.12035067511E+01 -1.09655262280E+02  1.30006596414E+02  1.90734863281E-06 0.00000000000E+00  1.
        4    1    7    7  703    0 -4.22118691600E+01  5.79663578064E+01 -1.44446266654E+02  1.61265819335E+02  0.00000000000E+00 0.00000000000E+00  1.
</event>
<event>
 9 112   1.0000000E+00   3.1250000E+01   7.8125000E-03   1.5660620E-01
        2   -1    0    0  501    0  0.00000000000E+00  0.00000000000E+00  1.47820344473E+03  1.47820344473E+03  0.00000000000E+00 0.00000000000E+00  1.
       -1   -1    0    0    0  501  0.00000000000E+00  0.00000000000E+00 -4.32401737336E+01  4.32401737336E+01  0.00000000000E+00 0.00000000000E+00  1.
       25    1    1    2    0    0 -1.23569364990E+02  4.70612888195E+01  7.54065101027E+02  7.75708276001E+02  1.25000000000E+02 0.00000000000E+00  1.
        6    2    1    2  502    0  3.25711383099E+01  7.42219924812E+00  5.48576713154E+02  5.76153221752E+02  1.72916617561E+02 0.00000000000E+00  1.
       -5    1    1    2    0  502  9.09982266803E+01 -5.44834880676E+01  1.32321456819E+02  1.69582120714E+02  1.90734863281E-06 0.00000000000E+00  1.
        5    1    4    4  502    0 -4.38765194975E+01  3.88103238869E+01  2.26502662211E+02  2.34003010007E+02  4.75000000000E+00 0.00000000000E+00  1.
       24    2    4    4    0    0  7.64476578075E+01 -3.13881246387E+01  3.22074050942E+02  3.42150211746E+02  8.06573887172E+01 0.00000000000E+00  1.
       -3    1    7    7    0  703  2.83322542192E+01  2.74549199368E+01  1.12653144677E+02  1.19361720261E+02  2.69739830470E-06 0.00000000000E+00  1.
        4    1    7    7  703    0  4.81154035883E+01 -5.88430445755E+01  2.09420906265E+02  2.22788491485E+02  4.67203091199E-06 0.00000000000E+00  1.
</event>
<event>
 9 112   1.0000000E+00   3.1250000E+01   7.8125000E-03   1.5660620E-01
        2   -1    0    0  501    0  0.00000000000E+00  0.00000000000E+00  6.88028774791E+02  6.88028774791E+02  0.00000000000E+00 0.00000000000E+00  1.
       -1   -1    0    0    0  501  0.00000000000E+00  0.00000000000E+00 -2.08879215761E+02  2.08879215761E+02  0.00000000000E+00 0.00000000000E+00  1.
       25    1    1    2    0    0  2.90197874065E+02  1.89955303814E+01  3.34797104824E+02  4.60749104920E+02  1.25000000000E+02 0.00000000000E+00  1.
        6    2    1    2  502    0 -1.98423967514E+02  6.95286847187E+01  1.46003348236E+02  3.08637467689E+02  1.72434914918E+02 0.00000000000E+00  1.
       -5    1    1    2    0  502 -9.17739065513E+01 -8.85242151002E+01 -1.65089402994E+00  1.27521417942E+02  1.88851275990E-06 0.00000000000E+00  1.
        5    1    4    4  502    0 -1.13331598937E+02  6.84177379391E+01  1.48004108968E+02  1.98627331840E+02  4.75000000000E+00 0.00000000000E+00  1.
       24    2    4    4    0    0 -8.50923685772E+01  1.11094677962E+00 -2.00076073189E+00  1.10010135850E+02  6.96870257174E+01 0.00000000000E+00  1.
       -3    1    7    7    0  703 -2.26984787220E+01  3.21545387107E+01  6.18108071171E+00  3.98414489541E+01  1.21277510818E-06 0.00000000000E+00  1.
        4    1    7    7  703    0 -6.23938898552E+01 -3.10435919311E+01 -8.18184144361E+00  7.01686868957E+01  1.98761606223E-06 0.00000000000E+00  1.
</event>
<event>
 9 112   1.0000000E+00   3.1250000E+01   7.8125000E-03   1.5660620E-01
        2   -1    0    0  501    0  0.00000000000E+00  0.00000000000E+00  1.05846276516E+02  1.05846276516E+02  0.00000000000E+00 0.00000000000E+00  1.
       -1   -1    0    0    0  501  0.00000000000E+00  0.00000000000E+00 -6.34163211433E+02  6.34163211433E+02  0.00000000000E+00 0.00000000000E+00  1.
       25    1    1    2    0    0  1.84056215521E+01 -8.10317992985E+01  1.19886954523E+00  1.50104485911E+02  1.25000000000E+02 0.00000000000E+00  1.
        6    2    1    2  502    0 -6.86386444663E+01  6.05789031415E+01 -4.71941184241E+02  5.10806870290E+02  1.72667629663E+02 0.00000000000E+00  1.
       -5    1    1    2    0  502  5.02330229142E+01  2.04528961570E+01 -5.75746202219E+01  7.90981317479E+01  3.50402318399E-06 0.00000000000E+00  1.
        5    1    4    4  502    0 -7.90471245687E+01  6.19615943103E+00 -3.22391368362E+02  3.32032524294E+02  4.75000000000E+00 0.00000000000E+00  1.
       24    2    4    4    0    0  1.04084801024E+01  5.43827437104E+01 -1.49549815878E+02  1.78774345997E+02  8.08040845862E+01 0.00000000000E+00  1.
       -1    1    7    7    0  703 -1.38614041640E+01  2.28440863595E+00 -1.05316978791E+02  1.06249814446E+02  0.00000000000E+00 0.00000000000E+00  1.
        2    1    7    7  703    0  2.42698842664E+01  5.20983350745E+01 -4.42328370877E+01  7.25245315508E+01  1.16800772800E-06 0.00000000000E+00  1.
</event>
<event>
 9 112   1.0000000E+00   3.1250000E+01   7.8125000E-03   1.5660620E-01
        2   -1    0    0  501    0  0.00000000000E+00  0.00000000000E+00  6.64764836342E+02  6.64764836342E+02  0.00000000000E+00 0.00000000000E+00  1.
       -1   -1    0    0    0  501  0.00000000000E+00  0.00000000000E+00 -2.55514673644E+02  2.55514673644E+02  0.00000000000E+00 0.00000000000E+00  1.
       25    1    1    2    0    0  1.07808487923E+02  9.05327146866E+01  9.96627469949E+01  2.13017618134E+02  1.25000000000E+02 0.00000000000E+00  1.
        6    2    1    2  502    0  1.40651414905E+02  1.54928900074E+02  2.13908529068E+02  3.45131836510E+02  1.71969012243E+02 0.00000000000E+00  1.
       -5    1    1    2    0  502 -2.48459902828E+02 -2.45461614760E+02  9.56788866358E+01  3.62130055342E+02  1.19113883942E-05 0.00000000000E+00  1.
        5    1    4    4  502    0  7.90771227636E+01  2.17691790689E+01  1.37975579091E+02  1.60583035927E+02  4.75000000000E+00 0.00000000000E+00  1.
       24    2    4    4    0    0  6.15742921414E+01  1.33159721005E+02  7.59329499766E+01  1.84548800583E+02  8.22772274305E+01 0.00000000000E+00  1.
       -1    1    7    7    0  703 -2.02004294644E+01  2.61706911286E+01  2.06619125636E+01  3.89856006171E+01  2.00895065622E-06 0.00000000000E+00  1.
        2    1    7    7  703    0  8.17747216058E+01  1.06989029876E+02  5.52710374130E+01  1.45563199966E+02  3.30362473978E-06 0.00000000000E+00  1.
</event>
<event>
 9 112   1.0000000E+00   3.1250000E+01   7.8125000E-03   1.5660620E-01
        2   -1    0    0  501    0  0.00000000000E+00  0.00000000000E+00  8.20026730966E+02  8.20026730966E+02  0.00000000000E+00 0.00000000000E+00  1.
       -1   -1    0    0    0  501  0.00000000000E+00  0.00000000000E+00 -7.24153076618E+01  7.24153076618E+01  0.00000000000E+00 0.00000000000E+00  1.
       25    1    1    2    0    0  4.61771184340E+01 -1.03518791056E+02  2.96491796652E+02  3.41146378920E+02  1.25000000000E+02 0.00000000000E+00  1.
        6    2    1    2  502    0  2.66780539467E+01 -5.41534418096E+00  3.22804665463E+02  3.67885596659E+02  1.74344244727E+02 0.00000000000E+00  1.
       -5    1    1    2    0  502 -7.28551723808E+01  1.08934135237E+02  1.28314961190E+02  1.83410063049E+02  3.81469726562E-06 0.00000000000E+00  1.
        5    1    4    4  502    0 -1.07322159080E+01 -1.48849398666E+00  2.58030228494E+02  2.58301291885E+02  4.75000000000E+00 0.00000000000E+00  1.
       24    2    4    4    0    0  3.74102698547E+01 -3.92685019429E+00  6.47744369687E+01  1.09584304774E+02  7.99877723478E+01 0.00000000000E+00  1.
      -11    1    7    7    0    0  2.36093872572E+01  1.37788332034E+01  7.86011019452E+01  8.32189439873E+01  5.10996817865E-04 0.00000000000E+00  1.
       12    1    7    7    0    0  1.38008825975E+01 -1.77056833977E+01 -1.38266649765E+01  2.63653607868E+01  1.97326485601E-06 0.00000000000E+00  1.
</event>
<event>
 9 112   1.0000000E+00   3.1250000E+01   7.8125000E-03   1.5660620E-01
        2   -1    0    0  501    0  0.00000000000E+00  0.00000000000E+00  2.24601821729E+03  2.24601821729E+03  0.00000000000E+00 0.00000000000E+00  1.
       -1   -1    0    0    0  501  0.00000000000E+00  0.00000000000E+00 -2.30374668196E+02  2.30374668196E+02  0.00000000000E+00 0.00000000000E+00  1.
       25    1    1    2    0    0  1.34947275317E+02  1.50899275820E+02  4.14348191585E+02  4.77797846822E+02  1.25000000000E+02 0.00000000000E+00  1.
        6    2    1    2  502    0  2.11350753690E+02  4.11423010996E+02  9.51525690806E+02  1.07213440868E+03  1.73588637160E+02 0.00000000000E+00  1.
       -5    1    1    2    0  502 -3.46298029007E+02 -5.62322286816E+02  6.49769666707E+02  9.26460629987E+02  0.00000000000E+00 0.00000000000E+00  1.
        5    1    4    4  502    0  1.58584732967E+02  3.27094584753E+02  6.50842065073E+02  7.45491744471E+02  4.75000000001E+00 0.00000000000E+00  1.
       24    2    4    4    0    0  5.27660207233E+01  8.43284262423E+01  3.00683625733E+02  3.26642664210E+02  7.99327897860E+01 0.00000000000E+00  1.
      -11    1    7    7    0    0  2.47581376392E+01  8.41866619755E+01  1.53452106174E+02  1.76770779043E+02  5.11016395776E-04 0.00000000000E+00  1.
       12    1    7    7    0    0  2.80078830841E+01  1.41764266752E-01  1.47231519559E+02  1.49871885167E+02  4.67203091199E-06 0.00000000000E+00  1.
</event>
<event>
 9 112   1.0000000E+00   3.1250000E+01   7.8125000E-03   1.5660620E-01
        2   -1    0    0  501    0  0.00000000000E+00  0.00000000000E+00  3.67267928093E+02  3.67267928093E+02  0.00000000000E+00 0.00000000000E+00  1.
       -1   -1    0    0    0  501  0.00000000000E+00  0.00000000000E+00 -1.31893348128E+03  1.31893348128E+03  0.00000000000E+00 0.00000000000E+00  1.
       25    1    1    2    0    0  6.49771003228E+01  1.28695560466E+02 -6.64535371864E+01  2.02053565805E+02  1.25000000000E+02 0.00000000000E+00  1.
        6    2    1    2  502    0 -4.39539616642E+02 -3.45517365169E+02 -1.08767701694E+02  5.95230216988E+02  1.72890931089E+02 0.00000000000E+00  1.
       -5    1    1    2    0  502  3.74562516319E+02  2.16821804702E+02 -7.76444314305E+02  8.88917626578E+02  1.52587890625E-05 0.00000000000E+00  1.
        5    1    4    4  502    0 -2.31121465736E+02 -1.58594560342E+02  1.11591186375E+01  2.80564528982E+02  4.75000000000E+00 0.00000000000E+00  1.
       24    2    4    4    0    0 -2.08418150906E+02 -1.86922804827E+02 -1.19926820332E+02  3.14665688006E+02  7.90809229978E+01 0.00000000000E+00  1.
      -11    1    7    7    0    0 -9.82503285799E+01 -1.03835838985E+02 -2.01054290709E+01  1.44358016065E+02  5.10998653326E-04 0.00000000000E+00  1.
       12    1    7    7    0    0 -1.10167822326E+02 -8.30869658421E+01 -9.98213912611E+01  1.70307671942E+02  1.90734863281E-06 0.00000000000E+00  1.
</event>
<event>
 9 112   1.0000000E+00   3.1250000E+01   7.8125000E-03   1.5660620E-01
        2   -1    0    0  501    0  0.00000000000E+00  0.00000000000E+00  3.74262508189E+02  3.74262508189E+02  0.00000000000E+00 0.00000000000E+00  1.
       -1   -1    0    0    0  501  0.00000000000E+00  0.00000000000E+00 -3.52073229047E+02  3.52073229047E+02  0.00000000000E+00 0.00000000000E+00  1.
       25    1    1    2    0    0 -1.97134037425E+01  8.42986111316E+01  6.66607182721E+01  1.66022665580E+02  1.25000000000E+02 0.00000000000E+00  1.
        6    2    1    2  502    0  9.61509750778E+01  1.89166052231E+02 -2.99413656218E+01  2.75995032383E+02  1.73919427321E+02 0.00000000000E+00  1.
       -5    1    1    2    0  502 -7.64375713353E+01 -2.73464663363E+02 -1.45300735086E+01  2.84318039273E+02  5.80587180228E-06 0.00000000000E+00  1.
        5    1    4    4  502    0  2.63953390649E+01  2.25587831081E+01  4.93812056819E+01  6.05531055708E+01  4.75000000000E+00 0.00000000000E+00  1.
       24    2    4    4    0    0  6.97556360129E+01  1.66607269123E+02 -7.93225713037E+01  2.15441926812E+02  8.65986294931E+01 0.00000000000E+00  1.
      -13    1    7    7    0    0 -5.88786065341E+00  4.09731296970E+00 -2.81190336174E+01  2.90197534837E+01  1.05659999947E-01 0.00000000000E+00  1.
       14    1    7    7    0    0  7.56434966663E+01  1.62509956154E+02 -5.12035376863E+01  1.86422173329E+02  3.37174788087E-06 0.00000000000E+00  1.
</event>
<event>
 9 112   1.0000000E+00   3.1250000E+01   7.8125000E-03   1.5660620E-01
        2   -1    0    0  501    0  0.00000000000E+00  0.00000000000E+00  7.27185392362E+02  7.27185392362E+02  0.00000000000E+00 0.00000000000E+00  1.
       -1   -1    0    0    0  501  0.00000000000E+00  0.00000000000E+00 -1.46290784406E+03  1.46290784406E+03  0.00000000000E+00 0.00000000000E+00  1.
       25    1    1    2    0    0  8.13465584287E+02  2.94016999183E+02 -2.19237362514E+02  9.01034002549E+02  1.25000000000E+02 0.00000000000E+00  1.
        6    2    1    2  502    0 -2.04923905264E+02  1.53565539687E+02  8.77222512811E+01  3.21733221361E+02  1.73899081162E+02 0.00000000000E+00  1.
       -5    1    1    2    0  502 -6.08541679023E+02 -4.47582538870E+02 -6.04207340465E+02  9.67326012511E+02  7.62939453125E-06 0.00000000000E+00  1.
        5    1    4    4  502    0 -8.91036371791E+01 -1.28379516798E+01  3.73514688576E+01  9.75805610135E+01  4.75000000000E+00 0.00000000000E+00  1.
       24    2    4    4    0    0 -1.15820268085E+02  1.66403491367E+02  5.03707824235E+01  2.24152660347E+02  8.12572641690E+01 0.00000000000E+00  1.
       -3    1    7    7    0  703 -8.84961765917E+00  7.35094354750E+01  3.41990546636E+01  8.15569014643E+01  1.58148993986E-06 0.00000000000E+00  1.
        4    1    7    7  703    0 -1.06970650426E+02  9.28940558922E+01  1.61717277599E+01  1.42595758883E+02  2.11911068375E-06 0.00000000000E+00  1.
</event>
<event>
 9 112   1.0000000E+00   3.1250000E+01   7.8125000E-03   1.5660620E-01
        2   -1    0    0  501    0  0.00000000000E+00  0.00000000000E+00  2.14245852413E+03  2.14245852413E+03  0.00000000000E+00 0.00000000000E+00  1.
       -1   -1    0    0    0  501  0.00000000000E+00  0.00000000000E+00 -1.37560509539E+02  1.37560509539E+02  0.00000000000E+00 0.00000000000E+00  1.
       25    1    1    2    0    0 -2.98958548624E+02 -1.22931262189E+02  8.40933602837E+02  9.09550786597E+02  1.25000000000E+02 0.00000000000E+00  1.
        6    2    1    2  502    0 -1.68250804445E+02  9.42873353559E+00  3.47601108876E+02  4.23042025201E+02  1.72455182530E+02 0.00000000000E+00  1.
       -5    1    1    2    0  502  4.67209353069E+02  1.13502528653E+02  8.16363302880E+02  9.47426221874E+02  1.52587890625E-05 0.00000000000E+00  1.
        5    1    4    4  502    0 -1.42455058281E+02  2.27814099543E+01  1.36862705029E+02  1.98913043306E+02  4.75000000000E+00 0.00000000000E+00  1.
       24    2    4    4    0    0 -2.57957461644E+01 -1.33526764187E+01  2.10738403847E+02  2.24128981895E+02  7.05649430072E+01 0.00000000000E+00  1.
       -3    1    7    7    0  703  1.39785633611E+01 -5.40705770403E+00  7.27140417108E+00  1.66586261521E+01  3.92395987287E-06 0.00000000000E+00  1.
        4    1    7    7  703    0 -3.97743095255E+01 -7.94561871464E+00  2.03466999676E+02  2.07470355743E+02  2.69739830470E-06 0.00000000000E+00  1.
</event>
<event>
 9 112   1.0000000E+00   3.1250000E+01   7.8125000E-03   1.5660620E-01
        2   -1    0    0  501    0  0.00000000000E+00  0.00000000000E+00  3.67041547916E+03  3.67041547916E+03  0.00000000000E+00 0.00000000000E+00  1.
       -1   -1    0    0    0  501  0.00000000000E+00  0.00000000000E+00 -2.68748148615E+01  2.68748148615E+01  0.00000000000E+00 0.00000000000E+00  1.
       25    1    1    2    0    0 -1.39626453861E+02 -1.02602179076E+02  7.43862545813E+02  7.73937491554E+02  1.25000000000E+02 0.00000000000E+00  1.
        6    2    1    2  502    0 -1.56755058290E+00 -1.26325532980E+01  9.91558651005E+02  1.00654955419E+03  1.72601877269E+02 0.00000000000E+00  1.
       -5    1    1    2    0  502  1.41194004444E+02  1.15234732374E+02  1.90811946748E+03  1.91680324828E+03  3.73762472959E-05 0.00000000000E+00  1.
        5    1    4    4  502    0 -2.04433251033E+01  3.11106274949E+01  6.21662177936E+01  7.26154378845E+01  4.75000000002E+00 0.00000000000E+00  1.
       24    2    4    4    0    0  1.88757745204E+01 -4.37431807929E+01  9.29392433211E+02  9.33934116304E+02  7.86948407224E+01 0.00000000000E+00  1.
       -3    1    7    7    0  703  1.78116503675E+01 -5.49759576234E+00  4.49154350002E+01  4.86299778865E+01  1.85844185542E-05 0.00000000000E+00  1.
        4    1    7    7  703    0  1.06412415287E+00 -3.82455850306E+01  8.84476998211E+02  8.85304138417E+02  1.86881236479E-05 0.00000000000E+00  1.
</event>
<event>
 9 112   1.0000000E+00   3.1250000E+01   7.8125000E-03   1.5660620E-01
        2   -1    0    0  501    0  0.00000000000E+00  0.00000000000E+00  2.92819099428E+03  2.92819099428E+03  0.00000000000E+00 0.00000000000E+00  1.
       -1   -1    0    0    0  501  0.00000000000E+00  0.00000000000E+00 -3.45225289237E+01  3.45225289237E+01  0.00000000000E+00 0.00000000000E+00  1.
       25    1    1    2    0    0 -1.38464969580E+02  3.77915945548E+01  1.10193185663E+03  1.11824843799E+03  1.25000000000E+02 0.00000000000E+00  1.
        6    2    1    2  502    0  3.07084570381E+01  8.65245544405E+00  1.65216038330E+03  1.66211915441E+03  1.78852668373E+02 0.00000000000E+00  1.
       -5    1    1    2    0  502  1.07756512542E+02 -4.64440499988E+01  1.39576225423E+02  1.82345930799E+02  2.33601545599E-05 0.00000000000E+00  1.
        5    1    4    4  502    0 -1.31230398065E+01  2.03541161877E+01  1.22030349670E+03  1.22055302661E+03  4.74999999995E+00 0.00000000000E+00  1.
       24    2    4    4    0    0  4.38314968446E+01 -1.17016607437E+01  4.31856886603E+02  4.41566127796E+02  8.01382912888E+01 0.00000000000E+00  1.
       -1    1    7    7    0  703 -2.30329447631E+01 -3.52580862720E+00  1.48183089130E+02  1.50003919199E+02  1.90734863281E-06 0.00000000000E+00  1.
        2    1    7    7  703    0  6.68644416077E+01 -8.17585211647E+00  2.83673797473E+02  2.91562208597E+02  5.39479660939E-06 0.00000000000E+00  1.
</event>
<event>
 9 112   1.0000000E+00   3.1250000E+01   7.8125000E-03   1.5660620E-01
        2   -1    0    0  501    0  0.00000000000E+00  0.00000000000E+00  2.83722263005E+03  2.83722263005E+03  0.00000000000E+00 0.00000000000E+00  1.
       -1   -1    0    0    0  501  0.00000000000E+00  0.00000000000E+00 -1.29140643284E+01  1.29140643284E+01  0.00000000000E+00 0.00000000000E+00  1.
       25    1    1    2    0    0 -2.05196221967E+01  5.51052966324E+01  6.15330121089E+02  6.30645547460E+02  1.25000000000E+02 0.00000000000E+00  1.
        6    2    1    2  502    0  3.36642034194E+01 -2.21839820401E+01  1.77465590813E+03  1.78372439889E+03  1.75053509807E+02 0.00000000000E+00  1.
       -5    1    1    2    0  502 -1.31445812227E+01 -3.29213145923E+01  4.34322536501E+02  4.35766748023E+02  0.00000000000E+00 0.00000000000E+00  1.
        5    1    4    4  502    0  5.73107934309E+01  1.93910113271E+01  2.97883157967E+02  3.04002428714E+02  4.74999999996E+00 0.00000000000E+00  1.
       24    2    4    4    0    0 -2.36465900115E+01 -4.15749933672E+01  1.47677275016E+03  1.47972197018E+03  8.01979557917E+01 0.00000000000E+00  1.
       -3    1    7    7    0  703  5.20102002486E+00 -5.47129633084E+00  1.17212738125E+01  1.39418059313E+01  2.53940970555E-05 0.00000000000E+00  1.
        4    1    7    7  703    0 -2.88476100364E+01 -3.61036970364E+01  1.46505147635E+03  1.46578016425E+03  3.05175781250E-05 0.00000000000E+00  1.
</event>
<event>
 9 112   1.0000000E+00   3.1250000E+01   7.8125000E-03   1.5660620E-01
        2   -1    0    0  501    0  0.00000000000E+00  0.00000000000E+00  2.16392644456E+02  2.16392644456E+02  0.00000000000E+00 0.00000000000E+00  1.
       -1   -1    0    0    0  501  0.00000000000E+00  0.00000000000E+00 -4.23534101868E+02  4.23534101868E+02  0.00000000000E+00 0.00000000000E+00  1.
       25    1    1    2    0    0  2.72530481836E+01 -5.61568050931E+01  4.93253665152E+01  1.48169859200E+02  1.25000000000E+02 0.00000000000E+00  1.
        6    2    1    2  502    0  1.20437180134E+02 -1.23724428471E+01 -3.00675821053E+01  2.12892622541E+02  1.72513818397E+02 0.00000000000E+00  1.
       -5    1    1    2    0  502 -1.47690228318E+02  6.85292479403E+01 -2.26399241822E+02  2.78864264583E+02  2.69739830470E-06 0.00000000000E+00  1.
        5    1    4    4  502    0 -2.64001558971E+01 -2.00969376598E+01 -2.90364475149E+01  4.43456076627E+01  4.75000000000E+00 0.00000000000E+00  1.
       24    2    4    4    0    0  1.46837336031E+02  7.72449481263E+00 -1.03113459045E+00  1.68547014878E+02  8.23781640541E+01 0.00000000000E+00  1.
       -3    1    7    7    0  703  3.51795211051E+01  8.86855497421E+00 -3.64228088810E+01  5.14088609025E+01  1.16800772800E-06 0.00000000000E+00  1.
        4    1    7    7  703    0  1.11657814926E+02 -1.14406016158E+00  3.53916742905E+01  1.17138153976E+02  1.58148993986E-06 0.00000000000E+00  1.
</event>
<event>
 9 112   1.0000000E+00   3.1250000E+01   7.8125000E-03   1.5660620E-01
        2   -1    0    0  501    0  0.00000000000E+00  0.00000000000E+00  2.00040307169E+03  2.00040307169E+03  0.00000000000E+00 0.00000000000E+00  1.
       -1   -1    0    0    0  501  0.00000000000E+00  0.00000000000E+00 -1.38293724333E+02  1.38293724333E+02  0.00000000000E+00 0.00000000000E+00  1.
       25    1    1    2    0    0 -1.29453562401E+02  6.83549353948E+01  1.05485032243E+03  1.07227087284E+03  1.25000000000E+02 0.00000000000E+00  1.
        6    2    1    2  502    0 -6.49917231815E+01 -1.34642052312E+02  8.27842430350E+02  8.59963753441E+02  1.78499751856E+02 0.00000000000E+00  1.
       -5    1    1    2    0  502  1.94445285582E+02  6.62871169167E+01 -2.05834054260E+01  2.06462169739E+02  1.24321058507E-05 0.00000000000E+00  1.
        5    1    4    4  502    0  1.36806050520E+00 -1.12455216960E+02  5.71713382257E+02  5.82689283721E+02  4.75000000001E+00 0.00000000000E+00  1.
       24    2    4    4    0    0 -6.63597836867E+01 -2.21868353512E+01  2.56129048093E+02  2.77274469720E+02  7.98947165215E+01 0.00000000000E+00  1.
       -3    1    7    7    0  703  1.44899008277E+01 -2.06666429308E+01  6.61426215189E+01  7.07948708412E+01  9.53674316406E-07 0.00000000000E+00  1.
        4    1    7    7  703    0 -8.08496845144E+01 -1.52019242031E+00  1.89986426574E+02  2.06479598879E+02  0.00000000000E+00 0.00000000000E+00  1.
</event>
<event>
 9 112   1.0000000E+00   3.1250000E+01   7.8125000E-03   1.5660620E-01
        2   -1    0    0  501    0  0.00000000000E+00  0.00000000000E+00  1.12542502308E+03  1.12542502308E+03  0.00000000000E+00 0.00000000000E+00  1.
       -1   -1    0    0    0  501  0.00000000000E+00  0.00000000000E+00 -6.81106773958E+01  6.81106773958E+01  0.00000000000E+00 0.00000000000E+00  1.
       25    1    1    2    0    0  1.35633503306E+02 -7.72358200032E+01  5.74438167371E+02  6.08248326954E+02  1.25000000000E+02 0.00000000000E+00  1.
        6    2    1    2  502    0 -9.70515734780E+01  4.52351638279E+01  4.93745630914E+02  5.33996513663E+02  1.72922816874E+02 0.00000000000E+00  1.
       -5    1    1    2    0  502 -3.85819298277E+01  3.20006561753E+01 -1.08694526035E+01  5.12908598561E+01  1.01152436426E-06 0.00000000000E+00  1.
        5    1    4    4  502    0 -1.13100098509E+01 -1.03260774128E+01  3.02261902918E+02  3.02686908625E+02  4.75000000000E+00 0.00000000000E+00  1.
       24    2    4    4    0    0 -8.57415636271E+01  5.55612412407E+01  1.91483727997E+02  2.31309605037E+02  7.99965501363E+01 0.00000000000E+00  1.
       -3    1    7    7    0  703 -5.34565794034E+00  4.83211864129E+01  6.30740468564E+01  7.96357237803E+01  1.65181236989E-06 0.00000000000E+00  1.
        4    1    7    7  703    0 -8.03959056868E+01  7.24005482777E+00  1.28409681140E+02  1.51673881257E+02  1.90734863281E-06 0.00000000000E+00  1.
</event>
<event>
 9 112   1.0000000E+00   3.1250000E+01   7.8125000E-03   1.5660620E-01
        2   -1    0    0  501    0  0.00000000000E+00  0.00000000000E+00  1.63839186800E+03  1.63839186800E+03  0.00000000000E+00 0.00000000000E+00  1.
       -1   -1    0    0    0  501  0.00000000000E+00  0.00000000000E+00 -1.18290020453E+02  1.18290020453E+02  0.00000000000E+00 0.00000000000E+00  1.
       25    1    1    2    0    0  2.57942967209E+01  6.49657252260E+01  1.09812532250E+03  1.10742499300E+03  1.25000000000E+02 0.00000000000E+00  1.
        6    2    1    2  502    0 -1.42024273903E+02  8.45485525907E+01  3.89102657285E+02  4.57047067279E+02  1.73700292687E+02 0.00000000000E+00  1.
       -5    1    1    2    0  502  1.16229977182E+02 -1.49514277817E+02  3.28738677622E+01  1.92209828178E+02  3.30362473978E-06 0.00000000000E+00  1.
        5    1    4    4  502    0 -4.34937790740E+01  9.89460815579E+01  1.38485301194E+02  1.75734962431E+02  4.75000000000E+00 0.00000000000E+00  1.
       24    2    4    4    0    0 -9.85304948287E+01 -1.43975289671E+01  2.50617356091E+02  2.81312104849E+02  8.00743024235E+01 0.00000000000E+00  1.
      -11    1    7    7    0    0 -1.05039141396E+02  4.33005590038E+00  1.85216743769E+02  2.12972328677E+02  5.10991478305E-04 0.00000000000E+00  1.
       12    1    7    7    0    0  6.50864656722E+00 -1.87275848675E+01  6.54006123219E+01  6.83397761716E+01  2.33601545599E-06 0.00000000000E+00  1.
</event>
<event>
 9 112   1.0000000E+00   3.1250000E+01   7.8125000E-03   1.5660620E-01
        2   -1    0    0  501    0  0.00000000000E+00  0.00000000000E+00  4.29873754334E+03  4.29873754334E+03  0.00000000000E+00 0.00000000000E+00  1.
       -1   -1    0    0    0  501  0.00000000000E+00  0.00000000000E+00 -4.97339393728E+01  4.97339393728E+01  0.00000000000E+00 0.00000000000E+00  1.
       25    1    1    2    0    0  3.87832378521E+02 -9.37511364031E+01  1.66450995531E+03  1.71622306846E+03  1.25000000000E+02 0.00000000000E+00  1.
        6    2    1    2  502    0 -1.54508647994E+02  1.25444238442E+02  1.40929045790E+03  1.43368804634E+03  1.72489536602E+02 0.00000000000E+00  1.
       -5    1    1    2    0  502 -2.33323730527E+02 -3.16931020390E+01  1.17520319076E+03  1.19856036790E+03  2.15791864376E-05 0.00000000000E+00  1.
        5    1    4    4  502    0  1.86002030744E+01  5.75507208823E+01  4.07391702376E+02  4.11884224866E+02  4.75000000002E+00 0.00000000000E+00  1.
       24    2    4    4    0    0 -1.73108851068E+02  6.78935175599E+01  1.00189875552E+03  1.02180382148E+03  7.55362775176E+01 0.00000000000E+00  1.
       -1    1    7    7    0  703 -1.04300293967E+02  7.33263746510E+01  7.43135158277E+02  7.53992819600E+02  0.00000000000E+00 0.00000000000E+00  1.
        2    1    7    7  703    0 -6.88085571014E+01 -5.43285709112E+00  2.58763597247E+02  2.67811001878E+02  8.52992239952E-06 0.00000000000E+00  1.
</event>
<event>
 9 112   1.0000000E+00   3.1250000E+01   7.8125000E-03   1.5660620E-01
        2   -1    0    0  501    0  0.00000000000E+00  0.00000000000E+00  3.42213917322E+02  3.42213917322E+02  0.00000000000E+00 0.00000000000E+00  1.
       -1   -1    0    0    0  501  0.00000000000E+00  0.00000000000E+00 -1.19657522226E+02  1.19657522226E+02  0.00000000000E+00 0.00000000000E+00  1.
       25    1    1    2    0    0  5.51274757864E+01 -5.94370319917E+00  1.49071377865E+02  2.02290983222E+02  1.25000000000E+02 0.00000000000E+00  1.
        6    2    1    2  502    0  2.88805580255E+00  1.37324335683E+01  9.41076883811E+01  1.97517900854E+02  1.73089986849E+02 0.00000000000E+00  1.
       -5    1    1    2    0  502 -5.80155315890E+01 -7.78873036913E+00 -2.06226711500E+01  6.20625554717E+01  9.23391186287E-07 0.00000000000E+00  1.
        5    1    4    4  502    0 -5.01333210510E+01  4.97121423729E+01  3.02167520060E+01  7.69432360945E+01  4.75000000000E+00 0.00000000000E+00  1.
       24    2    4    4    0    0  5.30213768536E+01 -3.59797088046E+01  6.38909363750E+01  1.20574664760E+02  7.96893479831E+01 0.00000000000E+00  1.
       -3    1    7    7    0  703  3.91290625958E+01 -1.55210632106E+01 -9.47916324616E+00  4.31490611562E+01  1.42553576745E-06 0.00000000000E+00  1.
        4    1    7    7  703    0  1.38923142578E+01 -2.04586455940E+01  7.33700996212E+01  7.74256036037E+01  0.00000000000E+00 0.00000000000E+00  1.
</event>
<event>
 9 112   1.0000000E+00   3.1250000E+01   7.8125000E-03   1.5660620E-01
        2   -1    0    0  501    0  0.00000000000E+00  0.00000000000E+00  8.49126352123E+01  8.49126352123E+01  0.00000000000E+00 0.00000000000E+00  1.
       -1   -1    0    0    0  501  0.00000000000E+00  0.00000000000E+00 -1.53948737388E+03  1.53948737388E+03  0.00000000000E+00 0.00000000000E+00  1.
       25    1    1    2    0    0 -9.01050523001E+01  4.93314997168E+01 -5.51262812267E+01  1.70928125820E+02  1.25000000000E+02 0.00000000000E+00  1.
        6    2    1    2  502    0 -7.04950935435E+01 -1.04113690001E+02 -9.24153337987E+02  9.48794812470E+02  1.74192380425E+02 0.00000000000E+00  1.
       -5    1    1    2    0  502  1.60600145844E+02  5.47821902837E+01 -4.75295119457E+02  5.04677070805E+02  5.39479660939E-06 0.00000000000E+00  1.
        5    1    4    4  502    0  3.14055519366E+01 -6.40333629705E+01 -4.22298868791E+02  4.28305355264E+02  4.74999999999E+00 0.00000000000E+00  1.
       24    2    4    4    0    0 -1.01900645480E+02 -4.00803270300E+01 -5.01854469196E+02  5.20489457206E+02  8.40309029251E+01 0.00000000000E+00  1.
       -1    1    7    7    0  703 -8.66234593901E+01  6.21301498930E+00 -2.72220210698E+02  2.85737761565E+02  3.81469726562E-06 0.00000000000E+00  1.
        2    1    7    7  703    0 -1.52771860900E+01 -4.62933420193E+01 -2.29634258499E+02  2.34751695641E+02  2.69739830470E-06 0.00000000000E+00  1.
</event>
<event>
 9 112   1.0000000E+00   3.1250000E+01   7.8125000E-03   1.5660620E-01
        2   -1    0    0  501    0  0.00000000000E+00  0.00000000000E+00  3.80289297582E+02  3.80289297582E+02  0.00000000000E+00 0.00000000000E+00  1.
       -1   -1    0    0    0  501  0.00000000000E+00  0.00000000000E+00 -2.61270037907E+02  2.61270037907E+02  0.00000000000E+00 0.00000000000E+00  1.
       25    1    1    2    0    0 -3.60773847397E+01 -9.82305177937E+00  2.06902188270E+02  2.44604958141E+02  1.25000000000E+02 0.00000000000E+00  1.
        6    2    1    2  502    0  1.20886384384E+02 -9.00783214100E+01  1.68312102034E+01  2.29210818158E+02  1.71833313435E+02 0.00000000000E+00  1.
       -5    1    1    2    0  502 -8.48089996441E+01  9.99013731893E+01 -1.04714138799E+02  1.67743559191E+02  5.04637014592E-06 0.00000000000E+00  1.
        5    1    4    4  502    0  4.88988914569E+01  3.64148069864E+01  1.77888887304E+01  6.36878859425E+01  4.75000000000E+00 0.00000000000E+00  1.
       24    2    4    4    0    0  7.19874929269E+01 -1.26493128396E+02 -9.57678526935E-01  1.65522932215E+02  7.88302814379E+01 0.00000000000E+00  1.
      -15    1    7    7    0    0  8.40541755831E+01 -7.53429939043E+01  1.63518650486E+00  1.12904836108E+02  1.77680000000E+00 0.00000000000E+00  1.
       16    1    7    7    0    0 -1.20666826562E+01 -5.11501344921E+01 -2.59286503179E+00  5.26180961073E+01  1.53243066456E-06 0.00000000000E+00  1.
</event>
<event>
 9 112   1.0000000E+00   3.1250000E+01   7.8125000E-03   1.5660620E-01
        2   -1    0    0  501    0  0.00000000000E+00  0.00000000000E+00  2.73372854358E+03  2.73372854358E+03  0.00000000000E+00 0.00000000000E+00  1.
       -1   -1    0    0    0  501  0.00000000000E+00  0.00000000000E+00 -2.25205821856E+01  2.25205821856E+01  0.00000000000E+00 0.00000000000E+00  1.
       25    1    1    2    0    0  7.48705544733E+01  1.88242657220E+01  1.14426683958E+03  1.15366006825E+03  1.25000000000E+02 0.00000000000E+00  1.
        6    2    1    2  502    0 -9.39958375575E+00  1.00083828501E+02  9.23627111266E+02  9.45110161243E+02  1.73323545190E+02 0.00000000000E+00  1.
       -5    1    1    2    0  502 -6.54709707176E+01 -1.18908094223E+02  6.43314010544E+02  6.57478896270E+02  7.62939453125E-06 0.00000000000E+00  1.
        5    1    4    4  502    0  4.76547907933E+01  8.21309241610E+01  3.37731747917E+02  3.50858609472E+02  4.74999999998E+00 0.00000000000E+00  1.
       24    2    4    4    0    0 -5.70543745491E+01  1.79529043403E+01  5.85895363349E+02  5.94251551771E+02  7.92718207178E+01 0.00000000000E+00  1.
      -13    1    7    7    0    0 -1.73706116286E+01  4.26365801453E+01  1.85056736911E+02  1.90697727189E+02  1.05660000021E-01 0.00000000000E+00  1.
       14    1    7    7    0    0 -3.96837629205E+01 -2.46836758050E+01  4.00838626438E+02  4.03553824583E+02  9.34406182397E-06 0.00000000000E+00  1.
</event>
<event>
 9 112   1.0000000E+00   3.1250000E+01   7.8125000E-03   1.5660620E-01
        2   -1    0    0  501    0  0.00000000000E+00  0.00000000000E+00  4.17844639115E+02  4.17844639115E+02  0.00000000000E+00 0.00000000000E+00  1.
       -1   -1    0    0    0  501  0.00000000000E+00  0.00000000000E+00 -1.47438917343E+02  1.47438917343E+02  0.00000000000E+00 0.00000000000E+00  1.
       25    1    1    2    0    0 -5.37739723118E+01 -2.90929495765E+01  1.19036103079E+02  1.83119178814E+02  1.25000000000E+02 0.00000000000E+00  1.
        6    2    1    2  502    0  2.83995506149E+01  1.00537888259E+02  2.05938549108E+02  2.88751269857E+02  1.73355727868E+02 0.00000000000E+00  1.
       -5    1    1    2    0  502  2.53744216969E+01 -7.14449386826E+01 -5.45689304148E+01  9.34131077870E+01  1.50789149292E-06 0.00000000000E+00  1.
        5    1    4    4  502    0 -3.92109286116E-02  1.08234398151E+02  7.35842449396E+01  1.30965224713E+02  4.75000000000E+00 0.00000000000E+00  1.
       24    2    4    4    0    0  2.84387615435E+01 -7.69650989219E+00  1.32354304168E+02  1.57786045144E+02  8.06893722108E+01 0.00000000000E+00  1.
       -3    1    7    7    0  703 -5.78240976668E+00  3.18217146923E+01  6.42530519225E+01  7.19340842023E+01  1.90734863281E-06 0.00000000000E+00  1.
        4    1    7    7  703    0  3.42211713102E+01 -3.95182245845E+01  6.81012522454E+01  8.58519609417E+01  1.34869915235E-06 0.00000000000E+00  1.
</event>
<event>
 9 112   1.0000000E+00   3.1250000E+01   7.8125000E-03   1.5660620E-01
        2   -1    0    0  501    0  0.00000000000E+00  0.00000000000E+00  5.16546197373E+02  5.16546197373E+02  0.00000000000E+00 0.00000000000E+00  1.
       -1   -1    0    0    0  501  0.00000000000E+00  0.00000000000E+00 -3.83078398468E+02  3.83078398468E+02  0.00000000000E+00 0.00000000000E+00  1.
       25    1    1    2    0    0  4.71370870565E+01 -1.32011622725E+01  2.12337162865E+02  2.51213547396E+02  1.25000000000E+02 0.00000000000E+00  1.
        6    2    1    2  502    0  2.46846302343E+02 -6.10066759393E+01  6.13270638994E+01  3.14363035611E+02  1.74379465254E+02 0.00000000000E+00  1.
       -5    1    1    2    0  502 -2.93983389399E+02  7.42078382119E+01 -1.40196427860E+02  3.34048012835E+02  6.60724947956E-06 0.00000000000E+00  1.
        5    1    4    4  502    0  1.61495975026E+02 -9.21106173725E+01  4.67288499275E+01  1.91758868629E+02  4.75000000000E+00 0.00000000000E+00  1.
       24    2    4    4    0    0  8.53503273167E+01  3.11039414332E+01  1.45982139720E+01  1.22604166982E+02  8.10341925629E+01 0.00000000000E+00  1.
      -13    1    7    7    0    0 -1.13109422141E+01 -1.33311382569E+00 -1.26952170072E+01  1.70556238566E+01  1.05660000005E-01 0.00000000000E+00  1.
       14    1    7    7    0    0  9.66612695308E+01  3.24370552589E+01  2.72934309792E+01  1.05548543125E+02  7.53945746462E-07 0.00000000000E+00  1.
</event>
<event>
 9 112   1.0000000E+00   3.1250000E+01   7.8125000E-03   1.5660620E-01
        2   -1    0    0  501    0  0.00000000000E+00  0.00000000000E+00  1.62409949552E+03  1.62409949552E+03  0.00000000000E+00 0.00000000000E+00  1.
       -1   -1    0    0    0  501  0.00000000000E+00  0.00000000000E+00 -7.53501395731E+01  7.53501395731E+01  0.00000000000E+00 0.00000000000E+00  1.
       25    1    1    2    0    0 -1.46842026889E+02  4.95022513286E+01  3.06089869661E+02  3.65142522937E+02  1.25000000000E+02 0.00000000000E+00  1.
        6    2    1    2  502    0  2.03649642488E+02  1.32606827170E+01  1.21684328897E+03  1.24580419060E+03  1.72254082128E+02 0.00000000000E+00  1.
       -5    1    1    2    0  502 -5.68076155994E+01 -6.27629340456E+01  2.58161973128E+01  8.85029215551E+01  1.59402033333E-05 0.00000000000E+00  1.
        5    1    4    4  502    0  5.20430283031E+01 -2.91166108011E+01  6.24285877727E+02  6.27145655689E+02  4.75000000000E+00 0.00000000000E+00  1.
       24    2    4    4    0    0  1.51606614185E+02  4.23772935181E+01  5.92557411246E+02  6.18658534913E+02  8.26661764425E+01 0.00000000000E+00  1.
       -1    1    7    7    0  703  8.20374177652E+01 -1.85914164293E+01  2.46834968652E+02  2.60774386066E+02  7.13664510112E-06 0.00000000000E+00  1.
        2    1    7    7  703    0  6.95691964198E+01  6.09687099473E+01  3.45722442593E+02  3.57884148847E+02  6.60724947956E-06 0.00000000000E+00  1.
</event>
<event>
 9 112   1.0000000E+00   3.1250000E+01   7.8125000E-03   1.5660620E-01
        2   -1    0    0  501    0  0.00000000000E+00  0.00000000000E+00  3.54705468779E+03  3.54705468779E+03  0.00000000000E+00 0.00000000000E+00  1.
       -1   -1    0    0    0  501  0.00000000000E+00  0.00000000000E+00 -2.82316333472E+02  2.82316333472E+02  0.00000000000E+00 0.00000000000E+00  1.
       25    1    1    2    0    0 -1.71964622152E+02  5.11232107039E+02  8.85788056971E+02  1.04459350008E+03  1.25000000000E+02 0.00000000000E+00  1.
        6    2    1    2  502    0 -3.30192365809E+02  3.03534996765E+02  6.50336367443E+02  8.08894631771E+02  1.73817840829E+02 0.00000000000E+00  1.
       -5    1    1    2    0  502  5.02156987961E+02 -8.14767103804E+02  1.72861392990E+03  1.97588288940E+03  3.05175781250E-05 0.00000000000E+00  1.
        5    1    4    4  502    0 -6.54778023088E+00  2.34206539853E+01 -1.73288511912E+00  2.48387972713E+01  4.74999999999E+00 0.00000000000E+00  1.
       24    2    4    4    0    0 -3.23644585578E+02  2.80114342780E+02  6.52069252562E+02  7.84055834500E+02  7.96202152232E+01 0.00000000000E+00  1.
       -3    1    7    7    0  703 -1.86675273553E+02  1.50372059272E+02  2.94097903458E+02  3.79411374084E+02  7.62939453125E-06 0.00000000000E+00  1.
        4    1    7    7  703    0 -1.36969312025E+02  1.29742283507E+02  3.57971349103E+02  4.04644460416E+02  6.60724947956E-06 0.00000000000E+00  1.
</event>
<event>
 9 112   1.0000000E+00   3.1250000E+01   7.8125000E-03   1.5660620E-01
        2   -1    0    0  501    0  0.00000000000E+00  0.00000000000E+00  1.35500153434E+03  1.35500153434E+03  0.00000000000E+00 0.00000000000E+00  1.
       -1   -1    0    0    0  501  0.00000000000E+00  0.00000000000E+00 -1.31788285747E+02  1.31788285747E+02  0.00000000000E+00 0.00000000000E+00  1.
       25    1    1    2    0    0 -1.34932487847E+02  4.14173883409E+01  5.40979502609E+02  5.72892658861E+02  1.25000000000E+02 0.00000000000E+00  1.
        6    2    1    2  502    0 -1.47513246867E+02  3.25091061313E+01  5.42298095381E+02  5.90133812537E+02  1.77069738981E+02 0.00000000000E+00  1.
       -5    1    1    2    0  502  2.82445734715E+02 -7.39264944722E+01  1.39935650601E+02  3.23763348686E+02  9.91087421933E-06 0.00000000000E+00  1.
        5    1    4    4  502    0 -8.90887961562E+01  8.24714427173E+01  2.96468201236E+02  3.20397111892E+02  4.74999999999E+00 0.00000000000E+00  1.
       24    2    4    4    0    0 -5.84244507108E+01 -4.99623365860E+01  2.45829894145E+02  2.69736700645E+02  8.00993089962E+01 0.00000000000E+00  1.
      -15    1    7    7    0    0  1.41265270514E+01 -3.38120127225E+01  7.99008280257E+01  8.79210458782E+01  1.77680000000E+00 0.00000000000E+00  1.
       16    1    7    7    0    0 -7.25509777623E+01 -1.61503238635E+01  1.65929066119E+02  1.81815654767E+02  3.30362473978E-06 0.00000000000E+00  1.
</event>
<event>
 9 112   1.0000000E+00   3.1250000E+01   7.8125000E-03   1.5660620E-01
        2   -1    0    0  501    0  0.00000000000E+00  0.00000000000E+00  3.75981279393E+03  3.75981279393E+03  0.00000000000E+00 0.00000000000E+00  1.
       -1   -1    0    0    0  501  0.00000000000E+00  0.00000000000E+00 -1.87257771249E+01  1.87257771249E+01  0.00000000000E+00 0.00000000000E+00  1.
       25    1    1    2    0    0 -9.88348603368E+00 -6.08261699496E+01  1.42259206630E+03  1.42940221538E+03  1.25000000000E+02 0.00000000000E+00  1.
        6    2    1    2  502    0  1.19075445628E+01  2.64682837713E+01  2.30569903510E+03  2.31241719709E+03  1.73732245993E+02 0.00000000000E+00  1.
       -5    1    1    2    0  502 -2.02405852915E+00  3.43578861783E+01  1.27959154087E+01  3.67191585786E+01  2.33777896867E-05 0.00000000000E+00  1.
        5    1    4    4  502    0  5.57677434242E+01  4.72354561732E+01  6.54049504202E+02  6.58137178690E+02  4.75000000007E+00 0.00000000000E+00  1.
       24    2    4    4    0    0 -4.38601988614E+01 -2.07671724019E+01  1.65164953089E+03  1.65428001840E+03  7.96317391956E+01 0.00000000000E+00  1.
      -15    1    7    7    0    0  1.11578309029E+01  2.11055276915E+01  4.70497667868E+02  4.71106307512E+02  1.77680000000E+00 0.00000000000E+00  1.
       16    1    7    7    0    0 -5.50180297642E+01 -4.18727000934E+01  1.18115186303E+03  1.18317371089E+03  1.52587890625E-05 0.00000000000E+00  1.
</event>
</LesHouchesEvents>
