<LesHouchesEvents version="1.0">
<!--
Output from the JHUGenerator v7.5.1 described in arXiv:1001.3396 , arXiv:1208.4018 , arXiv:1309.4819 , arXiv:1606.03107 , arXiv:2002.09888 , arXiv:2104.04277, arXiv:2109.13363
   
   Command line: ./JHUGen Seed=765543533 PDFSet=3 Process=114 VegasNc0=100000 VegasNc2=100 DataFile=compare_to_reference/tqH_114 TopDK=1 DecayMode1=11 ghg2=0.383432074687728,0.918260989345657 ghg3=6294.49296087723,2253.12941717723 ghg4=0.335495485382528,0.17285803562226 ghz1=0.154934976270359,0.453918144016304 ghz2=0.469297059144414,0.745302300947002 ghz3=3947.40921062637,3597.4885961919 ghz4=0.177791270766536,0.920170534486048 ghzgs2=0.0240331049939919,0.232175381101053 ghzgs3=0.331962910170583,0.0450183240308457 ghzgs4=0.808286540247172,0.133184346613754 ghgsgs2=0.530394804029869,0.211218112389125 ghgsgs3=0.914978695198138,0.055650585081425 ghgsgs4=0.694524307167701,0.511424456076726 ghz1_prime=0.143354267833606,0.0910761280837012 ghz1_prime2=7416.7007267243,4861.35525489789 ghz1_prime3=4431.44656075298,4436.48625894176 ghz1_prime4=2441.69123517064,6946.16318931911 ghz1_prime5=78314042.889773,69465359.939181 ghz1_prime6=51233058.8130761,29537873.5850789 ghz1_prime7=47832192.9001564,59559649.9633293 g
   
   Input Parameter:
    Collider: P-P, sqrt(s)=13000.00
    Resonance: spin=0, mass= 125.00 width=   0.00407
    Top quark mass=173.2000, width=2.0000
    Top quark decay= 1
    Random seed:   765543533
    To reproduce results using this seed, JHUGen should be compiled with the same compiler:
      GNU Fortran (GCC) 6.3.0
    
    WidthScheme:   2
    PDFSet:   3
    Unweighted: T
    
    
    LHE output: compare_to_reference/tqH_114.lhe
    Histogram output: compare_to_reference/tqH_114.dat
    Log file: compare_to_reference/tqH_114.log
    
-->
<init>
2212 2212   6500.0000000000000000    6500.0000000000000000 0 0  263000  263000  3  1
 1.7064830E+04  4.4187853E+03  1.0000000E+00 114
</init>
<event>
 9 114   1.0000000E+00   7.4550000E+01   7.8125000E-03   1.3429423E-01
        2   -1    0    0  502    0  0.00000000000E+00  0.00000000000E+00  2.62709189900E+03  2.62709189900E+03  0.00000000000E+00  0.00000000000E+00  1.
        5   -1    0    0  501    0  0.00000000000E+00  0.00000000000E+00 -8.46142685304E+02  8.46142685304E+02  0.00000000000E+00  0.00000000000E+00  1.
       25    1    1    2    0    0  6.32272704631E+02  3.13573396924E+02  1.25919943617E+02  7.27721018304E+02  1.25000000000E+02  0.00000000000E+00  1.
        6    2    1    2  501    0  5.80300383684E+01 -7.81589875965E+01 -4.63736369047E+02  5.04731190435E+02  1.73855807857E+02  0.00000000000E+00  1.
        1    1    1    2  502    0 -6.90302743000E+02 -2.35414409327E+02  2.11876563913E+03  2.24078237557E+03  0.00000000000E+00  0.00000000000E+00  1.
        5    1    4    4  501    0 -1.81626322619E+01 -3.94027650782E+01 -2.44829330269E+01  5.00443365036E+01  4.74999999999E+00  0.00000000000E+00  1.
       24    2    4    4    0    0  7.61926706303E+01 -3.87562225183E+01 -4.39253436020E+02  4.54686853931E+02  8.05554854784E+01  0.00000000000E+00  1.
      -15    1    7    7    0    0  1.42368070765E+01  1.19940063717E+00 -6.67162751877E+00  1.58679825312E+01  1.77679999999E+00  0.00000000000E+00  1.
       16    1    7    7    0    0  6.19558635538E+01 -3.99556231555E+01 -4.32581808501E+02  4.38818871400E+02  7.62939453125E-06  0.00000000000E+00  1.
</event>
<event>
 9 114   1.0000000E+00   7.4550000E+01   7.8125000E-03   1.3429423E-01
        2   -1    0    0  502    0  0.00000000000E+00  0.00000000000E+00  3.93176715667E+03  3.93176715667E+03  0.00000000000E+00  0.00000000000E+00  1.
        5   -1    0    0  501    0  0.00000000000E+00  0.00000000000E+00 -1.68127482453E+03  1.68127482453E+03  0.00000000000E+00  0.00000000000E+00  1.
       25    1    1    2    0    0 -4.91069769398E+01 -6.51502696902E+02 -1.49716167251E+03  1.63828731695E+03  1.25000000000E+02  0.00000000000E+00  1.
        6    2    1    2  501    0  6.78453400019E+01  6.64041701741E+02  9.34722325715E+02  1.16173262679E+03  1.74248380600E+02  0.00000000000E+00  1.
        1    1    1    2  502    0 -1.87383630621E+01 -1.25390048383E+01  2.81293167894E+03  2.81302203746E+03  0.00000000000E+00  0.00000000000E+00  1.
        5    1    4    4  501    0 -2.12376356789E+01  1.71350313850E+01  1.67601663752E+01  3.23745601780E+01  4.74999999999E+00  0.00000000000E+00  1.
       24    2    4    4    0    0  8.90829756808E+01  6.46906670356E+02  9.17962159339E+02  1.12935806661E+03  7.98191701854E+01  0.00000000000E+00  1.
       -3    1    7    7    0  703  7.92864975139E+01  4.70094015182E+02  7.22475817021E+02  8.65589994153E+02  1.07895932188E-05  0.00000000000E+00  1.
        4    1    7    7  703    0  9.79647816689E+00  1.76812655174E+02  1.95486342318E+02  2.63768072456E+02  6.03156597170E-06  0.00000000000E+00  1.
</event>
<event>
 9 114   1.0000000E+00   7.4550000E+01   7.8125000E-03   1.3429423E-01
        2   -1    0    0  502    0  0.00000000000E+00  0.00000000000E+00  9.52733246849E+02  9.52733246849E+02  0.00000000000E+00  0.00000000000E+00  1.
        5   -1    0    0  501    0  0.00000000000E+00  0.00000000000E+00 -3.55771674081E+02  3.55771674081E+02  0.00000000000E+00  0.00000000000E+00  1.
       25    1    1    2    0    0  1.69211116491E+02 -1.11124020109E+02 -2.41098858004E+02  3.38724975637E+02  1.25000000000E+02  0.00000000000E+00  1.
        6    2    1    2  501    0 -2.09094181315E+02  1.52233614964E+02  3.13520012377E+02  4.42121620069E+02  1.74015167692E+02  0.00000000000E+00  1.
        1    1    1    2  502    0  3.98830648233E+01 -4.11095948551E+01  5.24540418395E+02  5.27658325224E+02  7.62939453125E-06  0.00000000000E+00  1.
        5    1    4    4  501    0 -4.12141254302E+01  4.36669616860E+01 -2.30947129635E+00  6.02768930481E+01  4.75000000000E+00  0.00000000000E+00  1.
       24    2    4    4    0    0 -1.67880055885E+02  1.08566653278E+02  3.15829483673E+02  3.81844727021E+02  7.80173149282E+01  0.00000000000E+00  1.
       -1    1    7    7    0  703 -1.17768560575E+02  1.14009842542E+02  2.32912077903E+02  2.84808205797E+02  0.00000000000E+00  0.00000000000E+00  1.
        2    1    7    7  703    0 -5.01114953092E+01 -5.44318926425E+00  8.29174057701E+01  9.70365212234E+01  3.16297987972E-06  0.00000000000E+00  1.
</event>
<event>
 9 114   1.0000000E+00   7.4550000E+01   7.8125000E-03   1.3429423E-01
        4   -1    0    0  502    0  0.00000000000E+00  0.00000000000E+00  2.34826415361E+03  2.34826415361E+03  0.00000000000E+00  0.00000000000E+00  1.
        5   -1    0    0  501    0  0.00000000000E+00  0.00000000000E+00 -1.17416391507E+02  1.17416391507E+02  0.00000000000E+00  0.00000000000E+00  1.
       25    1    1    2    0    0 -8.76578924758E+01 -2.80725836525E+02  1.95068195985E+02  3.74389506385E+02  1.25000000000E+02  0.00000000000E+00  1.
        6    2    1    2  501    0  4.15414754726E+00  2.82668143048E+02  1.02888002449E+03  1.08093301561E+03  1.72926410333E+02  0.00000000000E+00  1.
        3    1    1    2  502    0  8.35037449286E+01 -1.94230652240E+00  1.00689954163E+03  1.01035802313E+03  0.00000000000E+00  0.00000000000E+00  1.
        5    1    4    4  501    0  4.90656161260E+01  1.57316114005E+02  3.90913381160E+02  4.24254202668E+02  4.75000000001E+00  0.00000000000E+00  1.
       24    2    4    4    0    0 -4.49114685788E+01  1.25352029043E+02  6.37966643333E+02  6.56678812938E+02  8.05943804579E+01  0.00000000000E+00  1.
       -1    1    7    7    0  703 -2.20286441369E+01  1.13839340330E+02  3.76247210261E+02  3.93708800763E+02  9.34406182397E-06  0.00000000000E+00  1.
        2    1    7    7  703    0 -2.28828244418E+01  1.15126887133E+01  2.61719433072E+02  2.62970012175E+02  0.00000000000E+00  0.00000000000E+00  1.
</event>
<event>
 9 114   1.0000000E+00   7.4550000E+01   7.8125000E-03   1.3429423E-01
        2   -1    0    0  502    0  0.00000000000E+00  0.00000000000E+00  1.61785087290E+03  1.61785087290E+03  0.00000000000E+00  0.00000000000E+00  1.
        5   -1    0    0  501    0  0.00000000000E+00  0.00000000000E+00 -1.77151337270E+03  1.77151337270E+03  0.00000000000E+00  0.00000000000E+00  1.
       25    1    1    2    0    0 -1.45937617864E+01  1.37467408679E+02 -1.72060607078E+03  1.73067053975E+03  1.25000000000E+02  0.00000000000E+00  1.
        6    2    1    2  501    0  5.74152913862E+00 -3.05328610289E+02  8.13106330692E+02  8.86342535801E+02  1.76642747772E+02  0.00000000000E+00  1.
        1    1    1    2  502    0  8.85223264781E+00  1.67861201610E+02  7.53837240296E+02  7.72351170055E+02  1.52587890625E-05  0.00000000000E+00  1.
        5    1    4    4  501    0  6.26998522076E+00 -2.62834719565E+02  5.69234718068E+02  6.27034392420E+02  4.75000000001E+00  0.00000000000E+00  1.
       24    2    4    4    0    0 -5.28456082139E-01 -4.24938907242E+01  2.43871612624E+02  2.59308143381E+02  7.72097128938E+01  0.00000000000E+00  1.
       -1    1    7    7    0  703 -3.80918885207E+01 -1.43607172646E+01  9.97167403471E+01  1.07706315864E+02  1.90734863281E-06  0.00000000000E+00  1.
        2    1    7    7  703    0  3.75634324386E+01 -2.81331734596E+01  1.44154872277E+02  1.51601827518E+02  1.90734863281E-06  0.00000000000E+00  1.
</event>
<event>
 9 114   1.0000000E+00   7.4550000E+01   7.8125000E-03   1.3429423E-01
       -1   -1    0    0    0  502  0.00000000000E+00  0.00000000000E+00  6.07947298268E+02  6.07947298268E+02  0.00000000000E+00  0.00000000000E+00  1.
        5   -1    0    0  501    0  0.00000000000E+00  0.00000000000E+00 -4.83651711732E+02  4.83651711732E+02  0.00000000000E+00  0.00000000000E+00  1.
       25    1    1    2    0    0 -1.08704146282E+02  2.76670874570E+02 -2.96613486619E+02  4.38141443713E+02  1.25000000000E+02  0.00000000000E+00  1.
        6    2    1    2  501    0  2.02441106603E+02 -2.73342906119E+02  2.40316494492E+02  4.49959722140E+02  1.70331993633E+02  0.00000000000E+00  1.
       -2    1    1    2    0  502 -9.37369603209E+01 -3.32796845070E+00  1.80592578663E+02  2.03497844147E+02  5.04637014592E-06  0.00000000000E+00  1.
        5    1    4    4  501    0  1.08227812572E+01 -1.03312675681E+02  2.79016856911E+01  1.07664795151E+02  4.75000000000E+00  0.00000000000E+00  1.
       24    2    4    4    0    0  1.91618325346E+02 -1.70030230438E+02  2.12414808801E+02  3.42294926988E+02  8.01118229300E+01  0.00000000000E+00  1.
       -1    1    7    7    0  703  2.38108311658E+01 -5.06758516103E+01  1.72703258515E+01  5.85940421225E+01  1.70264921869E-06  0.00000000000E+00  1.
        2    1    7    7  703    0  1.67807494180E+02 -1.19354378828E+02  1.95144482949E+02  2.83700884866E+02  5.39479660939E-06  0.00000000000E+00  1.
</event>
<event>
 9 114   1.0000000E+00   7.4550000E+01   7.8125000E-03   1.3429423E-01
        2   -1    0    0  502    0  0.00000000000E+00  0.00000000000E+00  2.74683720348E+03  2.74683720348E+03  0.00000000000E+00  0.00000000000E+00  1.
        5   -1    0    0  501    0  0.00000000000E+00  0.00000000000E+00 -4.64907397183E+02  4.64907397183E+02  0.00000000000E+00  0.00000000000E+00  1.
       25    1    1    2    0    0 -3.60652036007E+02  2.21232235527E+02 -3.02489882665E+02  5.34919360490E+02  1.25000000000E+02  0.00000000000E+00  1.
        6    2    1    2  501    0  4.39824136751E+02 -1.90518260930E+02  1.40975597569E+03  1.49909589561E+03  1.73591803428E+02  0.00000000000E+00  1.
        1    1    1    2  502    0 -7.91721007439E+01 -3.07139745972E+01  1.17466371328E+03  1.17772934457E+03  2.64289979182E-05  0.00000000000E+00  1.
        5    1    4    4  501    0  2.83913509954E+02 -1.62582492626E+02  1.01459683390E+03  1.06605311589E+03  4.74999999999E+00  0.00000000000E+00  1.
       24    2    4    4    0    0  1.55910626797E+02 -2.79357683037E+01  3.95159141791E+02  4.33042779717E+02  7.92891608282E+01  0.00000000000E+00  1.
       -1    1    7    7    0  703  1.24086930418E+02 -4.97611259047E+01  2.58309260888E+02  2.90856339475E+02  7.62939453125E-06  0.00000000000E+00  1.
        2    1    7    7  703    0  3.18236963785E+01  2.18253576010E+01  1.36849880903E+02  1.42186440242E+02  4.26496119976E-06  0.00000000000E+00  1.
</event>
<event>
 9 114   1.0000000E+00   7.4550000E+01   7.8125000E-03   1.3429423E-01
        2   -1    0    0  502    0  0.00000000000E+00  0.00000000000E+00  1.90780040250E+03  1.90780040250E+03  0.00000000000E+00  0.00000000000E+00  1.
        5   -1    0    0  501    0  0.00000000000E+00  0.00000000000E+00 -1.26443265945E+02  1.26443265945E+02  0.00000000000E+00  0.00000000000E+00  1.
       25    1    1    2    0    0  2.27708464718E+02 -4.12495502126E+01  4.51939250815E+01  2.66871057182E+02  1.25000000000E+02  0.00000000000E+00  1.
        6    2    1    2  501    0 -2.13337429032E+02  6.31712236085E+01  1.28689717988E+03  1.31734255274E+03  1.72579221109E+02  0.00000000000E+00  1.
        1    1    1    2  502    0 -1.43710356862E+01 -2.19216733959E+01  4.49266031595E+02  4.50030058525E+02  7.62939453125E-06  0.00000000000E+00  1.
        5    1    4    4  501    0 -1.06266561827E+01  4.18873792949E+01  7.80138611632E+01  8.93095929865E+01  4.74999999998E+00  0.00000000000E+00  1.
       24    2    4    4    0    0 -2.02710772849E+02  2.12838443136E+01  1.20888331872E+03  1.22803295975E+03  7.15640448240E+01  0.00000000000E+00  1.
       -3    1    7    7    0  703 -9.09850697129E+01 -2.48935767883E+01  4.77940131949E+02  4.87159873967E+02  9.34406182397E-06  0.00000000000E+00  1.
        2    1    7    7  703    0 -1.11725703136E+02  4.61774211019E+01  7.30943186767E+02  7.40873085786E+02  0.00000000000E+00  0.00000000000E+00  1.
</event>
<event>
 9 114   1.0000000E+00   7.4550000E+01   7.8125000E-03   1.3429423E-01
        5   -1    0    0  501    0  0.00000000000E+00  0.00000000000E+00  6.86531022809E+02  6.86531022809E+02  0.00000000000E+00  0.00000000000E+00  1.
       -1   -1    0    0    0  502  0.00000000000E+00  0.00000000000E+00 -8.41309192191E+02  8.41309192191E+02  0.00000000000E+00  0.00000000000E+00  1.
       25    1    1    2    0    0  1.22273994349E+02 -2.02423860264E+02  5.84396516792E+02  6.42705716279E+02  1.25000000000E+02  0.00000000000E+00  1.
        6    2    1    2  501    0  1.01704882689E+01  1.21326906762E+02 -1.14931140404E+02  2.41862968745E+02  1.74541890329E+02  0.00000000000E+00  1.
       -2    1    1    2    0  502 -1.32444482618E+02  8.10969535026E+01 -6.24243545770E+02  6.43271529977E+02  0.00000000000E+00  0.00000000000E+00  1.
        5    1    4    4  501    0 -1.63635907869E+01 -3.26447914549E+01 -2.74051196387E+01  4.59026425709E+01  4.75000000000E+00  0.00000000000E+00  1.
       24    2    4    4    0    0  2.65340790559E+01  1.53971698216E+02 -8.75260207652E+01  1.95960326174E+02  7.95506374594E+01  0.00000000000E+00  1.
       -1    1    7    7    0  703 -2.63766461263E+01  2.84759777949E+01 -2.44097013850E+01  4.58523968179E+01  1.99475294717E-06  0.00000000000E+00  1.
        2    1    7    7  703    0  5.29107251821E+01  1.25495720422E+02 -6.31163193802E+01  1.50107929356E+02  2.33601545599E-06  0.00000000000E+00  1.
</event>
<event>
 9 114   1.0000000E+00   7.4550000E+01   7.8125000E-03   1.3429423E-01
        2   -1    0    0  502    0  0.00000000000E+00  0.00000000000E+00  1.55424262192E+03  1.55424262192E+03  0.00000000000E+00  0.00000000000E+00  1.
        5   -1    0    0  501    0  0.00000000000E+00  0.00000000000E+00 -1.28084664234E+03  1.28084664234E+03  0.00000000000E+00  0.00000000000E+00  1.
       25    1    1    2    0    0  8.86967139648E+02 -2.06003828579E+02 -6.32999356042E+02  1.11600245025E+03  1.25000000000E+02  0.00000000000E+00  1.
        6    2    1    2  501    0 -8.71076072911E+02  3.06114406494E+02  1.44067760413E+02  9.50049763062E+02  1.71346076827E+02  0.00000000000E+00  1.
        1    1    1    2  502    0 -1.58910667373E+01 -1.00110577915E+02  7.62327575207E+02  7.69037050949E+02  2.15791864376E-05  0.00000000000E+00  1.
        5    1    4    4  501    0 -1.55129188115E+02  8.62780532001E+01  7.80103623959E+01  1.93951402703E+02  4.75000000000E+00  0.00000000000E+00  1.
       24    2    4    4    0    0 -7.15946884795E+02  2.19836353294E+02  6.60573980167E+01  7.56098360359E+02  8.00823740134E+01  0.00000000000E+00  1.
      -13    1    7    7    0    0 -7.67773169972E+01  5.03724171913E+01  3.51300984489E+00  9.18939019804E+01  1.05659999889E-01  0.00000000000E+00  1.
       14    1    7    7    0    0 -6.39169567798E+02  1.69463936103E+02  6.25443881718E+01  6.64204458379E+02  6.53806171455E-06  0.00000000000E+00  1.
</event>
<event>
 9 114   1.0000000E+00   7.4550000E+01   7.8125000E-03   1.3429423E-01
        2   -1    0    0  502    0  0.00000000000E+00  0.00000000000E+00  5.50156024915E+02  5.50156024915E+02  0.00000000000E+00  0.00000000000E+00  1.
        5   -1    0    0  501    0  0.00000000000E+00  0.00000000000E+00 -9.07402382535E+02  9.07402382535E+02  0.00000000000E+00  0.00000000000E+00  1.
       25    1    1    2    0    0  1.44167932818E+02 -1.22616235712E+02 -8.46507118054E+02  8.76366609946E+02  1.25000000000E+02  0.00000000000E+00  1.
        6    2    1    2  501    0 -1.43095226991E+02  5.46302200048E+01  2.92271596964E+02  3.72797988685E+02  1.73478958524E+02  0.00000000000E+00  1.
        1    1    1    2  502    0 -1.07270582682E+00  6.79860157072E+01  1.96989163469E+02  2.08393808819E+02  3.81469726562E-06  0.00000000000E+00  1.
        5    1    4    4  501    0 -1.11799648377E+02 -1.19304805184E+01  1.23942346852E+02  1.67408977017E+02  4.75000000000E+00  0.00000000000E+00  1.
       24    2    4    4    0    0 -3.12955786135E+01  6.65607005232E+01  1.68329250112E+02  2.05389011668E+02  9.18703955357E+01  0.00000000000E+00  1.
      -15    1    7    7    0    0 -4.83544707810E+01  8.81811116922E+00  1.14533505704E+02  1.24647482430E+02  1.77680000000E+00  0.00000000000E+00  1.
       16    1    7    7    0    0  1.70588921675E+01  5.77425893540E+01  5.37957444082E+01  8.07415292382E+01  1.34869915235E-06  0.00000000000E+00  1.
</event>
<event>
 9 114   1.0000000E+00   7.4550000E+01   7.8125000E-03   1.3429423E-01
        2   -1    0    0  502    0  0.00000000000E+00  0.00000000000E+00  2.10664241260E+03  2.10664241260E+03  0.00000000000E+00  0.00000000000E+00  1.
        5   -1    0    0  501    0  0.00000000000E+00  0.00000000000E+00 -3.49639085757E+02  3.49639085757E+02  0.00000000000E+00  0.00000000000E+00  1.
       25    1    1    2    0    0 -2.34678400380E+01 -3.60325171744E+02 -1.95988935748E+02  4.29443397718E+02  1.25000000000E+02  0.00000000000E+00  1.
        6    2    1    2  501    0  2.62136578922E+01  3.36225987734E+02  9.35592240804E+02  1.00914899560E+03  1.71212685206E+02  0.00000000000E+00  1.
        1    1    1    2  502    0 -2.74581785419E+00  2.40991840097E+01  1.01740002179E+03  1.01768910504E+03  2.64289979182E-05  0.00000000000E+00  1.
        5    1    4    4  501    0 -4.85142682204E+01  8.55747298438E+01  3.28503718405E+02  3.42948865160E+02  4.74999999999E+00  0.00000000000E+00  1.
       24    2    4    4    0    0  7.47279261125E+01  2.50651257891E+02  6.07088522400E+02  6.66200130438E+02  8.27999018307E+01  0.00000000000E+00  1.
       -3    1    7    7    0  703  4.41871597837E+01  1.75361355324E+02  5.00546050978E+02  5.32212795018E+02  1.07895932188E-05  0.00000000000E+00  1.
        4    1    7    7  703    0  3.05407663288E+01  7.52899025668E+01  1.06542471422E+02  1.33987335421E+02  2.33601545599E-06  0.00000000000E+00  1.
</event>
<event>
 9 114   1.0000000E+00   7.4550000E+01   7.8125000E-03   1.3429423E-01
        2   -1    0    0  502    0  0.00000000000E+00  0.00000000000E+00  1.02636848031E+03  1.02636848031E+03  0.00000000000E+00  0.00000000000E+00  1.
        5   -1    0    0  501    0  0.00000000000E+00  0.00000000000E+00 -3.53650870928E+02  3.53650870928E+02  0.00000000000E+00  0.00000000000E+00  1.
       25    1    1    2    0    0  1.09770786284E+01 -1.79359725981E+02 -2.81046098872E+02  3.56233515058E+02  1.25000000000E+02  0.00000000000E+00  1.
        6    2    1    2  501    0 -1.69409762713E+01  1.62227379852E+02  3.53592623849E+02  4.23340654740E+02  1.66086865419E+02  0.00000000000E+00  1.
        1    1    1    2  502    0  5.96389764296E+00  1.71323461296E+01  6.00171084401E+02  6.00445181436E+02  0.00000000000E+00  0.00000000000E+00  1.
        5    1    4    4  501    0 -6.91508888815E+00  5.50356477211E+01  1.30509765464E+01  5.71806913496E+01  4.75000000000E+00  0.00000000000E+00  1.
       24    2    4    4    0    0 -1.00258873832E+01  1.07191732131E+02  3.40541647303E+02  3.66159963390E+02  8.07088556942E+01  0.00000000000E+00  1.
       -3    1    7    7    0  703 -3.57255691513E+01  9.15273486511E+01  2.05165070435E+02  2.27478082393E+02  2.69739830470E-06  0.00000000000E+00  1.
        4    1    7    7  703    0  2.56996817681E+01  1.56643834796E+01  1.35376576867E+02  1.38681880998E+02  1.90734863281E-06  0.00000000000E+00  1.
</event>
<event>
 9 114   1.0000000E+00   7.4550000E+01   7.8125000E-03   1.3429423E-01
        5   -1    0    0  501    0  0.00000000000E+00  0.00000000000E+00  3.54476468981E+03  3.54476468981E+03  0.00000000000E+00  0.00000000000E+00  1.
       -3   -1    0    0    0  502  0.00000000000E+00  0.00000000000E+00 -8.75654169847E+02  8.75654169847E+02  0.00000000000E+00  0.00000000000E+00  1.
       25    1    1    2    0    0  3.97215253186E+02  4.81196647608E+02  3.36126511093E+03  3.42097329966E+03  1.25000000000E+02  0.00000000000E+00  1.
        6    2    1    2  501    0 -3.98118237924E+02 -4.69921627360E+02 -5.12044240391E+02  8.18980383712E+02  1.70924245089E+02  0.00000000000E+00  1.
       -4    1    1    2    0  502  9.02984738202E-01 -1.12750202476E+01 -1.80110350582E+02  1.80465176280E+02  4.26496119976E-06  0.00000000000E+00  1.
        5    1    4    4  501    0 -1.79508332673E+02 -3.02732012843E+02 -2.68471380308E+02  4.42684264057E+02  4.74999999999E+00  0.00000000000E+00  1.
       24    2    4    4    0    0 -2.18609905250E+02 -1.67189614516E+02 -2.43572860083E+02  3.76296119655E+02  8.07983516071E+01  0.00000000000E+00  1.
      -15    1    7    7    0    0 -2.05756247078E+02 -1.51097686924E+02 -1.88025057013E+02  3.17053186844E+02  1.77680000001E+00  0.00000000000E+00  1.
       16    1    7    7    0    0 -1.28536581727E+01 -1.60919275929E+01 -5.55478030699E+01  5.92429328103E+01  3.69356474515E-06  0.00000000000E+00  1.
</event>
<event>
 9 114   1.0000000E+00   7.4550000E+01   7.8125000E-03   1.3429423E-01
        2   -1    0    0  502    0  0.00000000000E+00  0.00000000000E+00  3.55253863459E+03  3.55253863459E+03  0.00000000000E+00  0.00000000000E+00  1.
        5   -1    0    0  501    0  0.00000000000E+00  0.00000000000E+00 -1.13438219768E+03  1.13438219768E+03  0.00000000000E+00  0.00000000000E+00  1.
       25    1    1    2    0    0  9.38307130012E+02  1.75845886659E+02 -7.07256650481E+02  1.19464597925E+03  1.25000000000E+02  0.00000000000E+00  1.
        6    2    1    2  501    0 -8.36503121229E+02 -8.41988467482E+01  8.34211797853E+02  1.19698258725E+03  1.73294757196E+02  0.00000000000E+00  1.
        1    1    1    2  502    0 -1.01804008782E+02 -9.16470399111E+01  2.29120128955E+03  2.29529226578E+03  4.31583728752E-05  0.00000000000E+00  1.
        5    1    4    4  501    0 -1.55095475147E+02  4.10511111726E+01  1.74378100168E+02  2.37002287874E+02  4.74999999999E+00  0.00000000000E+00  1.
       24    2    4    4    0    0 -6.81407646083E+02 -1.25249957921E+02  6.59833697685E+02  9.59980299371E+02  7.85985653866E+01  0.00000000000E+00  1.
       -1    1    7    7    0  703 -2.49843941111E+02 -8.54326041917E+00  2.25353120660E+02  3.36569474551E+02  8.94625808682E-06  0.00000000000E+00  1.
        2    1    7    7  703    0 -4.31563704972E+02 -1.16706697502E+02  4.34480577025E+02  6.23410824820E+02  1.07895932188E-05  0.00000000000E+00  1.
</event>
<event>
 9 114   1.0000000E+00   7.4550000E+01   7.8125000E-03   1.3429423E-01
        5   -1    0    0  501    0  0.00000000000E+00  0.00000000000E+00  8.61972308477E+02  8.61972308477E+02  0.00000000000E+00  0.00000000000E+00  1.
        2   -1    0    0  502    0  0.00000000000E+00  0.00000000000E+00 -1.70057606278E+03  1.70057606278E+03  0.00000000000E+00  0.00000000000E+00  1.
       25    1    1    2    0    0 -1.83150122905E+02  5.60516513303E+02  6.37650768799E+02  8.77465801132E+02  1.25000000000E+02  0.00000000000E+00  1.
        6    2    1    2  501    0  2.15854844360E+02 -5.77962390141E+02 -8.89937413315E+02  1.09759494417E+03  1.79143025528E+02  0.00000000000E+00  1.
        1    1    1    2  502    0 -3.27047214548E+01  1.74458768384E+01 -5.86317109788E+02  5.87487625958E+02  1.52587890625E-05  0.00000000000E+00  1.
        5    1    4    4  501    0  1.96680940168E+01 -1.99383037903E+02 -2.04540816436E+02  2.86356312683E+02  4.74999999999E+00  0.00000000000E+00  1.
       24    2    4    4    0    0  1.96186750343E+02 -3.78579352239E+02 -6.85396596879E+02  8.11238631485E+02  8.07963814079E+01  0.00000000000E+00  1.
       -3    1    7    7    0  703  9.05653225956E+01 -1.91270281380E+02 -4.14219426662E+02  4.65149579835E+02  5.39479660939E-06  0.00000000000E+00  1.
        4    1    7    7  703    0  1.05621427747E+02 -1.87309070859E+02 -2.71177170217E+02  3.46089051651E+02  6.60724947956E-06  0.00000000000E+00  1.
</event>
<event>
 9 114   1.0000000E+00   7.4550000E+01   7.8125000E-03   1.3429423E-01
        2   -1    0    0  502    0  0.00000000000E+00  0.00000000000E+00  1.86034857950E+03  1.86034857950E+03  0.00000000000E+00  0.00000000000E+00  1.
        5   -1    0    0  501    0  0.00000000000E+00  0.00000000000E+00 -3.31467230339E+02  3.31467230339E+02  0.00000000000E+00  0.00000000000E+00  1.
       25    1    1    2    0    0  5.11241829500E+01  1.22107871419E+02 -2.94567746116E+02  3.46293475821E+02  1.25000000000E+02  0.00000000000E+00  1.
        6    2    1    2  501    0 -4.55152333893E+01 -1.28726590877E+02  1.09894695924E+03  1.12096825537E+03  1.73905832734E+02  0.00000000000E+00  1.
        1    1    1    2  502    0 -5.60894956060E+00  6.61871945823E+00  7.24502136032E+02  7.24554078643E+02  1.07895932188E-05  0.00000000000E+00  1.
        5    1    4    4  501    0 -5.42824981548E+01 -2.37024124227E+01  6.48610738908E+02  6.51326989374E+02  4.74999999998E+00  0.00000000000E+00  1.
       24    2    4    4    0    0  8.76726476545E+00 -1.05024178454E+02  4.50336220333E+02  4.69641265999E+02  8.15675449755E+01  0.00000000000E+00  1.
      -15    1    7    7    0    0  1.79804383871E+01 -7.30735435799E+01  4.12317631733E+02  4.19132467595E+02  1.77679999999E+00  0.00000000000E+00  1.
       16    1    7    7    0    0 -9.21317362168E+00 -3.19506348744E+01  3.80185886005E+01  5.05087984042E+01  1.34869915235E-06  0.00000000000E+00  1.
</event>
<event>
 9 114   1.0000000E+00   7.4550000E+01   7.8125000E-03   1.3429423E-01
        2   -1    0    0  502    0  0.00000000000E+00  0.00000000000E+00  2.69429618539E+03  2.69429618539E+03  0.00000000000E+00  0.00000000000E+00  1.
        5   -1    0    0  501    0  0.00000000000E+00  0.00000000000E+00 -2.44956059306E+03  2.44956059306E+03  0.00000000000E+00  0.00000000000E+00  1.
       25    1    1    2    0    0 -6.25623898092E+02  7.67595222661E+02 -2.21586896392E+03  2.43028968499E+03  1.25000000000E+02  0.00000000000E+00  1.
        6    2    1    2  501    0  4.38219137618E+02 -7.84101918410E+02  1.70544601924E+03  1.93532713607E+03  1.73473825233E+02  0.00000000000E+00  1.
        1    1    1    2  502    0  1.87404760474E+02  1.65066957488E+01  7.55158537013E+02  7.78239957389E+02  1.07895932188E-05  0.00000000000E+00  1.
        5    1    4    4  501    0  2.82333638656E+02 -5.58609655780E+02  1.24256376623E+03  1.39131028412E+03  4.74999999988E+00  0.00000000000E+00  1.
       24    2    4    4    0    0  1.55885498963E+02 -2.25492262629E+02  4.62882253008E+02  5.44016851950E+02  8.09154235182E+01  0.00000000000E+00  1.
       -1    1    7    7    0  703  1.38556227749E+02 -1.42518833398E+02  3.54519240973E+02  4.06439833606E+02  8.52992239952E-06  0.00000000000E+00  1.
        2    1    7    7  703    0  1.73292712134E+01 -8.29734292315E+01  1.08363012035E+02  1.37577018344E+02  1.34869915235E-06  0.00000000000E+00  1.
</event>
<event>
 9 114   1.0000000E+00   7.4550000E+01   7.8125000E-03   1.3429423E-01
        5   -1    0    0  501    0  0.00000000000E+00  0.00000000000E+00  8.46129055420E+02  8.46129055420E+02  0.00000000000E+00  0.00000000000E+00  1.
        2   -1    0    0  502    0  0.00000000000E+00  0.00000000000E+00 -1.45846866067E+03  1.45846866067E+03  0.00000000000E+00  0.00000000000E+00  1.
       25    1    1    2    0    0 -4.32792971282E+01  2.55882692763E+02  7.66711872499E+02  8.19036718009E+02  1.25000000000E+02  0.00000000000E+00  1.
        6    2    1    2  501    0 -1.12008827339E+01 -2.34728266202E+02 -3.51758669539E+02  4.56607105254E+02  1.71851878792E+02  0.00000000000E+00  1.
        1    1    1    2  502    0  5.44801798620E+01 -2.11544265604E+01 -1.02729280821E+03  1.02895389283E+03  2.15791864376E-05  0.00000000000E+00  1.
        5    1    4    4  501    0 -4.27853026807E+01 -1.85350084638E+02 -2.49888882345E+02  3.14089560509E+02  4.74999999999E+00  0.00000000000E+00  1.
       24    2    4    4    0    0  3.15844199469E+01 -4.93781815638E+01 -1.01869787193E+02  1.42517544745E+02  8.06102761400E+01  0.00000000000E+00  1.
       -1    1    7    7    0  703  2.77274038169E+01  6.25643253605E+00 -7.58050297827E+01  8.09589674518E+01  0.00000000000E+00  0.00000000000E+00  1.
        2    1    7    7  703    0  3.85701613000E+00 -5.56346140998E+01 -2.60647574103E+01  6.15585772929E+01  0.00000000000E+00  0.00000000000E+00  1.
</event>
<event>
 9 114   1.0000000E+00   7.4550000E+01   7.8125000E-03   1.3429423E-01
        2   -1    0    0  502    0  0.00000000000E+00  0.00000000000E+00  7.60370631835E+02  7.60370631835E+02  0.00000000000E+00  0.00000000000E+00  1.
        5   -1    0    0  501    0  0.00000000000E+00  0.00000000000E+00 -7.38068881508E+02  7.38068881508E+02  0.00000000000E+00  0.00000000000E+00  1.
       25    1    1    2    0    0  2.07479183987E+02  7.74014948014E+01 -6.25296698141E+02  6.75025602397E+02  1.25000000000E+02  0.00000000000E+00  1.
        6    2    1    2  501    0 -3.14154068807E+02 -4.79140938249E+01  3.41116106090E+02  4.97560471411E+02  1.73832348952E+02  0.00000000000E+00  1.
        1    1    1    2  502    0  1.06674884820E+02 -2.94874009765E+01  3.06482342377E+02  3.25853439535E+02  5.39479660939E-06  0.00000000000E+00  1.
        5    1    4    4  501    0  1.26045190530E+01 -7.17276855123E+00 -1.68400392814E+00  1.53532041762E+01  4.74999999999E+00  0.00000000000E+00  1.
       24    2    4    4    0    0 -3.26758587860E+02 -4.07413252737E+01  3.42800110018E+02  4.82207267235E+02  8.11227638873E+01  0.00000000000E+00  1.
       -3    1    7    7    0  703 -2.05400305098E+02 -5.81184151745E+01  2.48112157985E+02  3.27302121069E+02  2.69739830470E-06  0.00000000000E+00  1.
        4    1    7    7  703    0 -1.21358282762E+02  1.73770899008E+01  9.46879520338E+01  1.54905146166E+02  1.90734863281E-06  0.00000000000E+00  1.
</event>
<event>
 9 114   1.0000000E+00   7.4550000E+01   7.8125000E-03   1.3429423E-01
        2   -1    0    0  502    0  0.00000000000E+00  0.00000000000E+00  4.22100397792E+03  4.22100397792E+03  0.00000000000E+00  0.00000000000E+00  1.
        5   -1    0    0  501    0  0.00000000000E+00  0.00000000000E+00 -3.19494875779E+02  3.19494875779E+02  0.00000000000E+00  0.00000000000E+00  1.
       25    1    1    2    0    0  1.30542292032E+02 -2.98918480061E+02 -1.19657818904E+02  3.69237784301E+02  1.25000000000E+02  0.00000000000E+00  1.
        6    2    1    2  501    0 -2.33064913890E+02  2.02123679133E+02  3.49623651048E+02  4.97011471870E+02  1.72076930601E+02  0.00000000000E+00  1.
        1    1    1    2  502    0  1.02522621857E+02  9.67948009280E+01  3.67154326999E+03  3.67424959753E+03  6.10351562500E-05  0.00000000000E+00  1.
        5    1    4    4  501    0 -1.55167099027E+02  6.18616214493E+01  1.18576158265E+02  2.04906214249E+02  4.75000000000E+00  0.00000000000E+00  1.
       24    2    4    4    0    0 -7.78978148622E+01  1.40262057683E+02  2.31047492783E+02  2.92105257621E+02  7.87465759398E+01  0.00000000000E+00  1.
      -13    1    7    7    0    0 -1.90855367159E+01  5.37974132082E+01  2.77064682817E+01  6.34513902788E+01  1.05660000028E-01  0.00000000000E+00  1.
       14    1    7    7    0    0 -5.88122781463E+01  8.64646444751E+01  2.03341024502E+02  2.28653867342E+02  2.69739830470E-06  0.00000000000E+00  1.
</event>
<event>
 9 114   1.0000000E+00   7.4550000E+01   7.8125000E-03   1.3429423E-01
        2   -1    0    0  502    0  0.00000000000E+00  0.00000000000E+00  2.11596193467E+03  2.11596193467E+03  0.00000000000E+00  0.00000000000E+00  1.
        5   -1    0    0  501    0  0.00000000000E+00  0.00000000000E+00 -6.46200890024E+02  6.46200890024E+02  0.00000000000E+00  0.00000000000E+00  1.
       25    1    1    2    0    0 -1.76068346724E+01 -2.49576359879E+02 -5.64635301425E+02  6.30108231697E+02  1.25000000000E+02  0.00000000000E+00  1.
        6    2    1    2  501    0 -1.28381589085E+02  3.48686621312E+02  1.74922447608E+03  1.79670632742E+03  1.74078048500E+02  0.00000000000E+00  1.
        1    1    1    2  502    0  1.45988423757E+02 -9.91102614330E+01  2.85171869991E+02  3.35348265578E+02  1.26519195189E-05  0.00000000000E+00  1.
        5    1    4    4  501    0  2.49895041355E+01  6.12783582404E+01  1.73755497673E+02  1.85992064286E+02  4.74999999997E+00  0.00000000000E+00  1.
       24    2    4    4    0    0 -1.53371093220E+02  2.87408263072E+02  1.57546897841E+03  1.61071426313E+03  7.85603819954E+01  0.00000000000E+00  1.
       -1    1    7    7    0  703 -7.78482177466E+01  1.62352910121E+02  1.04952373476E+03  1.06485627305E+03  0.00000000000E+00  0.00000000000E+00  1.
        4    1    7    7  703    0 -7.55228754735E+01  1.25055352951E+02  5.25945243645E+02  5.45857990080E+02  7.62939453125E-06  0.00000000000E+00  1.
</event>
<event>
 9 114   1.0000000E+00   7.4550000E+01   7.8125000E-03   1.3429423E-01
        2   -1    0    0  502    0  0.00000000000E+00  0.00000000000E+00  5.18769544105E+02  5.18769544105E+02  0.00000000000E+00  0.00000000000E+00  1.
        5   -1    0    0  501    0  0.00000000000E+00  0.00000000000E+00 -8.03707625735E+02  8.03707625735E+02  0.00000000000E+00  0.00000000000E+00  1.
       25    1    1    2    0    0 -2.04415817027E+02 -3.85780733099E+02 -5.58242493588E+02  7.19633435805E+02  1.25000000000E+02  0.00000000000E+00  1.
        6    2    1    2  501    0  1.49876572439E+02  3.13286414790E+02  8.73469915988E+01  3.95937674254E+02  1.68895767544E+02  0.00000000000E+00  1.
        1    1    1    2  502    0  5.45392445878E+01  7.24943183083E+01  1.85957420359E+02  2.06906059780E+02  3.81469726562E-06  0.00000000000E+00  1.
        5    1    4    4  501    0 -3.53542144235E+00  6.02872272806E+01  5.96974398387E+01  8.50493727270E+01  4.75000000000E+00  0.00000000000E+00  1.
       24    2    4    4    0    0  1.53411993881E+02  2.52999187510E+02  2.76495517602E+01  3.10888301527E+02  9.13411712579E+01  0.00000000000E+00  1.
      -13    1    7    7    0    0  4.19440186438E+01  8.03638808027E+01  5.10967435836E+01  1.04060282560E+02  1.05660000004E-01  0.00000000000E+00  1.
       14    1    7    7    0    0  1.11467975238E+02  1.72635306707E+02 -2.34471918234E+01  2.06828018967E+02  5.84003863998E-07  0.00000000000E+00  1.
</event>
<event>
 9 114   1.0000000E+00   7.4550000E+01   7.8125000E-03   1.3429423E-01
        5   -1    0    0  501    0  0.00000000000E+00  0.00000000000E+00  7.91965060078E+02  7.91965060078E+02  0.00000000000E+00  0.00000000000E+00  1.
        2   -1    0    0  502    0  0.00000000000E+00  0.00000000000E+00 -6.09081657896E+02  6.09081657896E+02  0.00000000000E+00  0.00000000000E+00  1.
       25    1    1    2    0    0  1.35000074119E+02 -1.01036750900E+02  7.34564350125E+02  7.63965463564E+02  1.25000000000E+02  0.00000000000E+00  1.
        6    2    1    2  501    0 -8.11439224890E+01  2.07956182677E+01 -2.16911053185E+02  2.88641866752E+02  1.71017333485E+02  0.00000000000E+00  1.
        1    1    1    2  502    0 -5.38561516302E+01  8.02411326326E+01 -3.34769894759E+02  3.48439387658E+02  6.60724947956E-06  0.00000000000E+00  1.
        5    1    4    4  501    0 -1.91495319765E+01 -5.47702393466E+01 -1.06439298220E+02  1.21319291123E+02  4.75000000000E+00  0.00000000000E+00  1.
       24    2    4    4    0    0 -6.19943905124E+01  7.55658576143E+01 -1.10471754965E+02  1.67322575629E+02  7.89894447264E+01  0.00000000000E+00  1.
       -3    1    7    7    0  703 -5.27454752431E+01  6.44531912523E+00 -6.54955435617E+01  8.43403433933E+01  0.00000000000E+00  0.00000000000E+00  1.
        4    1    7    7  703    0 -9.24891526930E+00  6.91205384890E+01 -4.49762114029E+01  8.29822322358E+01  2.18514237163E-06  0.00000000000E+00  1.
</event>
<event>
 9 114   1.0000000E+00   7.4550000E+01   7.8125000E-03   1.3429423E-01
        5   -1    0    0  501    0  0.00000000000E+00  0.00000000000E+00  4.99298735153E+02  4.99298735153E+02  0.00000000000E+00  0.00000000000E+00  1.
        2   -1    0    0  502    0  0.00000000000E+00  0.00000000000E+00 -2.45579222161E+03  2.45579222161E+03  0.00000000000E+00  0.00000000000E+00  1.
       25    1    1    2    0    0 -3.19305393455E+02 -7.12767664600E+02 -2.51464124960E+02  8.29971616461E+02  1.25000000000E+02  0.00000000000E+00  1.
        6    2    1    2  501    0  4.56186255870E+02  8.17951988735E+02 -9.32868903530E+02  1.33389757279E+03  1.78569279547E+02  0.00000000000E+00  1.
        1    1    1    2  502    0 -1.36880862415E+02 -1.05184324135E+02 -7.72160457967E+02  7.91221767513E+02  1.52587890625E-05  0.00000000000E+00  1.
        5    1    4    4  501    0  1.16207955352E+02  3.49477522237E+02 -3.27797764044E+02  4.93064665179E+02  4.75000000001E+00  0.00000000000E+00  1.
       24    2    4    4    0    0  3.39978300518E+02  4.68474466498E+02 -6.05071139486E+02  8.40832907609E+02  7.63892930763E+01  0.00000000000E+00  1.
       -3    1    7    7    0  703  1.21834688672E+02  2.10832584185E+02 -2.94345698070E+02  3.82012381855E+02  0.00000000000E+00  0.00000000000E+00  1.
        4    1    7    7  703    0  2.18143611845E+02  2.57641882313E+02 -3.10725441416E+02  4.58820525755E+02  6.60724947956E-06  0.00000000000E+00  1.
</event>
<event>
 9 114   1.0000000E+00   7.4550000E+01   7.8125000E-03   1.3429423E-01
        2   -1    0    0  502    0  0.00000000000E+00  0.00000000000E+00  1.72670196870E+03  1.72670196870E+03  0.00000000000E+00  0.00000000000E+00  1.
        5   -1    0    0  501    0  0.00000000000E+00  0.00000000000E+00 -6.26259717639E+02  6.26259717639E+02  0.00000000000E+00  0.00000000000E+00  1.
       25    1    1    2    0    0 -1.57240223424E+02  1.05713029529E+02 -5.03018877310E+02  5.51862957087E+02  1.25000000000E+02  0.00000000000E+00  1.
        6    2    1    2  501    0  1.41199867558E+02 -4.29790391826E+02  8.12335251753E+02  9.46017690740E+02  1.74366643734E+02  0.00000000000E+00  1.
        1    1    1    2  502    0  1.60403558663E+01  3.24077362296E+02  7.91125876623E+02  8.55081038517E+02  1.07895932188E-05  0.00000000000E+00  1.
        5    1    4    4  501    0 -5.87671921631E+00  1.09356950052E+01  2.14927439940E+01  2.52710466421E+01  4.75000000001E+00  0.00000000000E+00  1.
       24    2    4    4    0    0  1.47076586774E+02 -4.40726086831E+02  7.90842507759E+02  9.20746644097E+02  8.04456620778E+01  0.00000000000E+00  1.
       -1    1    7    7    0  703  5.12663055796E+01 -1.12309548871E+02  2.79075698382E+02  3.05163749948E+02  1.07895932188E-05  0.00000000000E+00  1.
        2    1    7    7  703    0  9.58102811944E+01 -3.28416537960E+02  5.11766809378E+02  6.15582894149E+02  1.32144989591E-05  0.00000000000E+00  1.
</event>
<event>
 9 114   1.0000000E+00   7.4550000E+01   7.8125000E-03   1.3429423E-01
        2   -1    0    0  502    0  0.00000000000E+00  0.00000000000E+00  3.07236170724E+03  3.07236170724E+03  0.00000000000E+00  0.00000000000E+00  1.
        5   -1    0    0  501    0  0.00000000000E+00  0.00000000000E+00 -1.68880552961E+02  1.68880552961E+02  0.00000000000E+00  0.00000000000E+00  1.
       25    1    1    2    0    0  4.01403095480E+00 -3.24694694983E+02  2.14988967227E+02  4.09008573778E+02  1.25000000000E+02  0.00000000000E+00  1.
        6    2    1    2  501    0 -5.36967567203E+00  4.12538001892E+02  6.41821326732E+02  7.83678123393E+02  1.78886414282E+02  0.00000000000E+00  1.
        1    1    1    2  502    0  1.35564471723E+00 -8.78433069094E+01  2.04667086032E+03  2.04855556303E+03  0.00000000000E+00  0.00000000000E+00  1.
        5    1    4    4  501    0  1.40424284216E+01  7.14645047169E+01  3.14433645642E+01  7.94708305325E+01  4.75000000000E+00  0.00000000000E+00  1.
       24    2    4    4    0    0 -1.94121040936E+01  3.41073497175E+02  6.10377962168E+02  7.04207292860E+02  8.14781833195E+01  0.00000000000E+00  1.
       -1    1    7    7    0  703 -3.66929629072E+01  2.27714522186E+02  4.64882055521E+02  5.18956262788E+02  5.39479660939E-06  0.00000000000E+00  1.
        2    1    7    7  703    0  1.72808588136E+01  1.13358974990E+02  1.45495906646E+02  1.85251030072E+02  6.60724947956E-06  0.00000000000E+00  1.
</event>
<event>
 9 114   1.0000000E+00   7.4550000E+01   7.8125000E-03   1.3429423E-01
        2   -1    0    0  502    0  0.00000000000E+00  0.00000000000E+00  2.62515493406E+03  2.62515493406E+03  0.00000000000E+00  0.00000000000E+00  1.
        5   -1    0    0  501    0  0.00000000000E+00  0.00000000000E+00 -1.86949587582E+03  1.86949587582E+03  0.00000000000E+00  0.00000000000E+00  1.
       25    1    1    2    0    0  4.78478179055E+02 -7.82266403402E+02 -1.48236091728E+03  1.74754141090E+03  1.25000000000E+02  0.00000000000E+00  1.
        6    2    1    2  501    0 -5.92501142543E+02  3.49129887756E+02  3.20896820094E+02  7.78361149354E+02  1.72979846334E+02  0.00000000000E+00  1.
        1    1    1    2  502    0  1.14022963489E+02  4.33136515646E+02  1.91712315542E+03  1.96874824963E+03  2.15791864376E-05  0.00000000000E+00  1.
        5    1    4    4  501    0 -9.58718017511E+00  1.31316769223E+01 -1.45488794678E+01  2.23290697583E+01  4.75000000000E+00  0.00000000000E+00  1.
       24    2    4    4    0    0 -5.82913962368E+02  3.35998210833E+02  3.35445699561E+02  7.56032079596E+02  7.98573904929E+01  0.00000000000E+00  1.
       -3    1    7    7    0  703 -1.72410820471E+02  1.02896938939E+02  1.41716138575E+02  2.45757471893E+02  3.30362473978E-06  0.00000000000E+00  1.
        4    1    7    7  703    0 -4.10503141897E+02  2.33101271895E+02  1.93729560986E+02  5.10274607702E+02  8.09219491409E-06  0.00000000000E+00  1.
</event>
<event>
 9 114   1.0000000E+00   7.4550000E+01   7.8125000E-03   1.3429423E-01
        2   -1    0    0  502    0  0.00000000000E+00  0.00000000000E+00  3.87295112314E+03  3.87295112314E+03  0.00000000000E+00  0.00000000000E+00  1.
        5   -1    0    0  501    0  0.00000000000E+00  0.00000000000E+00 -7.48198834799E+02  7.48198834799E+02  0.00000000000E+00  0.00000000000E+00  1.
       25    1    1    2    0    0 -2.96129337331E+02 -1.34809405396E+02 -6.75902540766E+02  7.60483665061E+02  1.25000000000E+02  0.00000000000E+00  1.
        6    2    1    2  501    0  3.85879840514E+02  1.90524286556E+02  1.85524498019E+03  1.91239044458E+03  1.73495016958E+02  0.00000000000E+00  1.
        1    1    1    2  502    0 -8.97505031838E+01 -5.57148811604E+01  1.94540984891E+03  1.94827584830E+03  2.15791864376E-05  0.00000000000E+00  1.
        5    1    4    4  501    0  8.45996997322E+01  9.99567776178E+01  3.85522678203E+02  4.07183944299E+02  4.75000000004E+00  0.00000000000E+00  1.
       24    2    4    4    0    0  3.01280140782E+02  9.05675089385E+01  1.46972230199E+03  1.50520650028E+03  8.11835366125E+01  0.00000000000E+00  1.
       -1    1    7    7    0  703  2.62041649079E+02  6.46774526506E+01  1.10592486330E+03  1.13838429452E+03  1.52587890625E-05  0.00000000000E+00  1.
        2    1    7    7  703    0  3.92384917032E+01  2.58900562879E+01  3.63797438690E+02  3.66822205767E+02  1.42732902022E-05  0.00000000000E+00  1.
</event>
<event>
 9 114   1.0000000E+00   7.4550000E+01   7.8125000E-03   1.3429423E-01
        5   -1    0    0  501    0  0.00000000000E+00  0.00000000000E+00  3.19669994913E+02  3.19669994913E+02  0.00000000000E+00  0.00000000000E+00  1.
        2   -1    0    0  502    0  0.00000000000E+00  0.00000000000E+00 -2.53003421822E+03  2.53003421822E+03  0.00000000000E+00  0.00000000000E+00  1.
       25    1    1    2    0    0  1.77601365323E+01 -4.00171687050E+02 -7.23630281352E+01  4.25810062594E+02  1.25000000000E+02  0.00000000000E+00  1.
        6    2    1    2  501    0  5.56998980704E+01  5.87169793669E+02 -5.54190931064E+02  8.27391841973E+02  1.71984961111E+02  0.00000000000E+00  1.
        1    1    1    2  502    0 -7.34600346027E+01 -1.86998106619E+02 -1.58381026411E+03  1.59650230857E+03  3.05175781250E-05  0.00000000000E+00  1.
        5    1    4    4  501    0 -2.60749064032E+01  1.93492430414E+02 -2.51047121522E+02  3.18066724283E+02  4.75000000001E+00  0.00000000000E+00  1.
       24    2    4    4    0    0  8.17748044736E+01  3.93677363255E+02 -3.03143809542E+02  5.09325117691E+02  7.64651637089E+01  0.00000000000E+00  1.
       -3    1    7    7    0  703  6.06708853559E+01  1.22717994688E+02 -1.14822913258E+02  1.78675582997E+02  1.34869915235E-06  0.00000000000E+00  1.
        4    1    7    7  703    0  2.11039191177E+01  2.70959368566E+02 -1.88320896284E+02  3.30649534694E+02  6.60724947956E-06  0.00000000000E+00  1.
</event>
<event>
 9 114   1.0000000E+00   7.4550000E+01   7.8125000E-03   1.3429423E-01
        2   -1    0    0  502    0  0.00000000000E+00  0.00000000000E+00  7.79412140039E+02  7.79412140039E+02  0.00000000000E+00  0.00000000000E+00  1.
        5   -1    0    0  501    0  0.00000000000E+00  0.00000000000E+00 -1.07949583529E+02  1.07949583529E+02  0.00000000000E+00  0.00000000000E+00  1.
       25    1    1    2    0    0 -5.64286243474E+01  8.80674878638E+01  1.04653596806E+02  1.93694211036E+02  1.25000000000E+02  0.00000000000E+00  1.
        6    2    1    2  501    0  7.74650245954E+01 -9.74697429143E+01  1.29549009833E+02  2.55800870395E+02  1.82071300668E+02  0.00000000000E+00  1.
        1    1    1    2  502    0 -2.10364002480E+01  9.40225505048E+00  4.37259949871E+02  4.37866642137E+02  7.62939453125E-06  0.00000000000E+00  1.
        5    1    4    4  501    0  7.11901578130E+01 -5.78733062094E+01 -7.46320663301E+00  9.21716881385E+01  4.75000000000E+00  0.00000000000E+00  1.
       24    2    4    4    0    0  6.27486678242E+00 -3.95964367050E+01  1.37012216466E+02  1.63629182257E+02  7.99681816238E+01  0.00000000000E+00  1.
       -1    1    7    7    0  703 -1.75707107846E+01 -4.35520821593E+01  3.44145404640E+01  5.82226273302E+01  1.84678237257E-06  0.00000000000E+00  1.
        2    1    7    7  703    0  2.38455775670E+01  3.95564545433E+00  1.02597676002E+02  1.05406554927E+02  1.34869915235E-06  0.00000000000E+00  1.
</event>
<event>
 9 114   1.0000000E+00   7.4550000E+01   7.8125000E-03   1.3429423E-01
        2   -1    0    0  502    0  0.00000000000E+00  0.00000000000E+00  3.03733756788E+03  3.03733756788E+03  0.00000000000E+00  0.00000000000E+00  1.
        5   -1    0    0  501    0  0.00000000000E+00  0.00000000000E+00 -5.64737700437E+02  5.64737700437E+02  0.00000000000E+00  0.00000000000E+00  1.
       25    1    1    2    0    0  4.32299854235E+02 -6.43077293831E+02  1.82106024018E+02  8.05741381459E+02  1.25000000000E+02  0.00000000000E+00  1.
        6    2    1    2  501    0 -3.86080094452E+02  6.75012872450E+02  3.77343524133E+02  8.82358889220E+02  1.77394635983E+02  0.00000000000E+00  1.
        1    1    1    2  502    0 -4.62197597833E+01 -3.19355786193E+01  1.91315031929E+03  1.91397499763E+03  3.05175781250E-05  0.00000000000E+00  1.
        5    1    4    4  501    0 -2.04407299912E+02  2.17348923714E+02  1.25803242356E+02  3.23839338537E+02  4.75000000001E+00  0.00000000000E+00  1.
       24    2    4    4    0    0 -1.81672794540E+02  4.57663948736E+02  2.51540281777E+02  5.58519550683E+02  7.88053354156E+01  0.00000000000E+00  1.
      -13    1    7    7    0    0 -7.71171766002E+01  1.17458245298E+02  9.55794815519E+01  1.69938067463E+02  1.05660000047E-01  0.00000000000E+00  1.
       14    1    7    7    0    0 -1.04555617940E+02  3.40205703438E+02  1.55960800225E+02  3.88581483220E+02  7.62939453125E-06  0.00000000000E+00  1.
</event>
<event>
 9 114   1.0000000E+00   7.4550000E+01   7.8125000E-03   1.3429423E-01
        2   -1    0    0  502    0  0.00000000000E+00  0.00000000000E+00  2.61739389662E+03  2.61739389662E+03  0.00000000000E+00  0.00000000000E+00  1.
        5   -1    0    0  501    0  0.00000000000E+00  0.00000000000E+00 -5.18645556150E+02  5.18645556150E+02  0.00000000000E+00  0.00000000000E+00  1.
       25    1    1    2    0    0  3.75902561392E+01  6.45082849987E+01 -4.81399907370E+02  5.02936593425E+02  1.25000000000E+02  0.00000000000E+00  1.
        6    2    1    2  501    0 -1.28452845372E+02 -8.54383752126E+01  5.08226457069E+02  5.59084058594E+02  1.74588096577E+02  0.00000000000E+00  1.
        1    1    1    2  502    0  9.08625892331E+01  2.09300902139E+01  2.07192179077E+03  2.07401880075E+03  0.00000000000E+00  0.00000000000E+00  1.
        5    1    4    4  501    0 -5.88653405127E+01 -3.17684478666E+01  4.50427951363E+01  8.07822906782E+01  4.75000000001E+00  0.00000000000E+00  1.
       24    2    4    4    0    0 -6.95875048596E+01 -5.36699273460E+01  4.63183661933E+02  4.78301767916E+02  8.06882555053E+01  0.00000000000E+00  1.
      -15    1    7    7    0    0 -2.90642565949E+01  1.93644004861E+01  1.63412821483E+02  1.67112591569E+02  1.77679999999E+00  0.00000000000E+00  1.
       16    1    7    7    0    0 -4.05232482647E+01 -7.30343278321E+01  2.99770840450E+02  3.11189176347E+02  5.39479660939E-06  0.00000000000E+00  1.
</event>
<event>
 9 114   1.0000000E+00   7.4550000E+01   7.8125000E-03   1.3429423E-01
        2   -1    0    0  502    0  0.00000000000E+00  0.00000000000E+00  5.75885196265E+02  5.75885196265E+02  0.00000000000E+00  0.00000000000E+00  1.
        5   -1    0    0  501    0  0.00000000000E+00  0.00000000000E+00 -3.62639757257E+02  3.62639757257E+02  0.00000000000E+00  0.00000000000E+00  1.
       25    1    1    2    0    0  1.98522418990E+02 -8.15928790053E+01 -1.51252620635E+02  2.90810770081E+02  1.25000000000E+02  0.00000000000E+00  1.
        6    2    1    2  501    0 -1.64928768723E+02  8.45813317420E+01 -2.72592596366E+01  2.54507798197E+02  1.72266223258E+02  0.00000000000E+00  1.
        1    1    1    2  502    0 -3.35936502669E+01 -2.98845273670E+00  3.91757319279E+02  3.93206385244E+02  5.39479660939E-06  0.00000000000E+00  1.
        5    1    4    4  501    0  4.95542169833E+00  6.33189967782E+01 -1.80587654734E+01  6.62007029240E+01  4.75000000000E+00  0.00000000000E+00  1.
       24    2    4    4    0    0 -1.69884190421E+02  2.12623349638E+01 -9.20049416320E+00  1.88307095273E+02  7.78600539058E+01  0.00000000000E+00  1.
       -3    1    7    7    0  703 -3.96760802345E+01  3.20651414996E+01  1.93652485878E+01  5.45653506819E+01  1.58148993986E-06  0.00000000000E+00  1.
        4    1    7    7  703    0 -1.30208110187E+02 -1.08028065357E+01 -2.85657427510E+01  1.33741744592E+02  2.95869675779E-06  0.00000000000E+00  1.
</event>
<event>
 9 114   1.0000000E+00   7.4550000E+01   7.8125000E-03   1.3429423E-01
        2   -1    0    0  502    0  0.00000000000E+00  0.00000000000E+00  1.21659584713E+03  1.21659584713E+03  0.00000000000E+00  0.00000000000E+00  1.
        5   -1    0    0  501    0  0.00000000000E+00  0.00000000000E+00 -6.40853811872E+01  6.40853811872E+01  0.00000000000E+00  0.00000000000E+00  1.
       25    1    1    2    0    0  4.07578402885E+00  7.06960385381E+01  7.59954915749E+01  1.62526479751E+02  1.25000000000E+02  0.00000000000E+00  1.
        6    2    1    2  501    0 -2.24810294624E+01 -2.60264970764E+01  3.66105902109E+02  4.06104770727E+02  1.72350741258E+02  0.00000000000E+00  1.
        1    1    1    2  502    0  1.84052454336E+01 -4.46695414617E+01  7.10409072254E+02  7.12049977835E+02  1.70598447990E-05  0.00000000000E+00  1.
        5    1    4    4  501    0 -1.78706574982E+01 -2.11254277165E+01 -2.95291300813E+00  2.82298829409E+01  4.75000000001E+00  0.00000000000E+00  1.
       24    2    4    4    0    0 -4.61037196428E+00 -4.90106935981E+00  3.69058815117E+02  3.77874887786E+02  8.08686947651E+01  0.00000000000E+00  1.
      -11    1    7    7    0    0  7.86901260496E+00 -3.22141615867E+01  3.08525633475E+02  3.10302658831E+02  5.10984358804E-04  0.00000000000E+00  1.
       12    1    7    7    0    0 -1.24793845692E+01  2.73130922269E+01  6.05331816417E+01  6.75722289546E+01  3.56832255056E-06  0.00000000000E+00  1.
</event>
<event>
 9 114   1.0000000E+00   7.4550000E+01   7.8125000E-03   1.3429423E-01
        2   -1    0    0  502    0  0.00000000000E+00  0.00000000000E+00  2.06555017098E+03  2.06555017098E+03  0.00000000000E+00  0.00000000000E+00  1.
        5   -1    0    0  501    0  0.00000000000E+00  0.00000000000E+00 -2.03661578170E+02  2.03661578170E+02  0.00000000000E+00  0.00000000000E+00  1.
       25    1    1    2    0    0 -3.68085023341E+02 -3.65310902909E+02  3.83234941986E+02  6.56835337776E+02  1.25000000000E+02  0.00000000000E+00  1.
        6    2    1    2  501    0  3.40807770329E+02  3.21264390061E+02  8.83714344635E+02  1.01518555254E+03  1.74039991195E+02  0.00000000000E+00  1.
        1    1    1    2  502    0  2.72772530120E+01  4.40465128478E+01  5.94939306185E+02  5.97190858830E+02  7.62939453125E-06  0.00000000000E+00  1.
        5    1    4    4  501    0  2.55005764064E+02  1.76380556056E+02  4.90115243121E+02  5.79977201534E+02  4.74999999999E+00  0.00000000000E+00  1.
       24    2    4    4    0    0  8.58020062648E+01  1.44883834005E+02  3.93599101514E+02  4.35208351006E+02  7.83118537468E+01  0.00000000000E+00  1.
      -15    1    7    7    0    0  1.00150058835E+02  1.28864178429E+02  3.31726419725E+02  3.69704727219E+02  1.77680000001E+00  0.00000000000E+00  1.
       16    1    7    7    0    0 -1.43480525698E+01  1.60196555765E+01  6.18726817895E+01  6.55036237864E+01  1.16800772800E-06  0.00000000000E+00  1.
</event>
<event>
 9 114   1.0000000E+00   7.4550000E+01   7.8125000E-03   1.3429423E-01
        5   -1    0    0  501    0  0.00000000000E+00  0.00000000000E+00  2.28573056872E+03  2.28573056872E+03  0.00000000000E+00  0.00000000000E+00  1.
        2   -1    0    0  502    0  0.00000000000E+00  0.00000000000E+00 -2.42075530070E+03  2.42075530070E+03  0.00000000000E+00  0.00000000000E+00  1.
       25    1    1    2    0    0  6.03642437804E+02 -3.15981079563E+02  2.00949681027E+03  2.12554244038E+03  1.25000000000E+02  0.00000000000E+00  1.
        6    2    1    2  501    0 -5.99705650985E+02  3.04971249428E+02 -3.36849127613E+02  7.73233199704E+02  1.78235561967E+02  0.00000000000E+00  1.
        1    1    1    2  502    0 -3.93678681896E+00  1.10098301348E+01 -1.80767241463E+03  1.80771022934E+03  3.73762472959E-05  0.00000000000E+00  1.
        5    1    4    4  501    0 -1.88484152222E+02  1.73466474312E+02 -1.04963350231E+02  2.76869573519E+02  4.75000000000E+00  0.00000000000E+00  1.
       24    2    4    4    0    0 -4.11221498763E+02  1.31504775116E+02 -2.31885777383E+02  4.96363626185E+02  7.87985324971E+01  0.00000000000E+00  1.
       -3    1    7    7    0  703 -3.23127328412E+01 -7.23305155854E+00 -5.13752297141E+00  3.35085642903E+01  7.94532374159E-06  0.00000000000E+00  1.
        4    1    7    7  703    0 -3.78908765922E+02  1.38737826675E+02 -2.26748254411E+02  4.62855061895E+02  1.11216581246E-05  0.00000000000E+00  1.
</event>
<event>
 9 114   1.0000000E+00   7.4550000E+01   7.8125000E-03   1.3429423E-01
        2   -1    0    0  502    0  0.00000000000E+00  0.00000000000E+00  1.17293020049E+03  1.17293020049E+03  0.00000000000E+00  0.00000000000E+00  1.
        5   -1    0    0  501    0  0.00000000000E+00  0.00000000000E+00 -7.98899352970E+02  7.98899352970E+02  0.00000000000E+00  0.00000000000E+00  1.
       25    1    1    2    0    0  6.02575005741E+02 -8.08368089350E+01 -5.31198466794E+02  8.16962690915E+02  1.25000000000E+02  0.00000000000E+00  1.
        6    2    1    2  501    0 -5.65581478015E+02  7.22609646712E+01  5.86381002535E+02  8.33765146383E+02  1.61918448302E+02  0.00000000000E+00  1.
        1    1    1    2  502    0 -3.69935277268E+01  8.57584426383E+00  3.18848311782E+02  3.21101716166E+02  3.81469726562E-06  0.00000000000E+00  1.
        5    1    4    4  501    0 -8.42988359365E+01  6.00293786077E+01  8.53712821401E+01  1.34240971207E+02  4.75000000000E+00  0.00000000000E+00  1.
       24    2    4    4    0    0 -4.81282642078E+02  1.22315860635E+01  5.01009720395E+02  6.99524175176E+02  8.08748320711E+01  0.00000000000E+00  1.
       -1    1    7    7    0  703 -1.99509168203E+02  4.00094717879E+01  2.37351091672E+02  3.12634301937E+02  6.60724947956E-06  0.00000000000E+00  1.
        2    1    7    7  703    0 -2.81773473875E+02 -2.77778857244E+01  2.63658628723E+02  3.86889873239E+02  5.39479660939E-06  0.00000000000E+00  1.
</event>
<event>
 9 114   1.0000000E+00   7.4550000E+01   7.8125000E-03   1.3429423E-01
        2   -1    0    0  502    0  0.00000000000E+00  0.00000000000E+00  3.60802383242E+03  3.60802383242E+03  0.00000000000E+00  0.00000000000E+00  1.
        5   -1    0    0  501    0  0.00000000000E+00  0.00000000000E+00 -6.74225172250E+02  6.74225172250E+02  0.00000000000E+00  0.00000000000E+00  1.
       25    1    1    2    0    0  5.83511024317E+02  6.95302348371E+02  3.45929292491E+02  9.79399074205E+02  1.25000000000E+02  0.00000000000E+00  1.
        6    2    1    2  501    0 -6.11210308631E+02 -5.39140254723E+02  1.33953840140E+02  8.43814496369E+02  1.72710791079E+02  0.00000000000E+00  1.
        1    1    1    2  502    0  2.76992843138E+01 -1.56162093648E+02  2.45391552754E+03  2.45903543410E+03  3.05175781250E-05  0.00000000000E+00  1.
        5    1    4    4  501    0 -2.68153312330E+02 -1.49653330870E+02  6.60308243745E+01  3.14141609186E+02  4.75000000000E+00  0.00000000000E+00  1.
       24    2    4    4    0    0 -3.43056996301E+02 -3.89486923853E+02  6.79230157660E+01  5.29672887184E+02  8.09423546928E+01  0.00000000000E+00  1.
       -3    1    7    7    0  703 -1.54604838020E+02 -2.08125200038E+02  6.83600524394E+01  2.68126558923E+02  4.15696997027E-06  0.00000000000E+00  1.
        4    1    7    7  703    0 -1.88452158281E+02 -1.81361723815E+02 -4.37036673430E-01  2.61546328261E+02  3.61773066274E-06  0.00000000000E+00  1.
</event>
<event>
 9 114   1.0000000E+00   7.4550000E+01   7.8125000E-03   1.3429423E-01
        5   -1    0    0  501    0  0.00000000000E+00  0.00000000000E+00  6.53384553906E+02  6.53384553906E+02  0.00000000000E+00  0.00000000000E+00  1.
        2   -1    0    0  502    0  0.00000000000E+00  0.00000000000E+00 -1.33054812488E+03  1.33054812488E+03  0.00000000000E+00  0.00000000000E+00  1.
       25    1    1    2    0    0  7.08702218963E+02  7.28965204749E+01  7.30398124164E+01  7.27002442952E+02  1.25000000000E+02  0.00000000000E+00  1.
        6    2    1    2  501    0 -6.12230020232E+02 -3.32853952110E+01 -1.59044005999E+02  6.56642524940E+02  1.73063267357E+02  0.00000000000E+00  1.
        1    1    1    2  502    0 -9.64721987311E+01 -3.96111252639E+01 -5.91159377392E+02  6.00287710895E+02  0.00000000000E+00  0.00000000000E+00  1.
        5    1    4    4  501    0 -1.45898171486E+02  4.46841874795E+01 -1.26224635074E+00  1.52666659162E+02  4.75000000000E+00  0.00000000000E+00  1.
       24    2    4    4    0    0 -4.66331848745E+02 -7.79695826905E+01 -1.57781759648E+02  5.03975865778E+02  7.45113456474E+01  0.00000000000E+00  1.
      -15    1    7    7    0    0 -1.46112092139E+02  1.02570457932E+01 -4.70886378317E+01  1.53865029454E+02  1.77680000000E+00  0.00000000000E+00  1.
       16    1    7    7    0    0 -3.20219756606E+02 -8.82266284837E+01 -1.10693121817E+02  3.50110836325E+02  5.56082906231E-06  0.00000000000E+00  1.
</event>
<event>
 9 114   1.0000000E+00   7.4550000E+01   7.8125000E-03   1.3429423E-01
        5   -1    0    0  501    0  0.00000000000E+00  0.00000000000E+00  3.04059759519E+02  3.04059759519E+02  0.00000000000E+00  0.00000000000E+00  1.
        2   -1    0    0  502    0  0.00000000000E+00  0.00000000000E+00 -1.78477293987E+03  1.78477293987E+03  0.00000000000E+00  0.00000000000E+00  1.
       25    1    1    2    0    0  2.29666636554E+02 -1.50033288525E+01  2.27425030416E+02  3.46870304699E+02  1.25000000000E+02  0.00000000000E+00  1.
        6    2    1    2  501    0 -1.99765288596E+02 -5.01606630481E+01 -1.27667328427E+03  1.30458107451E+03  1.72089635187E+02  0.00000000000E+00  1.
        1    1    1    2  502    0 -2.99013479574E+01  6.51639919006E+01 -4.31464926498E+02  4.37381320186E+02  5.39479660939E-06  0.00000000000E+00  1.
        5    1    4    4  501    0  3.56291582810E+00  2.19962988075E+01 -3.40901809102E+01  4.10028592285E+01  4.74999999999E+00  0.00000000000E+00  1.
       24    2    4    4    0    0 -2.03328204424E+02 -7.21569618556E+01 -1.24258310336E+03  1.26357821528E+03  7.78983408272E+01  0.00000000000E+00  1.
       -3    1    7    7    0  703 -1.08628158315E+02 -4.69353699426E+01 -8.82455487784E+02  8.90354251773E+02  1.07895932188E-05  0.00000000000E+00  1.
        4    1    7    7  703    0 -9.47000461090E+01 -2.52215919130E+01 -3.60127615579E+02  3.73223963505E+02  1.26519195189E-05  0.00000000000E+00  1.
</event>
<event>
 9 114   1.0000000E+00   7.4550000E+01   7.8125000E-03   1.3429423E-01
        2   -1    0    0  502    0  0.00000000000E+00  0.00000000000E+00  3.48610169953E+03  3.48610169953E+03  0.00000000000E+00  0.00000000000E+00  1.
        5   -1    0    0  501    0  0.00000000000E+00  0.00000000000E+00 -1.82184801998E+03  1.82184801998E+03  0.00000000000E+00  0.00000000000E+00  1.
       25    1    1    2    0    0  2.68382041025E+01 -1.44516499337E+03 -1.24138116369E+03  1.90941727782E+03  1.25000000000E+02  0.00000000000E+00  1.
        6    2    1    2  501    0  8.37415012591E+01  1.43471739256E+03  1.90849861093E+03  2.39522905319E+03  1.71256047423E+02  0.00000000000E+00  1.
        1    1    1    2  502    0 -1.10579705362E+02  1.04476008065E+01  9.97136232319E+02  1.00330338851E+03  3.73762472959E-05  0.00000000000E+00  1.
        5    1    4    4  501    0  2.46999055598E+01  9.37578929039E+02  1.29330593635E+03  1.59760043221E+03  4.74999999973E+00  0.00000000000E+00  1.
       24    2    4    4    0    0  5.90415956993E+01  4.97138463520E+02  6.15192674579E+02  7.97628620976E+02  8.43612956825E+01  0.00000000000E+00  1.
       -1    1    7    7    0  703 -2.79773675166E+00  2.28474754273E+02  3.25808639473E+02  3.97944481336E+02  3.81469726562E-06  0.00000000000E+00  1.
        2    1    7    7  703    0  6.18393324510E+01  2.68663709247E+02  2.89384035107E+02  3.99684139639E+02  3.81469726562E-06  0.00000000000E+00  1.
</event>
<event>
 9 114   1.0000000E+00   7.4550000E+01   7.8125000E-03   1.3429423E-01
        2   -1    0    0  502    0  0.00000000000E+00  0.00000000000E+00  3.22841948233E+03  3.22841948233E+03  0.00000000000E+00  0.00000000000E+00  1.
        5   -1    0    0  501    0  0.00000000000E+00  0.00000000000E+00 -1.88420184858E+03  1.88420184858E+03  0.00000000000E+00  0.00000000000E+00  1.
       25    1    1    2    0    0 -5.82195767621E+02 -5.02283674987E+02 -1.65521173250E+03  1.82936920314E+03  1.25000000000E+02  0.00000000000E+00  1.
        6    2    1    2  501    0  6.81764797320E+02  5.69899895761E+02  1.32640815577E+03  1.60590722713E+03  1.73177066627E+02  0.00000000000E+00  1.
        1    1    1    2  502    0 -9.95690296992E+01 -6.76162207745E+01  1.67302121049E+03  1.67734490065E+03  3.05175781250E-05  0.00000000000E+00  1.
        5    1    4    4  501    0  1.58252771557E+02  7.48438303511E+01  3.30181460493E+02  3.73748442138E+02  4.75000000002E+00  0.00000000000E+00  1.
       24    2    4    4    0    0  5.23512025763E+02  4.95056065410E+02  9.96226695273E+02  1.23215878499E+03  8.12545016357E+01  0.00000000000E+00  1.
       -3    1    7    7    0  703  2.46018050348E+02  2.85932032937E+02  4.97799740789E+02  6.24569123865E+02  1.42732902022E-05  0.00000000000E+00  1.
        4    1    7    7  703    0  2.77493975415E+02  2.09124032473E+02  4.98426954484E+02  6.07589661125E+02  1.32144989591E-05  0.00000000000E+00  1.
</event>
<event>
 9 114   1.0000000E+00   7.4550000E+01   7.8125000E-03   1.3429423E-01
        2   -1    0    0  502    0  0.00000000000E+00  0.00000000000E+00  9.69210438281E+02  9.69210438281E+02  0.00000000000E+00  0.00000000000E+00  1.
        5   -1    0    0  501    0  0.00000000000E+00  0.00000000000E+00 -9.08728522399E+02  9.08728522399E+02  0.00000000000E+00  0.00000000000E+00  1.
       25    1    1    2    0    0  1.77898173183E+02  2.19449016894E+02 -7.43242047810E+02  8.04884695264E+02  1.25000000000E+02  0.00000000000E+00  1.
        6    2    1    2  501    0 -1.50892034336E+02 -1.83087862878E+02  2.40428446743E+01  2.92058674897E+02  1.68613877373E+02  0.00000000000E+00  1.
        1    1    1    2  502    0 -2.70061388464E+01 -3.63611540159E+01  7.79681119018E+02  7.80995590519E+02  1.52587890625E-05  0.00000000000E+00  1.
        5    1    4    4  501    0 -4.58317395906E+01  1.66461238855E+01  1.81649588244E+01  5.22510289220E+01  4.75000000000E+00  0.00000000000E+00  1.
       24    2    4    4    0    0 -1.05060294746E+02 -1.99733986764E+02  5.87788584993E+00  2.39807645975E+02  8.08815586227E+01  0.00000000000E+00  1.
       -3    1    7    7    0  703 -4.80887216309E+01 -4.24745602520E+01  2.99787714355E+01  7.08190663132E+01  1.34869915235E-06  0.00000000000E+00  1.
        4    1    7    7  703    0 -5.69715731148E+01 -1.57259426512E+02 -2.41008855855E+01  1.68988579661E+02  1.99475294717E-06  0.00000000000E+00  1.
</event>
<event>
 9 114   1.0000000E+00   7.4550000E+01   7.8125000E-03   1.3429423E-01
        2   -1    0    0  502    0  0.00000000000E+00  0.00000000000E+00  2.34332439384E+03  2.34332439384E+03  0.00000000000E+00  0.00000000000E+00  1.
        5   -1    0    0  501    0  0.00000000000E+00  0.00000000000E+00 -2.57584837921E+03  2.57584837921E+03  0.00000000000E+00  0.00000000000E+00  1.
       25    1    1    2    0    0  1.48691728573E+03 -9.26579918974E+02 -1.28970485110E+02  1.76117340057E+03  1.25000000000E+02  0.00000000000E+00  1.
        6    2    1    2  501    0 -1.48131156251E+03  8.37743636292E+02 -1.18004197952E+03  2.07783699801E+03  1.69732647115E+02  0.00000000000E+00  1.
        1    1    1    2  502    0 -5.60572321402E+00  8.88362826820E+01  1.07648847925E+03  1.08016237447E+03  4.31583728752E-05  0.00000000000E+00  1.
        5    1    4    4  501    0 -3.81548507426E+02  2.69127448717E+02 -2.72833840023E+02  5.40804691116E+02  4.75000000001E+00  0.00000000000E+00  1.
       24    2    4    4    0    0 -1.09976305509E+03  5.68616187575E+02 -9.07208139494E+02  1.53703230689E+03  8.14773463307E+01  0.00000000000E+00  1.
      -13    1    7    7    0    0 -4.00084578914E+02  2.22150613817E+02 -2.89965994298E+02  5.41755345629E+02  1.05659999470E-01  0.00000000000E+00  1.
       14    1    7    7    0    0 -6.99678476173E+02  3.46465573758E+02 -6.17242145196E+02  9.95276961265E+02  1.52587890625E-05  0.00000000000E+00  1.
</event>
<event>
 9 114   1.0000000E+00   7.4550000E+01   7.8125000E-03   1.3429423E-01
        2   -1    0    0  502    0  0.00000000000E+00  0.00000000000E+00  3.33935350574E+03  3.33935350574E+03  0.00000000000E+00  0.00000000000E+00  1.
        5   -1    0    0  501    0  0.00000000000E+00  0.00000000000E+00 -2.67933872544E+03  2.67933872544E+03  0.00000000000E+00  0.00000000000E+00  1.
       25    1    1    2    0    0 -3.69665285062E+02  8.69330520993E+02 -2.44449018490E+03  2.62365112806E+03  1.25000000000E+02  0.00000000000E+00  1.
        6    2    1    2  501    0  3.24522671018E+02 -9.08823984103E+02  1.51608934228E+03  1.80549343778E+03  1.73215651734E+02  0.00000000000E+00  1.
        1    1    1    2  502    0  4.51426140438E+01  3.94934631093E+01  1.58841562292E+03  1.58954766533E+03  2.15791864376E-05  0.00000000000E+00  1.
        5    1    4    4  501    0  1.30494733995E+02 -4.90659944574E+02  8.75498031246E+02  1.01207481049E+03  4.75000000004E+00  0.00000000000E+00  1.
       24    2    4    4    0    0  1.94027937023E+02 -4.18164039528E+02  6.40591311034E+02  7.93418627291E+02  8.15345697233E+01  0.00000000000E+00  1.
       -3    1    7    7    0  703  1.07000008680E+02 -2.38075554884E+02  4.29694388014E+02  5.02758628749E+02  5.39479660939E-06  0.00000000000E+00  1.
        4    1    7    7  703    0  8.70279283434E+01 -1.80088484644E+02  2.10896923021E+02  2.90659998543E+02  5.39479660939E-06  0.00000000000E+00  1.
</event>
<event>
 9 114   1.0000000E+00   7.4550000E+01   7.8125000E-03   1.3429423E-01
        5   -1    0    0  501    0  0.00000000000E+00  0.00000000000E+00  8.75300132896E+02  8.75300132896E+02  0.00000000000E+00  0.00000000000E+00  1.
        2   -1    0    0  502    0  0.00000000000E+00  0.00000000000E+00 -6.31831148940E+02  6.31831148940E+02  0.00000000000E+00  0.00000000000E+00  1.
       25    1    1    2    0    0 -2.34535224553E+02  3.22806172529E+02  4.41507028714E+02  6.08082274847E+02  1.25000000000E+02  0.00000000000E+00  1.
        6    2    1    2  501    0  2.73822324465E+02 -3.35937065999E+02  1.94529179426E+02  5.04302351417E+02  1.69253898949E+02  0.00000000000E+00  1.
        1    1    1    2  502    0 -3.92870999120E+01  1.31308934703E+01 -3.92567224183E+02  3.94746655572E+02  0.00000000000E+00  0.00000000000E+00  1.
        5    1    4    4  501    0  6.20258094865E+01 -9.00589022038E+01  1.19055346410E+02  1.61723668390E+02  4.75000000000E+00  0.00000000000E+00  1.
       24    2    4    4    0    0  2.11796514978E+02 -2.45878163795E+02  7.54738330151E+01  3.42578683027E+02  7.96870090188E+01  0.00000000000E+00  1.
       -3    1    7    7    0  703  3.31305385306E+01 -2.56207386311E+01 -1.56176873252E+01  4.46986240137E+01  1.74388156394E-06  0.00000000000E+00  1.
        4    1    7    7  703    0  1.78665976448E+02 -2.20257425164E+02  9.10915203403E+01  2.97880059014E+02  3.56832255056E-06  0.00000000000E+00  1.
</event>
<event>
 9 114   1.0000000E+00   7.4550000E+01   7.8125000E-03   1.3429423E-01
        2   -1    0    0  502    0  0.00000000000E+00  0.00000000000E+00  2.11742652659E+03  2.11742652659E+03  0.00000000000E+00  0.00000000000E+00  1.
        5   -1    0    0  501    0  0.00000000000E+00  0.00000000000E+00 -8.50656475184E+02  8.50656475184E+02  0.00000000000E+00  0.00000000000E+00  1.
       25    1    1    2    0    0 -3.55593268516E+02  8.51271208681E+02 -1.81959231879E+02  9.48600761864E+02  1.25000000000E+02  0.00000000000E+00  1.
        6    2    1    2  501    0 -1.88364239031E+02 -5.50464489303E+02  2.26121739140E+02  6.47934333550E+02  1.73768867038E+02  0.00000000000E+00  1.
        1    1    1    2  502    0  5.43957507547E+02 -3.00806719378E+02  1.22260754414E+03  1.37154790636E+03  2.15791864376E-05  0.00000000000E+00  1.
        5    1    4    4  501    0 -1.01697464815E+02 -3.15683818307E+02  1.93643448557E+02  3.84082016189E+02  4.75000000000E+00  0.00000000000E+00  1.
       24    2    4    4    0    0 -8.66667742169E+01 -2.34780670996E+02  3.24782905840E+01  2.63852317361E+02  7.70072255786E+01  0.00000000000E+00  1.
      -11    1    7    7    0    0 -1.00583268894E+02 -1.90429989740E+02  2.63761638800E+01  2.16970682340E+02  5.10997262826E-04  0.00000000000E+00  1.
       12    1    7    7    0    0  1.39164946774E+01 -4.43506812558E+01  6.10212670400E+00  4.68816350213E+01  1.37478859361E-06  0.00000000000E+00  1.
</event>
<event>
 9 114   1.0000000E+00   7.4550000E+01   7.8125000E-03   1.3429423E-01
        2   -1    0    0  502    0  0.00000000000E+00  0.00000000000E+00  2.88730472133E+03  2.88730472133E+03  0.00000000000E+00  0.00000000000E+00  1.
        5   -1    0    0  501    0  0.00000000000E+00  0.00000000000E+00 -7.71185638601E+02  7.71185638601E+02  0.00000000000E+00  0.00000000000E+00  1.
       25    1    1    2    0    0 -2.63797694492E+02 -4.87372256650E+02 -6.20942325393E+02  8.41614704978E+02  1.25000000000E+02  0.00000000000E+00  1.
        6    2    1    2  501    0  3.04271349777E+02  4.89472453399E+02  2.27359699267E+03  2.35164260368E+03  1.69750739246E+02  0.00000000000E+00  1.
        1    1    1    2  502    0 -4.04736552856E+01 -2.10019674944E+00  4.63464415452E+02  4.65233051264E+02  2.47220638214E-05  0.00000000000E+00  1.
        5    1    4    4  501    0 -1.55593035196E+01  2.12886912503E+01  1.39979129715E+02  1.42520242622E+02  4.75000000007E+00  0.00000000000E+00  1.
       24    2    4    4    0    0  3.19830653297E+02  4.68183762149E+02  2.13361786295E+03  2.20912236106E+03  8.00546008568E+01  0.00000000000E+00  1.
       -1    1    7    7    0  703  5.45204843416E+01  1.37550884870E+02  5.04132512694E+02  5.25397296812E+02  1.07895932188E-05  0.00000000000E+00  1.
        4    1    7    7  703    0  2.65310168955E+02  3.30632877279E+02  1.62948535026E+03  1.68372506425E+03  3.73762472959E-05  0.00000000000E+00  1.
</event>
<event>
 9 114   1.0000000E+00   7.4550000E+01   7.8125000E-03   1.3429423E-01
        2   -1    0    0  502    0  0.00000000000E+00  0.00000000000E+00  9.88344213767E+02  9.88344213767E+02  0.00000000000E+00  0.00000000000E+00  1.
        5   -1    0    0  501    0  0.00000000000E+00  0.00000000000E+00 -2.87582903602E+02  2.87582903602E+02  0.00000000000E+00  0.00000000000E+00  1.
       25    1    1    2    0    0 -1.62603473265E+02  3.21244545161E+02 -7.85670282229E+01  3.89147433806E+02  1.25000000000E+02  0.00000000000E+00  1.
        6    2    1    2  501    0  1.67835278464E+02 -2.95461651919E+02  6.39816796093E+02  7.44809264802E+02  1.72942302286E+02  0.00000000000E+00  1.
        1    1    1    2  502    0 -5.23180519870E+00 -2.57828932425E+01  1.39511542295E+02  1.41970418761E+02  1.90734863281E-06  0.00000000000E+00  1.
        5    1    4    4  501    0  4.76300089746E+01  2.40260643022E+00  5.86086375841E+01  7.57094787464E+01  4.75000000000E+00  0.00000000000E+00  1.
       24    2    4    4    0    0  1.20205269489E+02 -2.97864258349E+02  5.81208158509E+02  6.69099786055E+02  8.19705859876E+01  0.00000000000E+00  1.
      -11    1    7    7    0    0  6.22978456044E+01 -2.05935730466E+02  4.49688271444E+02  4.98507861647E+02  5.10941639717E-04  0.00000000000E+00  1.
       12    1    7    7    0    0  5.79074238845E+01 -9.19285278831E+01  1.31519887065E+02  1.70591924408E+02  4.67203091199E-06  0.00000000000E+00  1.
</event>
<event>
 9 114   1.0000000E+00   7.4550000E+01   7.8125000E-03   1.3429423E-01
        2   -1    0    0  502    0  0.00000000000E+00  0.00000000000E+00  9.27807935157E+02  9.27807935157E+02  0.00000000000E+00  0.00000000000E+00  1.
        5   -1    0    0  501    0  0.00000000000E+00  0.00000000000E+00 -3.23669377192E+02  3.23669377192E+02  0.00000000000E+00  0.00000000000E+00  1.
       25    1    1    2    0    0 -3.55011412748E+02  1.13740564678E+02 -4.33402624647E+01  3.95567184666E+02  1.25000000000E+02  0.00000000000E+00  1.
        6    2    1    2  501    0  3.87770874453E+02 -3.14646357563E+01  3.68305693325E+02  5.63027650042E+02  1.73190001442E+02  0.00000000000E+00  1.
        1    1    1    2  502    0 -3.27594617053E+01 -8.22759289218E+01  2.79173127105E+02  2.92882477640E+02  7.62939453125E-06  0.00000000000E+00  1.
        5    1    4    4  501    0  1.68954921125E+02  5.19856683298E+01  1.77361169527E+02  2.50455229612E+02  4.75000000000E+00  0.00000000000E+00  1.
       24    2    4    4    0    0  2.18815953328E+02 -8.34503040861E+01  1.90944523798E+02  3.12572420430E+02  7.99833242764E+01  0.00000000000E+00  1.
       -1    1    7    7    0  703  1.82759351902E+02 -7.41175284910E+01  1.92096517432E+02  2.75309754180E+02  2.69739830470E-06  0.00000000000E+00  1.
        2    1    7    7  703    0  3.60566014263E+01 -9.33277559509E+00 -1.15199363451E+00  3.72626662500E+01  5.75385528097E-07  0.00000000000E+00  1.
</event>
<event>
 9 114   1.0000000E+00   7.4550000E+01   7.8125000E-03   1.3429423E-01
        2   -1    0    0  502    0  0.00000000000E+00  0.00000000000E+00  2.59413153302E+03  2.59413153302E+03  0.00000000000E+00  0.00000000000E+00  1.
        5   -1    0    0  501    0  0.00000000000E+00  0.00000000000E+00 -2.17542210828E+03  2.17542210828E+03  0.00000000000E+00  0.00000000000E+00  1.
       25    1    1    2    0    0 -1.51834544126E+02  1.14302533976E+03 -1.84601679451E+03  2.18012927639E+03  1.25000000000E+02  0.00000000000E+00  1.
        6    2    1    2  501    0  1.30882199879E+02 -1.12758257864E+03  1.87370491586E+03  2.19753772402E+03  1.72711652431E+02  0.00000000000E+00  1.
        1    1    1    2  502    0  2.09523442465E+01 -1.54427611259E+01  3.91021303391E+02  3.91886640888E+02  1.52587890625E-05  0.00000000000E+00  1.
        5    1    4    4  501    0 -2.73273592797E+01 -1.87301407430E+02  2.62320895357E+02  3.23517258321E+02  4.74999999996E+00  0.00000000000E+00  1.
       24    2    4    4    0    0  1.58209559159E+02 -9.40281171208E+02  1.61138402051E+03  1.87402046570E+03  7.89639081762E+01  0.00000000000E+00  1.
       -3    1    7    7    0  703  1.23333286736E+02 -7.91558943934E+02  1.29644773607E+03  1.52399258322E+03  2.64289979182E-05  0.00000000000E+00  1.
        4    1    7    7  703    0  3.48762724228E+01 -1.48722227275E+02  3.14936284437E+02  3.50027882487E+02  2.22433162493E-05  0.00000000000E+00  1.
</event>
<event>
 9 114   1.0000000E+00   7.4550000E+01   7.8125000E-03   1.3429423E-01
        2   -1    0    0  502    0  0.00000000000E+00  0.00000000000E+00  2.33048194187E+03  2.33048194187E+03  0.00000000000E+00  0.00000000000E+00  1.
        5   -1    0    0  501    0  0.00000000000E+00  0.00000000000E+00 -1.63049862151E+03  1.63049862151E+03  0.00000000000E+00  0.00000000000E+00  1.
       25    1    1    2    0    0 -1.64088779604E+01  4.48132039208E+02 -1.50246203740E+03  1.57292998880E+03  1.25000000000E+02  0.00000000000E+00  1.
        6    2    1    2  501    0  1.56603145913E+02 -4.97051122872E+02  7.58462523902E+02  9.36453545791E+02  1.73480486514E+02  0.00000000000E+00  1.
        1    1    1    2  502    0 -1.40194267952E+02  4.89190836639E+01  1.44398283386E+03  1.45159702879E+03  1.52587890625E-05  0.00000000000E+00  1.
        5    1    4    4  501    0  1.49484372634E+02 -2.91310938764E+02  4.19874759140E+02  5.32470672026E+02  4.75000000002E+00  0.00000000000E+00  1.
       24    2    4    4    0    0  7.11877327852E+00 -2.05740184108E+02  3.38587764763E+02  4.03982873765E+02  7.86179849537E+01  0.00000000000E+00  1.
       -1    1    7    7    0  703  3.51070821066E+01 -1.63022836687E+02  2.31151137249E+02  2.85025965041E+02  3.81469726562E-06  0.00000000000E+00  1.
        2    1    7    7  703    0 -2.79883088281E+01 -4.27173474210E+01  1.07436627513E+02  1.18956908724E+02  2.33601545599E-06  0.00000000000E+00  1.
</event>
<event>
 9 114   1.0000000E+00   7.4550000E+01   7.8125000E-03   1.3429423E-01
        2   -1    0    0  502    0  0.00000000000E+00  0.00000000000E+00  2.01681980482E+03  2.01681980482E+03  0.00000000000E+00  0.00000000000E+00  1.
        5   -1    0    0  501    0  0.00000000000E+00  0.00000000000E+00 -2.73719429149E+02  2.73719429149E+02  0.00000000000E+00  0.00000000000E+00  1.
       25    1    1    2    0    0 -1.88559095270E+02  2.12371045306E+02 -1.35914057989E+02  3.38753043459E+02  1.25000000000E+02  0.00000000000E+00  1.
        6    2    1    2  501    0  2.05487704256E+02 -2.33623836099E+02  8.39326183574E+02  9.11742962424E+02  1.73209392651E+02  0.00000000000E+00  1.
        1    1    1    2  502    0 -1.69286089854E+01  2.12527907932E+01  1.03968825008E+03  1.04004322808E+03  1.52587890625E-05  0.00000000000E+00  1.
        5    1    4    4  501    0 -9.70903842681E+00 -6.52922297032E+01  1.10016932957E+02  1.28388584867E+02  4.75000000000E+00  0.00000000000E+00  1.
       24    2    4    4    0    0  2.15196742683E+02 -1.68331606396E+02  7.29309250617E+02  7.83354377557E+02  8.43026098621E+01  0.00000000000E+00  1.
       -3    1    7    7    0  703  6.48516360204E+01 -4.71128939600E+01  1.21153905658E+02  1.45270879146E+02  3.01578298585E-06  0.00000000000E+00  1.
        4    1    7    7  703    0  1.50345106662E+02 -1.21218712436E+02  6.08155344959E+02  6.38083498411E+02  1.32144989591E-05  0.00000000000E+00  1.
</event>
<event>
 9 114   1.0000000E+00   7.4550000E+01   7.8125000E-03   1.3429423E-01
        5   -1    0    0  501    0  0.00000000000E+00  0.00000000000E+00  9.25446767598E+02  9.25446767598E+02  0.00000000000E+00  0.00000000000E+00  1.
        2   -1    0    0  502    0  0.00000000000E+00  0.00000000000E+00 -1.48713560130E+03  1.48713560130E+03  0.00000000000E+00  0.00000000000E+00  1.
       25    1    1    2    0    0 -4.05416243157E+02 -1.59388062279E+02  8.15079224296E+02  9.32601751280E+02  1.25000000000E+02  0.00000000000E+00  1.
        6    2    1    2  501    0  3.97297591604E+02  2.16377711067E+02 -1.19104779566E+03  1.28554361390E+03  1.71355891490E+02  0.00000000000E+00  1.
        1    1    1    2  502    0  8.11865155310E+00 -5.69896487876E+01 -1.85720262342E+02  1.94437003722E+02  4.67203091199E-06  0.00000000000E+00  1.
        5    1    4    4  501    0  2.71374348230E+02  9.11506015585E+01 -7.75437071723E+02  8.26606123703E+02  4.74999999999E+00  0.00000000000E+00  1.
       24    2    4    4    0    0  1.25923243374E+02  1.25227109508E+02 -4.15610723937E+02  4.58937490196E+02  7.97047920622E+01  0.00000000000E+00  1.
       -3    1    7    7    0  703  1.15304026043E+02  6.81324933157E+01 -3.22458029672E+02  3.49165055478E+02  5.39479660939E-06  0.00000000000E+00  1.
        4    1    7    7  703    0  1.06192173311E+01  5.70946161926E+01 -9.31526942654E+01  1.09772434717E+02  4.26496119976E-06  0.00000000000E+00  1.
</event>
<event>
 9 114   1.0000000E+00   7.4550000E+01   7.8125000E-03   1.3429423E-01
        2   -1    0    0  502    0  0.00000000000E+00  0.00000000000E+00  1.17926369756E+03  1.17926369756E+03  0.00000000000E+00  0.00000000000E+00  1.
        5   -1    0    0  501    0  0.00000000000E+00  0.00000000000E+00 -1.30438318403E+02  1.30438318403E+02  0.00000000000E+00  0.00000000000E+00  1.
       25    1    1    2    0    0  2.97732173693E+01  2.61312639257E+01  2.20439689365E+00  1.31145517623E+02  1.25000000000E+02  0.00000000000E+00  1.
        6    2    1    2  501    0 -1.14719620859E+02 -1.96587296287E+01  1.10766700067E+02  2.38832590658E+02  1.76705086106E+02  0.00000000000E+00  1.
        1    1    1    2  502    0  8.49464034893E+01 -6.47253429706E+00  9.35854282196E+02  9.39723907683E+02  1.07895932188E-05  0.00000000000E+00  1.
        5    1    4    4  501    0  2.16637007355E+01 -3.75603136280E+01  5.37650353874E+01  6.92339123522E+01  4.75000000000E+00  0.00000000000E+00  1.
       24    2    4    4    0    0 -1.36383321594E+02  1.79015839993E+01  5.70016646801E+01  1.69598678305E+02  8.12012609994E+01  0.00000000000E+00  1.
       -1    1    7    7    0  703 -6.40207401129E+01  3.37561281681E+01 -5.62681671656E+00  7.25933359191E+01  1.46244098501E-06  0.00000000000E+00  1.
        2    1    7    7  703    0 -7.23625814812E+01 -1.58545441687E+01  6.26284813966E+01  9.70053423863E+01  1.34869915235E-06  0.00000000000E+00  1.
</event>
<event>
 9 114   1.0000000E+00   7.4550000E+01   7.8125000E-03   1.3429423E-01
        2   -1    0    0  502    0  0.00000000000E+00  0.00000000000E+00  2.62086600725E+03  2.62086600725E+03  0.00000000000E+00  0.00000000000E+00  1.
        5   -1    0    0  501    0  0.00000000000E+00  0.00000000000E+00 -1.43545458002E+02  1.43545458002E+02  0.00000000000E+00  0.00000000000E+00  1.
       25    1    1    2    0    0 -9.32219223880E+01 -3.34552123692E+02  2.74984853087E+02  4.60279393095E+02  1.25000000000E+02  0.00000000000E+00  1.
        6    2    1    2  501    0  1.42863525978E+02  3.02194684132E+02  6.48054709737E+02  7.48721940563E+02  1.69935350342E+02  0.00000000000E+00  1.
        1    1    1    2  502    0 -4.96416035901E+01  3.23574395601E+01  1.55428098642E+03  1.55541013159E+03  2.15791864376E-05  0.00000000000E+00  1.
        5    1    4    4  501    0  7.32332527767E+00 -1.70132681174E+01  3.60906141291E+01  4.08433264240E+01  4.75000000000E+00  0.00000000000E+00  1.
       24    2    4    4    0    0  1.35540200700E+02  3.19207952250E+02  6.11964095608E+02  7.07878614139E+02  7.95437945869E+01  0.00000000000E+00  1.
       -1    1    7    7    0  703  1.03475031936E+02  2.22620797931E+02  4.97104396882E+02  5.54418509165E+02  5.39479660939E-06  0.00000000000E+00  1.
        2    1    7    7  703    0  3.20651687648E+01  9.65871543186E+01  1.14859698726E+02  1.53460104974E+02  4.67203091199E-06  0.00000000000E+00  1.
</event>
<event>
 9 114   1.0000000E+00   7.4550000E+01   7.8125000E-03   1.3429423E-01
        5   -1    0    0  501    0  0.00000000000E+00  0.00000000000E+00  3.53770566466E+02  3.53770566466E+02  0.00000000000E+00  0.00000000000E+00  1.
        2   -1    0    0  502    0  0.00000000000E+00  0.00000000000E+00 -1.97251391249E+03  1.97251391249E+03  0.00000000000E+00  0.00000000000E+00  1.
       25    1    1    2    0    0 -1.29378986200E+02  2.48485977281E+01  3.06793490652E+02  3.56515947450E+02  1.25000000000E+02  0.00000000000E+00  1.
        6    2    1    2  501    0  2.23524150960E+02 -1.13709323884E+01 -1.06170013176E+03  1.10071225469E+03  1.85116054635E+02  0.00000000000E+00  1.
        1    1    1    2  502    0 -9.41451647602E+01 -1.34776653397E+01 -8.63836704919E+02  8.69056276817E+02  1.52587890625E-05  0.00000000000E+00  1.
        5    1    4    4  501    0  1.76080821583E+02  4.24994790574E+01 -7.38441973646E+02  7.60348454586E+02  4.75000000000E+00  0.00000000000E+00  1.
       24    2    4    4    0    0  4.74433293772E+01 -5.38704114459E+01 -3.23258158111E+02  3.40363800103E+02  7.87323878926E+01  0.00000000000E+00  1.
       -1    1    7    7    0  703 -1.33340019625E+01 -1.49355672863E+01 -1.67522751432E+02  1.68714963847E+02  0.00000000000E+00  0.00000000000E+00  1.
        2    1    7    7  703    0  6.07773313397E+01 -3.89348441596E+01 -1.55735406679E+02  1.71648836256E+02  0.00000000000E+00  0.00000000000E+00  1.
</event>
<event>
 9 114   1.0000000E+00   7.4550000E+01   7.8125000E-03   1.3429423E-01
        5   -1    0    0  501    0  0.00000000000E+00  0.00000000000E+00  1.33237256161E+03  1.33237256161E+03  0.00000000000E+00  0.00000000000E+00  1.
        2   -1    0    0  502    0  0.00000000000E+00  0.00000000000E+00 -2.86747600719E+03  2.86747600719E+03  0.00000000000E+00  0.00000000000E+00  1.
       25    1    1    2    0    0  4.07581553851E+02  4.97655075069E+02  2.06120948564E+02  6.86945516193E+02  1.25000000000E+02  0.00000000000E+00  1.
        6    2    1    2  501    0 -5.99365914153E+02 -6.50849974212E+02  6.48596569063E+02  1.11050963059E+03  1.72362821526E+02  0.00000000000E+00  1.
        1    1    1    2  502    0  1.91784360303E+02  1.53194899143E+02 -2.38982096321E+03  2.40239342202E+03  0.00000000000E+00  0.00000000000E+00  1.
        5    1    4    4  501    0 -2.83325665625E+02 -2.88056471154E+02  3.76226325279E+02  5.52103951904E+02  4.75000000000E+00  0.00000000000E+00  1.
       24    2    4    4    0    0 -3.16040248528E+02 -3.62793503058E+02  2.72370243784E+02  5.58405678682E+02  7.82993469611E+01  0.00000000000E+00  1.
      -11    1    7    7    0    0 -6.33067107091E+01 -1.25376085984E+02  7.02607964404E+01  1.57046114483E+02  5.11027074320E-04  0.00000000000E+00  1.
       12    1    7    7    0    0 -2.52733537819E+02 -2.37417417075E+02  2.02109447344E+02  4.01359564200E+02  3.81469726562E-06  0.00000000000E+00  1.
</event>
<event>
 9 114   1.0000000E+00   7.4550000E+01   7.8125000E-03   1.3429423E-01
        5   -1    0    0  501    0  0.00000000000E+00  0.00000000000E+00  3.07039815983E+02  3.07039815983E+02  0.00000000000E+00  0.00000000000E+00  1.
        2   -1    0    0  502    0  0.00000000000E+00  0.00000000000E+00 -3.66403260610E+03  3.66403260610E+03  0.00000000000E+00  0.00000000000E+00  1.
       25    1    1    2    0    0 -3.63810777675E+01  1.81235174456E+02  2.52704272255E+02  3.37126416193E+02  1.25000000000E+02  0.00000000000E+00  1.
        6    2    1    2  501    0  5.10296948153E+01 -2.17072019352E+02 -1.65937621431E+03  1.68324093545E+03  1.73338786313E+02  0.00000000000E+00  1.
        1    1    1    2  502    0 -1.46486170478E+01  3.58368448952E+01 -1.95032084806E+03  1.95070507043E+03  0.00000000000E+00  0.00000000000E+00  1.
        5    1    4    4  501    0  5.22940422159E+01 -1.67219826345E+02 -8.20944281613E+02  8.39445777395E+02  4.75000000002E+00  0.00000000000E+00  1.
       24    2    4    4    0    0 -1.26434740057E+00 -4.98521930066E+01 -8.38431932695E+02  8.43795158059E+02  8.08413463471E+01  0.00000000000E+00  1.
      -13    1    7    7    0    0  1.43386976942E+01  1.69093372619E+01 -3.32585344829E+02  3.33323486568E+02  1.05660000090E-01  0.00000000000E+00  1.
       14    1    7    7    0    0 -1.56030450947E+01 -6.67615302685E+01 -5.05846587865E+02  5.10471671491E+02  1.07895932188E-05  0.00000000000E+00  1.
</event>
<event>
 9 114   1.0000000E+00   7.4550000E+01   7.8125000E-03   1.3429423E-01
        5   -1    0    0  501    0  0.00000000000E+00  0.00000000000E+00  8.34080805802E+02  8.34080805802E+02  0.00000000000E+00  0.00000000000E+00  1.
        2   -1    0    0  502    0  0.00000000000E+00  0.00000000000E+00 -2.20231546453E+03  2.20231546453E+03  0.00000000000E+00  0.00000000000E+00  1.
       25    1    1    2    0    0  1.04630805799E+02 -2.29442502709E+02  7.67943673690E+02  8.17896053011E+02  1.25000000000E+02  0.00000000000E+00  1.
        6    2    1    2  501    0 -8.22614661431E+01  2.15572382494E+02 -4.64034809485E+02  5.46149557657E+02  1.72373530477E+02  0.00000000000E+00  1.
        1    1    1    2  502    0 -2.23693396563E+01  1.38701202147E+01 -1.67214352294E+03  1.67235065967E+03  2.15791864376E-05  0.00000000000E+00  1.
        5    1    4    4  501    0 -2.50922955250E+01 -1.89181010747E+01 -3.45785280202E+01  4.69654654298E+01  4.75000000000E+00  0.00000000000E+00  1.
       24    2    4    4    0    0 -5.71691706181E+01  2.34490483569E+02 -4.29456281465E+02  4.99184092227E+02  8.06099205420E+01  0.00000000000E+00  1.
       -1    1    7    7    0  703 -6.13295972796E+01  1.45415740027E+02 -3.28771501459E+02  3.64688575529E+02  5.39479660939E-06  0.00000000000E+00  1.
        2    1    7    7  703    0  4.16042666151E+00  8.90747435416E+01 -1.00684780006E+02  1.34495516698E+02  3.01578298585E-06  0.00000000000E+00  1.
</event>
<event>
 9 114   1.0000000E+00   7.4550000E+01   7.8125000E-03   1.3429423E-01
        5   -1    0    0  501    0  0.00000000000E+00  0.00000000000E+00  4.36385957834E+02  4.36385957834E+02  0.00000000000E+00  0.00000000000E+00  1.
        2   -1    0    0  502    0  0.00000000000E+00  0.00000000000E+00 -1.56191861016E+03  1.56191861016E+03  0.00000000000E+00  0.00000000000E+00  1.
       25    1    1    2    0    0 -2.76239119938E+01  6.04078723254E+02 -1.80015213093E+02  6.43198772812E+02  1.25000000000E+02  0.00000000000E+00  1.
        6    2    1    2  501    0  6.54029284330E+01 -4.58902445727E+02 -1.11119779392E+02  5.07330553513E+02  1.73688478068E+02  0.00000000000E+00  1.
        1    1    1    2  502    0 -3.77790164392E+01 -1.45176277527E+02 -8.34397659840E+02  8.47775241668E+02  1.52587890625E-05  0.00000000000E+00  1.
        5    1    4    4  501    0  9.20379016894E+01 -2.57519190593E+02 -8.55467521435E+01  2.86579689045E+02  4.75000000000E+00  0.00000000000E+00  1.
       24    2    4    4    0    0 -2.66349732564E+01 -2.01383255134E+02 -2.55730272482E+01  2.20750864468E+02  8.25368232464E+01  0.00000000000E+00  1.
       -1    1    7    7    0  703 -2.23047229636E+01 -9.74509471439E+01  2.78972921218E+01  1.03790397790E+02  9.53674316406E-07  0.00000000000E+00  1.
        2    1    7    7  703    0 -4.33025029277E+00 -1.03932307991E+02 -5.34703193700E+01  1.16960466677E+02  2.93942165516E-06  0.00000000000E+00  1.
</event>
<event>
 9 114   1.0000000E+00   7.4550000E+01   7.8125000E-03   1.3429423E-01
        5   -1    0    0  501    0  0.00000000000E+00  0.00000000000E+00  3.30273136347E+02  3.30273136347E+02  0.00000000000E+00  0.00000000000E+00  1.
        2   -1    0    0  502    0  0.00000000000E+00  0.00000000000E+00 -7.58201731485E+02  7.58201731485E+02  0.00000000000E+00  0.00000000000E+00  1.
       25    1    1    2    0    0  2.16934322468E+02 -5.91292726504E+01  2.43014966275E+02  3.53889876914E+02  1.25000000000E+02  0.00000000000E+00  1.
        6    2    1    2  501    0 -1.42279290012E+02  3.99337022000E+01 -5.33562106222E+02  5.77055603101E+02  1.62685435537E+02  0.00000000000E+00  1.
        1    1    1    2  502    0 -7.46550324557E+01  1.91955704504E+01 -1.37381455191E+02  1.57529387818E+02  2.69739830470E-06  0.00000000000E+00  1.
        5    1    4    4  501    0  1.36786413974E+01 -2.72636112001E+01 -9.40088867407E+01  9.89476781556E+01  4.75000000001E+00  0.00000000000E+00  1.
       24    2    4    4    0    0 -1.55957931409E+02  6.71973134001E+01 -4.39553219481E+02  4.78107924945E+02  8.08813936648E+01  0.00000000000E+00  1.
       -1    1    7    7    0  703 -5.93550194764E+01  4.28209280398E+01 -9.79595506428E+01  1.22281330453E+02  5.39479660939E-06  0.00000000000E+00  1.
        2    1    7    7  703    0 -9.66029119330E+01  2.43763853602E+01 -3.41593668839E+02  3.55826594492E+02  3.81469726562E-06  0.00000000000E+00  1.
</event>
<event>
 9 114   1.0000000E+00   7.4550000E+01   7.8125000E-03   1.3429423E-01
        5   -1    0    0  501    0  0.00000000000E+00  0.00000000000E+00  8.67780034028E+02  8.67780034028E+02  0.00000000000E+00  0.00000000000E+00  1.
        2   -1    0    0  502    0  0.00000000000E+00  0.00000000000E+00 -1.01992434224E+03  1.01992434224E+03  0.00000000000E+00  0.00000000000E+00  1.
       25    1    1    2    0    0 -2.01059933595E+01 -6.01304809354E+02  6.05890626065E+02  8.62960123919E+02  1.25000000000E+02  0.00000000000E+00  1.
        6    2    1    2  501    0  1.64271167662E+01  5.95730559471E+02 -5.89054807872E+02  8.55632190347E+02  1.73078389256E+02  0.00000000000E+00  1.
        1    1    1    2  502    0  3.67887659331E+00  5.57424988246E+00 -1.68980126401E+02  1.69112061998E+02  4.26496119976E-06  0.00000000000E+00  1.
        5    1    4    4  501    0 -1.46859390310E+01  1.83052995767E+02 -2.72035333003E+02  3.28252739465E+02  4.74999999999E+00  0.00000000000E+00  1.
       24    2    4    4    0    0  3.11130557972E+01  4.12677563705E+02 -3.17019474869E+02  5.27379450881E+02  7.97304455000E+01  0.00000000000E+00  1.
      -13    1    7    7    0    0  1.55416623511E+01  3.90411443177E+02 -3.11402903353E+02  4.99634283864E+02  1.05660000297E-01  0.00000000000E+00  1.
       14    1    7    7    0    0  1.55713934460E+01  2.22661205276E+01 -5.61657151603E+00  2.77451670169E+01  3.86282247210E-07  0.00000000000E+00  1.
</event>
<event>
 9 114   1.0000000E+00   7.4550000E+01   7.8125000E-03   1.3429423E-01
        5   -1    0    0  501    0  0.00000000000E+00  0.00000000000E+00  4.88584691232E+02  4.88584691232E+02  0.00000000000E+00  0.00000000000E+00  1.
        2   -1    0    0  502    0  0.00000000000E+00  0.00000000000E+00 -2.21163819779E+03  2.21163819779E+03  0.00000000000E+00  0.00000000000E+00  1.
       25    1    1    2    0    0 -2.86927174750E+02 -6.51488854406E+02  5.94883485391E+01  7.25209483279E+02  1.25000000000E+02  0.00000000000E+00  1.
        6    2    1    2  501    0  2.63178059431E+02  7.13196062300E+02 -1.57694088238E+03  1.75904220404E+03  1.71975622743E+02  0.00000000000E+00  1.
        1    1    1    2  502    0  2.37491153182E+01 -6.17072078937E+01 -2.05600972713E+02  2.15971201703E+02  1.84924310967E-05  0.00000000000E+00  1.
        5    1    4    4  501    0  1.25108428452E+02  1.73180801209E+02 -4.98850796999E+02  5.42695484543E+02  4.75000000002E+00  0.00000000000E+00  1.
       24    2    4    4    0    0  1.38069630980E+02  5.40015261091E+02 -1.07809008539E+03  1.21634671950E+03  8.08789504012E+01  0.00000000000E+00  1.
       -3    1    7    7    0  703  1.45284759773E+02  4.82848107517E+02 -9.39602987662E+02  1.06635066033E+03  1.07895932188E-05  0.00000000000E+00  1.
        4    1    7    7  703    0 -7.21512879365E+00  5.71671535743E+01 -1.38487097724E+02  1.49996059173E+02  1.44001663881E-05  0.00000000000E+00  1.
</event>
<event>
 9 114   1.0000000E+00   7.4550000E+01   7.8125000E-03   1.3429423E-01
        5   -1    0    0  501    0  0.00000000000E+00  0.00000000000E+00  2.62861955268E+02  2.62861955268E+02  0.00000000000E+00  0.00000000000E+00  1.
        2   -1    0    0  502    0  0.00000000000E+00  0.00000000000E+00 -1.87155353160E+03  1.87155353160E+03  0.00000000000E+00  0.00000000000E+00  1.
       25    1    1    2    0    0 -3.65149322602E+02  2.39706000280E+02 -9.22077472329E+01  4.63594934201E+02  1.25000000000E+02  0.00000000000E+00  1.
        6    2    1    2  501    0  4.01331973881E+02 -2.26222903889E+02 -7.12598725564E+02  8.66008625677E+02  1.73002429369E+02  0.00000000000E+00  1.
        1    1    1    2  502    0 -3.61826512798E+01 -1.34830963903E+01 -8.03885103534E+02  8.04811926990E+02  0.00000000000E+00  0.00000000000E+00  1.
        5    1    4    4  501    0  1.70852281392E+02 -2.28768960183E+01 -2.09082031976E+02  2.71019765005E+02  4.75000000001E+00  0.00000000000E+00  1.
       24    2    4    4    0    0  2.30479692490E+02 -2.03346007871E+02 -5.03516693588E+02  5.94988860672E+02  7.75383520225E+01  0.00000000000E+00  1.
       -1    1    7    7    0  703  9.08475948895E+01 -1.30879020779E+02 -2.39291221038E+02  2.87476767832E+02  7.13664510112E-06  0.00000000000E+00  1.
        2    1    7    7  703    0  1.39632097600E+02 -7.24669870926E+01 -2.64225472550E+02  3.07512092840E+02  6.60724947956E-06  0.00000000000E+00  1.
</event>
<event>
 9 114   1.0000000E+00   7.4550000E+01   7.8125000E-03   1.3429423E-01
        5   -1    0    0  501    0  0.00000000000E+00  0.00000000000E+00  9.89729756465E+02  9.89729756465E+02  0.00000000000E+00  0.00000000000E+00  1.
        2   -1    0    0  502    0  0.00000000000E+00  0.00000000000E+00 -8.85922205462E+02  8.85922205462E+02  0.00000000000E+00  0.00000000000E+00  1.
       25    1    1    2    0    0  2.32215108062E+02 -1.78103347600E+02  7.64629338403E+02  8.28207512635E+02  1.25000000000E+02  0.00000000000E+00  1.
        6    2    1    2  501    0 -2.59756488128E+02  3.68378000586E+01  5.29311060573E+01  3.19325176469E+02  1.74173504588E+02  0.00000000000E+00  1.
        1    1    1    2  502    0  2.75413800658E+01  1.41265547541E+02 -7.13752893457E+02  7.28119272823E+02  0.00000000000E+00  0.00000000000E+00  1.
        5    1    4    4  501    0  1.79173058404E+01  1.72140539640E+01  6.32207557004E+00  2.60745976377E+01  4.75000000000E+00  0.00000000000E+00  1.
       24    2    4    4    0    0 -2.77673793968E+02  1.96237460946E+01  4.66090304872E+01  2.93250578831E+02  7.95969408591E+01  0.00000000000E+00  1.
       -1    1    7    7    0  703 -2.54297217565E+02  2.72553655417E+01  6.33742243767E+01  2.63488561663E+02  4.26496119976E-06  0.00000000000E+00  1.
        2    1    7    7  703    0 -2.33765764035E+01 -7.63161944710E+00 -1.67651938895E+01  2.97620171676E+01  3.09944152832E-06  0.00000000000E+00  1.
</event>
<event>
 9 114   1.0000000E+00   7.4550000E+01   7.8125000E-03   1.3429423E-01
        5   -1    0    0  501    0  0.00000000000E+00  0.00000000000E+00  2.49810286794E+02  2.49810286794E+02  0.00000000000E+00  0.00000000000E+00  1.
        2   -1    0    0  502    0  0.00000000000E+00  0.00000000000E+00 -3.59496625977E+03  3.59496625977E+03  0.00000000000E+00  0.00000000000E+00  1.
       25    1    1    2    0    0  3.55745601542E+02 -1.90623318140E+02 -5.37879164900E+01  4.25922906634E+02  1.25000000000E+02  0.00000000000E+00  1.
        6    2    1    2  501    0 -4.97077094031E+02 -4.40179284063E+01 -1.22050878307E+03  1.32995698484E+03  1.73553094297E+02  0.00000000000E+00  1.
        1    1    1    2  502    0  1.41331492489E+02  2.34641246547E+02 -2.07085927342E+03  2.08889665510E+03  0.00000000000E+00  0.00000000000E+00  1.
        5    1    4    4  501    0 -2.90522618442E+02  3.24949388855E+01 -7.25127093846E+02  7.81851122407E+02  4.74999999998E+00  0.00000000000E+00  1.
       24    2    4    4    0    0 -2.06554475589E+02 -7.65128672918E+01 -4.95381689221E+02  5.48105862429E+02  8.06104718196E+01  0.00000000000E+00  1.
       -3    1    7    7    0  703 -1.69240804788E+02 -5.92526198002E+01 -4.60534898283E+02  4.94212217064E+02  1.07895932188E-05  0.00000000000E+00  1.
        4    1    7    7  703    0 -3.73136708011E+01 -1.72602474916E+01 -3.48467909376E+01  5.38936453654E+01  3.12683035102E-06  0.00000000000E+00  1.
</event>
<event>
 9 114   1.0000000E+00   7.4550000E+01   7.8125000E-03   1.3429423E-01
        5   -1    0    0  501    0  0.00000000000E+00  0.00000000000E+00  1.57603990552E+03  1.57603990552E+03  0.00000000000E+00  0.00000000000E+00  1.
        2   -1    0    0  502    0  0.00000000000E+00  0.00000000000E+00 -1.41924236561E+03  1.41924236561E+03  0.00000000000E+00  0.00000000000E+00  1.
       25    1    1    2    0    0  9.54623542265E+02  4.35958214718E+02  1.01354771221E+03  1.46433248867E+03  1.25000000000E+02  0.00000000000E+00  1.
        6    2    1    2  501    0 -1.00629604592E+03 -4.34914995252E+02 -5.85033925277E+02  1.25436190340E+03  1.71395174529E+02  0.00000000000E+00  1.
        1    1    1    2  502    0  5.16725036552E+01 -1.04321946598E+00 -2.71716247029E+02  2.76587879055E+02  5.39479660939E-06  0.00000000000E+00  1.
        5    1    4    4  501    0 -2.27439491756E+02 -1.55001641581E+02 -1.85345225508E+02  3.31857870814E+02  4.75000000001E+00  0.00000000000E+00  1.
       24    2    4    4    0    0 -7.78856554165E+02 -2.79913353671E+02 -3.99688699770E+02  9.22504032588E+02  7.93323130199E+01  0.00000000000E+00  1.
       -1    1    7    7    0  703 -6.04389502165E+02 -2.27115428148E+02 -2.75712888875E+02  7.02058177875E+02  3.81469726562E-06  0.00000000000E+00  1.
        2    1    7    7  703    0 -1.74467052000E+02 -5.27979255229E+01 -1.23975810894E+02  2.20445854713E+02  9.14732269919E-06  0.00000000000E+00  1.
</event>
<event>
 9 114   1.0000000E+00   7.4550000E+01   7.8125000E-03   1.3429423E-01
        5   -1    0    0  501    0  0.00000000000E+00  0.00000000000E+00  4.84505833924E+01  4.84505833924E+01  0.00000000000E+00  0.00000000000E+00  1.
        2   -1    0    0  502    0  0.00000000000E+00  0.00000000000E+00 -2.49392904631E+03  2.49392904631E+03  0.00000000000E+00  0.00000000000E+00  1.
       25    1    1    2    0    0 -1.03936525582E+02  4.95110615118E+01 -1.24993044819E+02  2.10955938089E+02  1.25000000000E+02  0.00000000000E+00  1.
        6    2    1    2  501    0  8.55782338759E+01 -4.43157127646E+01 -1.85238633221E+03  1.86293594072E+03  1.72938367555E+02  0.00000000000E+00  1.
        1    1    1    2  502    0  1.83582917056E+01 -5.19534874716E+00 -4.68099085893E+02  4.68487750893E+02  1.07895932188E-05  0.00000000000E+00  1.
        5    1    4    4  501    0 -1.34551612674E+01 -2.75767416266E+01 -7.76973355550E+01  8.36717186139E+01  4.74999999990E+00  0.00000000000E+00  1.
       24    2    4    4    0    0  9.90333951433E+01 -1.67389711380E+01 -1.77468899665E+03  1.77926422211E+03  7.85641822017E+01  0.00000000000E+00  1.
      -15    1    7    7    0    0  2.61183993368E+01 -4.13308210478E+01 -5.56047974412E+02  5.58196125406E+02  1.77679999991E+00  0.00000000000E+00  1.
       16    1    7    7    0    0  7.29149958065E+01  2.45918499098E+01 -1.21864102224E+03  1.22106809670E+03  0.00000000000E+00  0.00000000000E+00  1.
</event>
<event>
 9 114   1.0000000E+00   7.4550000E+01   7.8125000E-03   1.3429423E-01
        5   -1    0    0  501    0  0.00000000000E+00  0.00000000000E+00  3.02829186386E+03  3.02829186386E+03  0.00000000000E+00  0.00000000000E+00  1.
        2   -1    0    0  502    0  0.00000000000E+00  0.00000000000E+00 -2.79916367277E+03  2.79916367277E+03  0.00000000000E+00  0.00000000000E+00  1.
       25    1    1    2    0    0  5.60877429778E+02 -1.88549997499E+03  1.82803686919E+03  2.68831498192E+03  1.25000000000E+02  0.00000000000E+00  1.
        6    2    1    2  501    0 -5.67376293687E+02  1.84797572741E+03 -4.53631258790E+02  1.99323014304E+03  1.73939461991E+02  0.00000000000E+00  1.
        1    1    1    2  502    0  6.49886390810E+00  3.75242475800E+01 -1.14527741931E+03  1.14591041167E+03  3.73762472959E-05  0.00000000000E+00  1.
        5    1    4    4  501    0 -2.89460977854E+00  6.17680021217E+01 -3.80196271832E+01  7.27442052883E+01  4.75000000009E+00  0.00000000000E+00  1.
       24    2    4    4    0    0 -5.64481683908E+02  1.78620772528E+03 -4.15611631606E+02  1.92048593775E+03  7.97220134460E+01  0.00000000000E+00  1.
       -1    1    7    7    0  703 -3.68221426374E+02  1.06374174469E+03 -2.74463810742E+02  1.15864744493E+03  3.81469726562E-06  0.00000000000E+00  1.
        2    1    7    7  703    0 -1.96260257534E+02  7.22465980594E+02 -1.41147820864E+02  7.61838492817E+02  1.04469787122E-05  0.00000000000E+00  1.
</event>
<event>
 9 114   1.0000000E+00   7.4550000E+01   7.8125000E-03   1.3429423E-01
        5   -1    0    0  501    0  0.00000000000E+00  0.00000000000E+00  1.90409780568E+03  1.90409780568E+03  0.00000000000E+00  0.00000000000E+00  1.
        2   -1    0    0  502    0  0.00000000000E+00  0.00000000000E+00 -1.23140888438E+03  1.23140888438E+03  0.00000000000E+00  0.00000000000E+00  1.
       25    1    1    2    0    0 -2.50511530466E+02 -1.07261997233E+02  1.86912076914E+03  1.89301310417E+03  1.25000000000E+02  0.00000000000E+00  1.
        6    2    1    2  501    0  2.45514257631E+02  1.05272198045E+02 -1.07899296394E+03  1.12493158741E+03  1.72875023463E+02  0.00000000000E+00  1.
        1    1    1    2  502    0  4.99727283581E+00  1.98979918880E+00 -1.17438883894E+02  1.17561998481E+02  1.34869915235E-06  0.00000000000E+00  1.
        5    1    4    4  501    0  1.98166266808E+02  7.33471276873E+01 -6.07342056047E+02  6.43068119241E+02  4.74999999998E+00  0.00000000000E+00  1.
       24    2    4    4    0    0  4.73479908230E+01  3.19250703574E+01 -4.71650907889E+02  4.81863468165E+02  8.04784485844E+01  0.00000000000E+00  1.
      -13    1    7    7    0    0  8.93082883461E-01  4.03167449920E+01 -3.32206353609E+02  3.34645050861E+02  1.05660000228E-01  0.00000000000E+00  1.
       14    1    7    7    0    0  4.64549079396E+01 -8.39167463467E+00 -1.39444554280E+02  1.47218417303E+02  6.60724947956E-06  0.00000000000E+00  1.
</event>
<event>
 9 114   1.0000000E+00   7.4550000E+01   7.8125000E-03   1.3429423E-01
        5   -1    0    0  501    0  0.00000000000E+00  0.00000000000E+00  4.64715683165E+02  4.64715683165E+02  0.00000000000E+00  0.00000000000E+00  1.
        2   -1    0    0  502    0  0.00000000000E+00  0.00000000000E+00 -1.12386228196E+03  1.12386228196E+03  0.00000000000E+00  0.00000000000E+00  1.
       25    1    1    2    0    0  6.02839537145E+01 -1.05272755880E+02  1.05092509012E+02  2.03435354982E+02  1.25000000000E+02  0.00000000000E+00  1.
        6    2    1    2  501    0 -6.46646258492E+01  2.01343637204E+02  2.47497319369E+02  3.68845703428E+02  1.73411233095E+02  0.00000000000E+00  1.
        1    1    1    2  502    0  4.38067213472E+00 -9.60708813242E+01 -1.01173642717E+03  1.01629690671E+03  2.41262638868E-05  0.00000000000E+00  1.
        5    1    4    4  501    0 -4.90920456854E+01  1.36561696858E+02  2.13379747820E+02  2.58094179086E+02  4.74999999999E+00  0.00000000000E+00  1.
       24    2    4    4    0    0 -1.55725801638E+01  6.47819403453E+01  3.41175715492E+01  1.10751524342E+02  8.16252804450E+01  0.00000000000E+00  1.
       -1    1    7    7    0  703  3.26421929155E+01  3.84072808380E+01  1.58585319494E+01  5.28405622159E+01  1.07948602893E-06  0.00000000000E+00  1.
        2    1    7    7  703    0 -4.82147730794E+01  2.63746595073E+01  1.82590395998E+01  5.79109621257E+01  1.26159253648E-06  0.00000000000E+00  1.
</event>
<event>
 9 114   1.0000000E+00   7.4550000E+01   7.8125000E-03   1.3429423E-01
        5   -1    0    0  501    0  0.00000000000E+00  0.00000000000E+00  8.81455220302E+02  8.81455220302E+02  0.00000000000E+00  0.00000000000E+00  1.
        2   -1    0    0  502    0  0.00000000000E+00  0.00000000000E+00 -1.09311164128E+03  1.09311164128E+03  0.00000000000E+00  0.00000000000E+00  1.
       25    1    1    2    0    0  2.94262768758E+02 -4.71651903415E+01  7.52980948769E+02  8.19402490517E+02  1.25000000000E+02  0.00000000000E+00  1.
        6    2    1    2  501    0 -3.79705204367E+02 -2.72912201297E+01 -4.00641405749E+02  5.79894335108E+02  1.75621897752E+02  0.00000000000E+00  1.
        1    1    1    2  502    0  8.54424356090E+01  7.44564104712E+01 -5.63995964001E+02  5.75270035959E+02  7.62939453125E-06  0.00000000000E+00  1.
        5    1    4    4  501    0 -8.18797599158E+01 -2.09689780868E+01 -1.83006806284E+02  2.01638405995E+02  4.75000000000E+00  0.00000000000E+00  1.
       24    2    4    4    0    0 -2.97825444451E+02 -6.32224204294E+00 -2.17634599465E+02  3.78255929113E+02  8.35030713076E+01  0.00000000000E+00  1.
       -1    1    7    7    0  703 -1.12570417142E+02  1.99337636338E+01 -1.25269184430E+02  1.69593108102E+02  2.33601545599E-06  0.00000000000E+00  1.
        2    1    7    7  703    0 -1.85255027309E+02 -2.62560056768E+01 -9.23654150353E+01  2.08662821011E+02  3.56832255056E-06  0.00000000000E+00  1.
</event>
<event>
 9 114   1.0000000E+00   7.4550000E+01   7.8125000E-03   1.3429423E-01
        5   -1    0    0  501    0  0.00000000000E+00  0.00000000000E+00  2.97752499916E+02  2.97752499916E+02  0.00000000000E+00  0.00000000000E+00  1.
        2   -1    0    0  502    0  0.00000000000E+00  0.00000000000E+00 -4.56463200757E+03  4.56463200757E+03  0.00000000000E+00  0.00000000000E+00  1.
       25    1    1    2    0    0  1.37387958081E+02 -1.00895227807E+03 -1.08782513573E+03  1.49527545167E+03  1.25000000000E+02  0.00000000000E+00  1.
        6    2    1    2  501    0 -8.14173599399E+01  1.02437717460E+03 -2.88502380400E+03  3.06740151476E+03  1.72082308208E+02  0.00000000000E+00  1.
        1    1    1    2  502    0 -5.59705981411E+01 -1.54248965287E+01 -2.94030567923E+02  2.99707541050E+02  5.39479660939E-06  0.00000000000E+00  1.
        5    1    4    4  501    0 -2.66596040296E+01  3.36270521885E+01 -1.74737073905E+02  1.79992001552E+02  4.75000000003E+00  0.00000000000E+00  1.
       24    2    4    4    0    0 -5.47577559103E+01  9.90750122408E+02 -2.71028673009E+03  2.88740951321E+03  8.30380682282E+01  0.00000000000E+00  1.
      -13    1    7    7    0    0  9.36494884959E+00  4.07466743139E+02 -1.03739486984E+03  1.11458735691E+03  1.05659996922E-01  0.00000000000E+00  1.
       14    1    7    7    0    0 -6.41227047599E+01  5.83283379269E+02 -1.67289186025E+03  1.77282215630E+03  2.15791864376E-05  0.00000000000E+00  1.
</event>
<event>
 9 114   1.0000000E+00   7.4550000E+01   7.8125000E-03   1.3429423E-01
        5   -1    0    0  501    0  0.00000000000E+00  0.00000000000E+00  4.17381836341E+02  4.17381836341E+02  0.00000000000E+00  0.00000000000E+00  1.
        2   -1    0    0  502    0  0.00000000000E+00  0.00000000000E+00 -2.33610355454E+03  2.33610355454E+03  0.00000000000E+00  0.00000000000E+00  1.
       25    1    1    2    0    0 -3.34438832757E+02  1.51698985484E+01  3.17350991156E+02  4.77928980357E+02  1.25000000000E+02  0.00000000000E+00  1.
        6    2    1    2  501    0  3.04874577935E+02 -4.76833251409E+01 -1.63807803074E+03  1.67594920266E+03  1.74022663277E+02  0.00000000000E+00  1.
        1    1    1    2  502    0  2.95642548219E+01  3.25134265925E+01 -5.97994678617E+02  5.99607207867E+02  1.07895932188E-05  0.00000000000E+00  1.
        5    1    4    4  501    0  9.22267466147E+01  7.20221492478E-01 -8.28884709707E+02  8.34013618591E+02  4.75000000000E+00  0.00000000000E+00  1.
       24    2    4    4    0    0  2.12647831320E+02 -4.84035466334E+01 -8.09193321030E+02  8.41935584065E+02  8.06206761520E+01  0.00000000000E+00  1.
       -1    1    7    7    0  703  1.73398178899E+02 -1.66022732152E+01 -7.04166672664E+02  7.25391802278E+02  1.07895932188E-05  0.00000000000E+00  1.
        2    1    7    7  703    0  3.92496524212E+01 -3.18012734183E+01 -1.05026648367E+02  1.16543781788E+02  1.34869915235E-06  0.00000000000E+00  1.
</event>
<event>
 9 114   1.0000000E+00   7.4550000E+01   7.8125000E-03   1.3429423E-01
        5   -1    0    0  501    0  0.00000000000E+00  0.00000000000E+00  1.55058787960E+03  1.55058787960E+03  0.00000000000E+00  0.00000000000E+00  1.
        2   -1    0    0  502    0  0.00000000000E+00  0.00000000000E+00 -2.74304470012E+03  2.74304470012E+03  0.00000000000E+00  0.00000000000E+00  1.
       25    1    1    2    0    0  9.20413232643E+02  8.62422717648E+02  8.08414816543E+02  1.50336056166E+03  1.25000000000E+02  0.00000000000E+00  1.
        6    2    1    2  501    0 -1.19471809478E+03 -4.95681391480E+02 -8.65037634449E+02  1.56558379684E+03  1.72369220149E+02  0.00000000000E+00  1.
        1    1    1    2  502    0  2.74304862142E+02 -3.66741326167E+02 -1.13583400261E+03  1.22468822122E+03  0.00000000000E+00  0.00000000000E+00  1.
        5    1    4    4  501    0 -7.85504927938E+02 -2.78055769767E+02 -5.73737510824E+02  1.01169674149E+03  4.74999999999E+00  0.00000000000E+00  1.
       24    2    4    4    0    0 -4.09213166847E+02 -2.17625621713E+02 -2.91300123625E+02  5.53887055351E+02  8.43728683595E+01  0.00000000000E+00  1.
       -3    1    7    7    0  703 -3.71326594208E+02 -2.21667062039E+02 -2.60177417905E+02  5.04690018474E+02  3.81469726562E-06  0.00000000000E+00  1.
        4    1    7    7  703    0 -3.78865726382E+01  4.04144032627E+00 -3.11227057197E+01  4.91970368772E+01  3.93209993898E-06  0.00000000000E+00  1.
</event>
<event>
 9 114   1.0000000E+00   7.4550000E+01   7.8125000E-03   1.3429423E-01
        5   -1    0    0  501    0  0.00000000000E+00  0.00000000000E+00  8.71315062801E+02  8.71315062801E+02  0.00000000000E+00  0.00000000000E+00  1.
        2   -1    0    0  502    0  0.00000000000E+00  0.00000000000E+00 -2.91310507740E+03  2.91310507740E+03  0.00000000000E+00  0.00000000000E+00  1.
       25    1    1    2    0    0 -7.74831899395E+02 -4.91570831216E+02  5.11026727273E+02  1.05772381575E+03  1.25000000000E+02  0.00000000000E+00  1.
        6    2    1    2  501    0  7.76862976536E+02  4.84036219519E+02 -2.41016223500E+03  2.58382853949E+03  1.71699669037E+02  0.00000000000E+00  1.
        1    1    1    2  502    0 -2.03107714139E+00  7.53461169672E+00 -1.42654506876E+02  1.42867784962E+02  1.47742589806E-05  0.00000000000E+00  1.
        5    1    4    4  501    0  5.36912638209E+02  2.77931140081E+02 -1.56157646372E+03  1.67453411857E+03  4.74999999985E+00  0.00000000000E+00  1.
       24    2    4    4    0    0  2.39950338328E+02  2.06105079438E+02 -8.48585771272E+02  9.09294420918E+02  8.16275938241E+01  0.00000000000E+00  1.
      -15    1    7    7    0    0  2.33190056973E+02  1.90864364704E+02 -7.33225155557E+02  7.92735197998E+02  1.77679999999E+00  0.00000000000E+00  1.
       16    1    7    7    0    0  6.76028135490E+00  1.52407147337E+01 -1.15360615714E+02  1.16559222920E+02  6.74349576174E-06  0.00000000000E+00  1.
</event>
<event>
 9 114   1.0000000E+00   7.4550000E+01   7.8125000E-03   1.3429423E-01
        5   -1    0    0  501    0  0.00000000000E+00  0.00000000000E+00  1.77031335605E+03  1.77031335605E+03  0.00000000000E+00  0.00000000000E+00  1.
        2   -1    0    0  502    0  0.00000000000E+00  0.00000000000E+00 -1.38554499511E+03  1.38554499511E+03  0.00000000000E+00  0.00000000000E+00  1.
       25    1    1    2    0    0  3.97357797868E+02 -3.05454405761E+02  1.65696024236E+03  1.73560878607E+03  1.25000000000E+02  0.00000000000E+00  1.
        6    2    1    2  501    0 -3.77669413296E+02  2.74837359047E+02 -7.72363613894E+02  9.19097559162E+02  1.73277267759E+02  0.00000000000E+00  1.
        1    1    1    2  502    0 -1.96883845723E+01  3.06170467137E+01 -4.99828267526E+02  5.01152005937E+02  7.62939453125E-06  0.00000000000E+00  1.
        5    1    4    4  501    0 -1.22771779341E+02  4.10158212923E+01 -1.20795199463E+02  1.77113664385E+02  4.75000000000E+00  0.00000000000E+00  1.
       24    2    4    4    0    0 -2.54897633955E+02  2.33821537755E+02 -6.51568414432E+02  7.41983894777E+02  7.97081307559E+01  0.00000000000E+00  1.
       -1    1    7    7    0  703 -1.60163585587E+02  1.78111100049E+02 -3.82184909376E+02  4.51044613163E+02  7.62939453125E-06  0.00000000000E+00  1.
        2    1    7    7  703    0 -9.47340483683E+01  5.57104377062E+01 -2.69383505056E+02  2.90939281614E+02  7.62939453125E-06  0.00000000000E+00  1.
</event>
<event>
 9 114   1.0000000E+00   7.4550000E+01   7.8125000E-03   1.3429423E-01
        5   -1    0    0  501    0  0.00000000000E+00  0.00000000000E+00  3.28429256971E+02  3.28429256971E+02  0.00000000000E+00  0.00000000000E+00  1.
        2   -1    0    0  502    0  0.00000000000E+00  0.00000000000E+00 -3.20524648348E+03  3.20524648348E+03  0.00000000000E+00  0.00000000000E+00  1.
       25    1    1    2    0    0 -1.03321196732E+02 -4.82473587769E+02 -8.40933976921E+02  9.82980664168E+02  1.25000000000E+02  0.00000000000E+00  1.
        6    2    1    2  501    0 -2.46257559091E+02  1.62317384255E+02  1.04307238236E+02  3.58636540261E+02  1.75358060610E+02  0.00000000000E+00  1.
        1    1    1    2  502    0  3.49578755823E+02  3.20156203514E+02 -2.14019048782E+03  2.19205853602E+03  3.05175781250E-05  0.00000000000E+00  1.
        5    1    4    4  501    0 -1.09765574142E+02  1.25647281361E+01  8.07774035455E+01  1.36944897982E+02  4.75000000000E+00  0.00000000000E+00  1.
       24    2    4    4    0    0 -1.36491984949E+02  1.49752656119E+02  2.35298346904E+01  2.21691642279E+02  8.68194169847E+01  0.00000000000E+00  1.
       -1    1    7    7    0  703 -9.11727512928E+01  4.96501717940E+01  3.86426540255E+01  1.10773935777E+02  2.52318507296E-06  0.00000000000E+00  1.
        2    1    7    7  703    0 -4.53192336566E+01  1.00102484325E+02 -1.51128193352E+01  1.10917706501E+02  1.54512898884E-06  0.00000000000E+00  1.
</event>
<event>
 9 114   1.0000000E+00   7.4550000E+01   7.8125000E-03   1.3429423E-01
        5   -1    0    0  501    0  0.00000000000E+00  0.00000000000E+00  2.21279124391E+03  2.21279124391E+03  0.00000000000E+00  0.00000000000E+00  1.
        2   -1    0    0  502    0  0.00000000000E+00  0.00000000000E+00 -1.57411501500E+03  1.57411501500E+03  0.00000000000E+00  0.00000000000E+00  1.
       25    1    1    2    0    0  5.65742151113E+02  1.67669495627E+03  5.12263914491E+02  1.84645863101E+03  1.25000000000E+02  0.00000000000E+00  1.
        6    2    1    2  501    0 -6.40617675893E+02 -1.61937390314E+03  2.67813914861E+02  1.77048745625E+03  1.73604996726E+02  0.00000000000E+00  1.
        1    1    1    2  502    0  7.48755247800E+01 -5.73210531294E+01 -1.41401600440E+02  1.69960171657E+02  1.72717764628E-05  0.00000000000E+00  1.
        5    1    4    4  501    0 -4.17874199427E+02 -9.29818700448E+02  1.18626649557E+02  1.02629260288E+03  4.75000000004E+00  0.00000000000E+00  1.
       24    2    4    4    0    0 -2.22743476466E+02 -6.89555202694E+02  1.49187265303E+02  7.44194853362E+02  8.04245346355E+01  0.00000000000E+00  1.
       -1    1    7    7    0  703 -1.18737594743E+01 -2.14694483535E+01 -8.73302242472E+00  2.60420632310E+01  8.86487600449E-06  0.00000000000E+00  1.
        2    1    7    7  703    0 -2.10869716992E+02 -6.68085754340E+02  1.57920287728E+02  7.18152790131E+02  2.69739830470E-06  0.00000000000E+00  1.
</event>
<event>
 9 114   1.0000000E+00   7.4550000E+01   7.8125000E-03   1.3429423E-01
        5   -1    0    0  501    0  0.00000000000E+00  0.00000000000E+00  8.71359931008E+02  8.71359931008E+02  0.00000000000E+00  0.00000000000E+00  1.
        2   -1    0    0  502    0  0.00000000000E+00  0.00000000000E+00 -1.61837016046E+03  1.61837016046E+03  0.00000000000E+00  0.00000000000E+00  1.
       25    1    1    2    0    0  2.56457827602E+02 -1.37155533040E+02  7.97266871972E+02  8.57812172172E+02  1.25000000000E+02  0.00000000000E+00  1.
        6    2    1    2  501    0 -6.84458075746E+01  2.87240052290E+01 -2.07593452074E+02  2.77728459013E+02  1.68902808002E+02  0.00000000000E+00  1.
        1    1    1    2  502    0 -1.88012020028E+02  1.08431527811E+02 -1.33668364935E+03  1.35418946029E+03  1.52587890625E-05  0.00000000000E+00  1.
        5    1    4    4  501    0  4.30913558658E+01 -5.42786367837E+00 -5.58958487584E+01  7.09452962703E+01  4.75000000000E+00  0.00000000000E+00  1.
       24    2    4    4    0    0 -1.11537163440E+02  3.41518689074E+01 -1.51697603315E+02  2.06783162742E+02  7.83595850166E+01  0.00000000000E+00  1.
       -1    1    7    7    0  703 -1.14922703680E+02  1.36142708374E+01 -1.43650728866E+02  1.84467092174E+02  3.30362473978E-06  0.00000000000E+00  1.
        2    1    7    7  703    0  3.38554023932E+00  2.05375980700E+01 -8.04687444898E+00  2.23160705680E+01  2.43723968271E-06  0.00000000000E+00  1.
</event>
<event>
 9 114   1.0000000E+00   7.4550000E+01   7.8125000E-03   1.3429423E-01
        5   -1    0    0  501    0  0.00000000000E+00  0.00000000000E+00  1.01895702487E+02  1.01895702487E+02  0.00000000000E+00  0.00000000000E+00  1.
        2   -1    0    0  502    0  0.00000000000E+00  0.00000000000E+00 -1.03725402199E+03  1.03725402199E+03  0.00000000000E+00  0.00000000000E+00  1.
       25    1    1    2    0    0 -1.49787151633E+02  6.76760877064E+01 -1.32419937467E+02  2.45308547508E+02  1.25000000000E+02  0.00000000000E+00  1.
        6    2    1    2  501    0  1.50142476645E+02 -6.56830094654E+01 -2.69875550236E+02  3.60774500781E+02  1.74552017384E+02  0.00000000000E+00  1.
        1    1    1    2  502    0 -3.55325012389E-01 -1.99307824105E+00 -5.33062831802E+02  5.33066676191E+02  7.62939453125E-06  0.00000000000E+00  1.
        5    1    4    4  501    0  1.32682120070E+01  2.10833703778E+00 -1.48613863482E+02  1.49295456910E+02  4.75000000000E+00  0.00000000000E+00  1.
       24    2    4    4    0    0  1.36874264638E+02 -6.77913465032E+01 -1.21261686754E+02  2.11479043871E+02  8.17848295292E+01  0.00000000000E+00  1.
       -3    1    7    7    0  703  1.11360338214E+01  3.28054538091E+00 -4.82741385642E+01  4.96504348560E+01  2.61174467805E-06  0.00000000000E+00  1.
        4    1    7    7  703    0  1.25738230817E+02 -7.10718918841E+01 -7.29875481899E+01  1.61828609015E+02  3.81469726562E-06  0.00000000000E+00  1.
</event>
<event>
 9 114   1.0000000E+00   7.4550000E+01   7.8125000E-03   1.3429423E-01
        5   -1    0    0  501    0  0.00000000000E+00  0.00000000000E+00  3.13685854102E+02  3.13685854102E+02  0.00000000000E+00  0.00000000000E+00  1.
        2   -1    0    0  502    0  0.00000000000E+00  0.00000000000E+00 -3.49930378104E+03  3.49930378104E+03  0.00000000000E+00  0.00000000000E+00  1.
       25    1    1    2    0    0  2.41023288046E+02  3.22431603173E+02  1.41762974942E+02  4.44720254957E+02  1.25000000000E+02  0.00000000000E+00  1.
        6    2    1    2  501    0 -9.59457868324E+01 -3.13732645611E+02 -2.12513835622E+03  2.15727380141E+03  1.73157310654E+02  0.00000000000E+00  1.
        1    1    1    2  502    0 -1.45077501213E+02 -8.69895756181E+00 -1.20224254565E+03  1.21099557877E+03  1.52587890625E-05  0.00000000000E+00  1.
        5    1    4    4  501    0 -9.03700644448E+01 -2.17255683509E+02 -1.62487735509E+03  1.64183304941E+03  4.74999999990E+00  0.00000000000E+00  1.
       24    2    4    4    0    0 -5.57572238764E+00 -9.64769621016E+01 -5.00261001135E+02  5.15440752000E+02  7.79692674600E+01  0.00000000000E+00  1.
      -11    1    7    7    0    0  1.81933638687E+01 -8.66054590454E+01 -4.53602379138E+02  4.62154327455E+02  5.10998597706E-04  0.00000000000E+00  1.
       12    1    7    7    0    0 -2.37690862564E+01 -9.87150305620E+00 -4.66586219975E+01  5.32864245447E+01  3.50402318399E-06  0.00000000000E+00  1.
</event>
<event>
 9 114   1.0000000E+00   7.4550000E+01   7.8125000E-03   1.3429423E-01
        5   -1    0    0  501    0  0.00000000000E+00  0.00000000000E+00  6.47942267596E+02  6.47942267596E+02  0.00000000000E+00  0.00000000000E+00  1.
        2   -1    0    0  502    0  0.00000000000E+00  0.00000000000E+00 -1.19264951004E+03  1.19264951004E+03  0.00000000000E+00  0.00000000000E+00  1.
       25    1    1    2    0    0 -3.12790928245E+02 -4.96245391522E+01  5.31100694241E+02  6.30867424347E+02  1.25000000000E+02  0.00000000000E+00  1.
        6    2    1    2  501    0  3.59067393486E+02  2.09180341498E+01 -5.40374218890E+02  6.71528440244E+02  1.71986023849E+02  0.00000000000E+00  1.
        1    1    1    2  502    0 -4.62764652404E+01  2.87065050024E+01 -5.35433717800E+02  5.38195913048E+02  1.32144989591E-05  0.00000000000E+00  1.
        5    1    4    4  501    0  8.80688588692E+00 -2.11121083829E+01 -3.21805345862E+00  2.35839082313E+01  4.74999999999E+00  0.00000000000E+00  1.
       24    2    4    4    0    0  3.50260507599E+02  4.20301425327E+01 -5.37156165431E+02  6.47944532013E+02  8.27430627942E+01  0.00000000000E+00  1.
      -11    1    7    7    0    0  2.70852909201E+02  5.90261934322E+01 -3.72256197529E+02  4.64133673130E+02  5.11027074320E-04  0.00000000000E+00  1.
       12    1    7    7    0    0  7.94075983980E+01 -1.69960508995E+01 -1.64899967901E+02  1.83810858883E+02  5.04637014592E-06  0.00000000000E+00  1.
</event>
<event>
 9 114   1.0000000E+00   7.4550000E+01   7.8125000E-03   1.3429423E-01
        5   -1    0    0  501    0  0.00000000000E+00  0.00000000000E+00  1.79721385694E+02  1.79721385694E+02  0.00000000000E+00  0.00000000000E+00  1.
        2   -1    0    0  502    0  0.00000000000E+00  0.00000000000E+00 -1.67834493717E+03  1.67834493717E+03  0.00000000000E+00  0.00000000000E+00  1.
       25    1    1    2    0    0 -1.49465916775E+02 -2.58304040750E+02 -1.92230037431E+01  3.24122757020E+02  1.25000000000E+02  0.00000000000E+00  1.
        6    2    1    2  501    0  9.18619584877E+01  1.58653446907E+02 -6.60169268806E+02  7.06665894662E+02  1.73042444417E+02  0.00000000000E+00  1.
        1    1    1    2  502    0  5.76039582870E+01  9.96505938430E+01 -8.19231278923E+02  8.27277671178E+02  0.00000000000E+00  0.00000000000E+00  1.
        5    1    4    4  501    0 -1.00435863611E+01  1.16190387955E-01  3.71452347286E+00  1.17152597850E+01  4.75000000001E+00  0.00000000000E+00  1.
       24    2    4    4    0    0  1.01905544849E+02  1.58537256519E+02 -6.63883792279E+02  6.94950634877E+02  8.18284393697E+01  0.00000000000E+00  1.
       -3    1    7    7    0  703  9.21192076880E-01  9.80723227388E+00 -1.53785136701E+02  1.54100287703E+02  1.90734863281E-06  0.00000000000E+00  1.
        4    1    7    7  703    0  1.00984352772E+02  1.48730024245E+02 -5.10098655578E+02  5.40850347175E+02  1.07895932188E-05  0.00000000000E+00  1.
</event>
<event>
 9 114   1.0000000E+00   7.4550000E+01   7.8125000E-03   1.3429423E-01
        5   -1    0    0  501    0  0.00000000000E+00  0.00000000000E+00  2.69103202168E+02  2.69103202168E+02  0.00000000000E+00  0.00000000000E+00  1.
        2   -1    0    0  502    0  0.00000000000E+00  0.00000000000E+00 -1.13795353224E+03  1.13795353224E+03  0.00000000000E+00  0.00000000000E+00  1.
       25    1    1    2    0    0 -2.89830149320E+02 -2.99251471941E+02 -5.48217400854E+01  4.38387251297E+02  1.25000000000E+02  0.00000000000E+00  1.
        6    2    1    2  501    0  3.03352410600E+02  2.76016040141E+02 -5.71804405806E+02  7.24957989243E+02  1.74345255847E+02  0.00000000000E+00  1.
        1    1    1    2  502    0 -1.35222612803E+01  2.32354318003E+01 -2.42224184179E+02  2.43711493865E+02  2.69739830470E-06  0.00000000000E+00  1.
        5    1    4    4  501    0  1.49536008997E+02  1.84393296978E+02 -2.28234588392E+02  3.29356183782E+02  4.74999999999E+00  0.00000000000E+00  1.
       24    2    4    4    0    0  1.53816401604E+02  9.16227431628E+01 -3.43569817414E+02  3.95601805461E+02  8.00397187592E+01  0.00000000000E+00  1.
      -15    1    7    7    0    0  3.96813890095E+01  1.82374680167E+00 -2.92773389697E+01  4.93787229635E+01  1.77680000000E+00  0.00000000000E+00  1.
       16    1    7    7    0    0  1.14135012594E+02  8.97989963612E+01 -3.14292478444E+02  3.46223082498E+02  6.60724947956E-06  0.00000000000E+00  1.
</event>
<event>
 9 114   1.0000000E+00   7.4550000E+01   7.8125000E-03   1.3429423E-01
        5   -1    0    0  501    0  0.00000000000E+00  0.00000000000E+00  4.12098392933E+02  4.12098392933E+02  0.00000000000E+00  0.00000000000E+00  1.
        2   -1    0    0  502    0  0.00000000000E+00  0.00000000000E+00 -5.24083471173E+02  5.24083471173E+02  0.00000000000E+00  0.00000000000E+00  1.
       25    1    1    2    0    0 -1.19403406859E+01  6.33984525820E+01  3.58036162071E+02  3.84677564820E+02  1.25000000000E+02  0.00000000000E+00  1.
        6    2    1    2  501    0 -6.75633104662E+00 -1.75014289573E+01 -1.61301545831E+02  2.38832023458E+02  1.75130233589E+02  0.00000000000E+00  1.
        1    1    1    2  502    0  1.86966717325E+01 -4.58970236247E+01 -3.08719694479E+02  3.12672275827E+02  0.00000000000E+00  0.00000000000E+00  1.
        5    1    4    4  501    0  4.79908409737E-01  3.82051459542E+01  1.13931256431E+01  4.01525752770E+01  4.75000000000E+00  0.00000000000E+00  1.
       24    2    4    4    0    0 -7.23623945636E+00 -5.57065749114E+01 -1.72694671474E+02  1.98679448181E+02  8.05883857891E+01  0.00000000000E+00  1.
       -1    1    7    7    0  703 -2.94712654207E+01 -1.21747516622E+01 -1.29756662856E+02  1.33617257939E+02  1.90734863281E-06  0.00000000000E+00  1.
        4    1    7    7  703    0  2.22350259643E+01 -4.35318232492E+01 -4.29380086184E+01  6.50621902425E+01  1.50789149292E-06  0.00000000000E+00  1.
</event>
<event>
 9 114   1.0000000E+00   7.4550000E+01   7.8125000E-03   1.3429423E-01
        5   -1    0    0  501    0  0.00000000000E+00  0.00000000000E+00  1.31272005079E+03  1.31272005079E+03  0.00000000000E+00  0.00000000000E+00  1.
        2   -1    0    0  502    0  0.00000000000E+00  0.00000000000E+00 -2.94898487315E+03  2.94898487315E+03  0.00000000000E+00  0.00000000000E+00  1.
       25    1    1    2    0    0  3.16591216658E+02 -1.11534865976E+03  8.56658619194E+02  1.44696980657E+03  1.25000000000E+02  0.00000000000E+00  1.
        6    2    1    2  501    0 -2.27960360038E+02  9.73075659920E+02 -1.51955820031E+03  1.82704238778E+03  1.73737148966E+02  0.00000000000E+00  1.
        1    1    1    2  502    0 -8.86308566207E+01  1.42272999840E+02 -9.73365241243E+02  9.87692729592E+02  3.05175781250E-05  0.00000000000E+00  1.
        5    1    4    4  501    0 -1.46881150873E+01  1.72514280521E+02 -3.56948515466E+02  3.96751462382E+02  4.74999999997E+00  0.00000000000E+00  1.
       24    2    4    4    0    0 -2.13272244950E+02  8.00561379399E+02 -1.16260968485E+03  1.43029092540E+03  8.76771311531E+01  0.00000000000E+00  1.
       -3    1    7    7    0  703 -1.93424626810E+02  6.11688223582E+02 -8.57950295281E+02  1.07128627280E+03  2.15791864376E-05  0.00000000000E+00  1.
        4    1    7    7  703    0 -1.98476181402E+01  1.88873155817E+02 -3.04659389566E+02  3.59004652595E+02  7.62939453125E-06  0.00000000000E+00  1.
</event>
<event>
 9 114   1.0000000E+00   7.4550000E+01   7.8125000E-03   1.3429423E-01
        5   -1    0    0  501    0  0.00000000000E+00  0.00000000000E+00  1.91501052055E+03  1.91501052055E+03  0.00000000000E+00  0.00000000000E+00  1.
        2   -1    0    0  502    0  0.00000000000E+00  0.00000000000E+00 -2.44338532485E+03  2.44338532485E+03  0.00000000000E+00  0.00000000000E+00  1.
       25    1    1    2    0    0  3.41172173363E+02 -7.02248119013E+02  1.75596549254E+03  1.92577015334E+03  1.25000000000E+02  0.00000000000E+00  1.
        6    2    1    2  501    0 -3.00532614280E+02  7.05295486646E+02 -2.06536608201E+03  2.20989139526E+03  1.73555035635E+02  0.00000000000E+00  1.
        1    1    1    2  502    0 -4.06395590822E+01 -3.04736763212E+00 -2.18974214819E+02  2.22734296792E+02  1.04469787122E-05  0.00000000000E+00  1.
        5    1    4    4  501    0 -1.39104046251E+02  3.82769584055E+02 -1.24875956005E+03  1.31350123391E+03  4.74999999993E+00  0.00000000000E+00  1.
       24    2    4    4    0    0 -1.61428568030E+02  3.22525902591E+02 -8.16606521956E+02  8.96390161348E+02  8.11601456482E+01  0.00000000000E+00  1.
       -1    1    7    7    0  703 -9.97263531934E+01  2.17947014292E+02 -6.26854775421E+02  6.71113370473E+02  7.62939453125E-06  0.00000000000E+00  1.
        2    1    7    7  703    0 -6.17022148366E+01  1.04578888299E+02 -1.89751746536E+02  2.25276790875E+02  2.69739830470E-06  0.00000000000E+00  1.
</event>
<event>
 9 114   1.0000000E+00   7.4550000E+01   7.8125000E-03   1.3429423E-01
        5   -1    0    0  501    0  0.00000000000E+00  0.00000000000E+00  1.01888946952E+03  1.01888946952E+03  0.00000000000E+00  0.00000000000E+00  1.
        2   -1    0    0  502    0  0.00000000000E+00  0.00000000000E+00 -2.26140902944E+03  2.26140902944E+03  0.00000000000E+00  0.00000000000E+00  1.
       25    1    1    2    0    0 -7.07103956432E+01 -7.51101268998E+01  9.89004583856E+02  1.00219586813E+03  1.25000000000E+02  0.00000000000E+00  1.
        6    2    1    2  501    0 -4.76191463450E+00  6.23236175465E+01 -3.58422264922E+02  4.03437270553E+02  1.74322121788E+02  0.00000000000E+00  1.
        1    1    1    2  502    0  7.54723102777E+01  1.27865093533E+01 -1.87310187885E+03  1.87466536027E+03  3.05175781250E-05  0.00000000000E+00  1.
        5    1    4    4  501    0 -1.80880574494E+01 -2.36992623750E+01 -2.13876286853E+02  2.15996438483E+02  4.75000000000E+00  0.00000000000E+00  1.
       24    2    4    4    0    0  1.33261428149E+01  8.60228799215E+01 -1.44545978069E+02  1.87440832070E+02  8.16272246184E+01  0.00000000000E+00  1.
       -1    1    7    7    0  703  1.23410599266E+01 -1.95047802546E+00 -7.29473136607E+01  7.40095716442E+01  1.34869915235E-06  0.00000000000E+00  1.
        4    1    7    7  703    0  9.85082888308E-01  8.79733579469E+01 -7.15986644079E+01  1.13431260426E+02  9.53674316406E-07  0.00000000000E+00  1.
</event>
<event>
 9 114   1.0000000E+00   7.4550000E+01   7.8125000E-03   1.3429423E-01
        5   -1    0    0  501    0  0.00000000000E+00  0.00000000000E+00  1.54939694220E+03  1.54939694220E+03  0.00000000000E+00  0.00000000000E+00  1.
        2   -1    0    0  502    0  0.00000000000E+00  0.00000000000E+00 -2.48283769540E+03  2.48283769540E+03  0.00000000000E+00  0.00000000000E+00  1.
       25    1    1    2    0    0  1.09558246834E+03 -6.47522013640E+01  1.06508345475E+03  1.53444503261E+03  1.25000000000E+02  0.00000000000E+00  1.
        6    2    1    2  501    0 -1.23569142498E+03  1.57476590791E+01 -1.37501261995E+03  1.85685383187E+03  1.73393083465E+02  0.00000000000E+00  1.
        1    1    1    2  502    0  1.40108956634E+02  4.90045422849E+01 -6.23511588001E+02  6.40935773121E+02  2.28881835938E-05  0.00000000000E+00  1.
        5    1    4    4  501    0 -6.05459841424E+02 -3.05985110416E+01 -5.90928310506E+02  8.46603046955E+02  4.74999999998E+00  0.00000000000E+00  1.
       24    2    4    4    0    0 -6.30231583552E+02  4.63461701206E+01 -7.84084309442E+02  1.01025078492E+03  8.04899231009E+01  0.00000000000E+00  1.
       -1    1    7    7    0  703 -3.39734855223E+02  6.38470259249E+01 -4.09388572216E+02  5.35812670282E+02  7.62939453125E-06  0.00000000000E+00  1.
        2    1    7    7  703    0 -2.90496728329E+02 -1.75008558043E+01 -3.74695737226E+02  4.74438114635E+02  7.62939453125E-06  0.00000000000E+00  1.
</event>
<event>
 9 114   1.0000000E+00   7.4550000E+01   7.8125000E-03   1.3429423E-01
        5   -1    0    0  501    0  0.00000000000E+00  0.00000000000E+00  1.06088596833E+03  1.06088596833E+03  0.00000000000E+00  0.00000000000E+00  1.
        2   -1    0    0  502    0  0.00000000000E+00  0.00000000000E+00 -5.75159031918E+03  5.75159031918E+03  0.00000000000E+00  0.00000000000E+00  1.
       25    1    1    2    0    0  5.04231935976E+02 -1.48156786553E+03  1.11815287897E+02  1.57398247895E+03  1.25000000000E+02  0.00000000000E+00  1.
        6    2    1    2  501    0 -4.61731228983E+02  1.46490881829E+03 -2.52549376350E+03  2.96101040128E+03  1.74098458537E+02  0.00000000000E+00  1.
        1    1    1    2  502    0 -4.25007069935E+01  1.66590472345E+01 -2.27702587524E+03  2.27748340729E+03  0.00000000000E+00  0.00000000000E+00  1.
        5    1    4    4  501    0 -1.18162037599E+01  1.56164398364E+02 -3.15446703943E+02  3.52216023935E+02  4.75000000001E+00  0.00000000000E+00  1.
       24    2    4    4    0    0 -4.49915025223E+02  1.30874441993E+03 -2.21004705955E+03  2.60879437734E+03  7.91492967948E+01  0.00000000000E+00  1.
      -11    1    7    7    0    0 -3.07142648394E+02  9.08505886689E+02 -1.59820160312E+03  1.86385834141E+03  5.11567828804E-04  0.00000000000E+00  1.
       12    1    7    7    0    0 -1.42772376829E+02  4.00238533240E+02 -6.11845456432E+02  7.44936035933E+02  1.52587890625E-05  0.00000000000E+00  1.
</event>
<event>
 9 114   1.0000000E+00   7.4550000E+01   7.8125000E-03   1.3429423E-01
        5   -1    0    0  501    0  0.00000000000E+00  0.00000000000E+00  5.21420297740E+02  5.21420297740E+02  0.00000000000E+00  0.00000000000E+00  1.
        2   -1    0    0  502    0  0.00000000000E+00  0.00000000000E+00 -2.64275247840E+03  2.64275247840E+03  0.00000000000E+00  0.00000000000E+00  1.
       25    1    1    2    0    0  1.11552947289E+02 -1.72397523773E+02  4.75660808553E+02  5.32957006752E+02  1.25000000000E+02  0.00000000000E+00  1.
        6    2    1    2  501    0 -1.24577301399E+02  1.87540950528E+02 -1.16872256904E+03  1.20280569160E+03  1.73602926877E+02  0.00000000000E+00  1.
        1    1    1    2  502    0  1.30243541094E+01 -1.51434267553E+01 -1.42827042017E+03  1.42841007778E+03  1.52587890625E-05  0.00000000000E+00  1.
        5    1    4    4  501    0 -7.79036862987E+01  1.24532724978E+01 -2.16126636844E+02  2.30124648806E+02  4.75000000002E+00  0.00000000000E+00  1.
       24    2    4    4    0    0 -4.66736151000E+01  1.75087678030E+02 -9.52595932197E+02  9.72681042798E+02  7.63890020533E+01  0.00000000000E+00  1.
      -13    1    7    7    0    0 -1.22209360902E+01  2.36184433940E+01 -4.82696181209E+01  5.51103379126E+01  1.05659998760E-01  0.00000000000E+00  1.
       14    1    7    7    0    0 -3.44526790098E+01  1.51469234636E+02 -9.04326314076E+02  9.17570704885E+02  1.86881236479E-05  0.00000000000E+00  1.
</event>
<event>
 9 114   1.0000000E+00   7.4550000E+01   7.8125000E-03   1.3429423E-01
        5   -1    0    0  501    0  0.00000000000E+00  0.00000000000E+00  5.54120973122E+02  5.54120973122E+02  0.00000000000E+00  0.00000000000E+00  1.
        2   -1    0    0  502    0  0.00000000000E+00  0.00000000000E+00 -2.60286189185E+03  2.60286189185E+03  0.00000000000E+00  0.00000000000E+00  1.
       25    1    1    2    0    0 -3.86975186723E+00 -3.87367034924E+02  4.39478387723E+02  5.99027919216E+02  1.25000000000E+02  0.00000000000E+00  1.
        6    2    1    2  501    0 -3.24488039538E+01  3.56938234461E+02 -1.11512042022E+03  1.18403882722E+03  1.73195163567E+02  0.00000000000E+00  1.
        1    1    1    2  502    0  3.63185558210E+01  3.04288004623E+01 -1.37309888623E+03  1.37391611854E+03  0.00000000000E+00  0.00000000000E+00  1.
        5    1    4    4  501    0 -7.10217316835E+01  2.11673153882E+02 -7.17788175072E+02  7.51726038673E+02  4.75000000004E+00  0.00000000000E+00  1.
       24    2    4    4    0    0  3.85729277298E+01  1.45265080579E+02 -3.97332245144E+02  4.32312788547E+02  8.01973797624E+01  0.00000000000E+00  1.
       -3    1    7    7    0  703  4.06120170142E+01  1.54813460435E+02 -3.81479921673E+02  4.13694904607E+02  7.62939453125E-06  0.00000000000E+00  1.
        4    1    7    7  703    0 -2.03908928444E+00 -9.54837985601E+00 -1.58523234708E+01  1.86178839401E+01  6.62014168592E-06  0.00000000000E+00  1.
</event>
<event>
 9 114   1.0000000E+00   7.4550000E+01   7.8125000E-03   1.3429423E-01
        5   -1    0    0  501    0  0.00000000000E+00  0.00000000000E+00  9.17438104074E+02  9.17438104074E+02  0.00000000000E+00  0.00000000000E+00  1.
        2   -1    0    0  502    0  0.00000000000E+00  0.00000000000E+00 -2.77922431565E+03  2.77922431565E+03  0.00000000000E+00  0.00000000000E+00  1.
       25    1    1    2    0    0  4.71191846008E+02  1.52280696647E+02  7.97848966175E+02  9.47311532255E+02  1.25000000000E+02  0.00000000000E+00  1.
        6    2    1    2  501    0 -5.28259723581E+02 -1.48693354445E+02 -1.85955514330E+03  1.94723015266E+03  1.80532233294E+02  0.00000000000E+00  1.
        1    1    1    2  502    0  5.70678775730E+01 -3.58734220211E+00 -8.00080034449E+02  8.02120734802E+02  2.85465804045E-05  0.00000000000E+00  1.
        5    1    4    4  501    0 -2.27332006445E+02  5.91229130833E+00 -6.51362069193E+02  6.89934709974E+02  4.75000000002E+00  0.00000000000E+00  1.
       24    2    4    4    0    0 -3.00927717137E+02 -1.54605645753E+02 -1.20819307411E+03  1.25729544269E+03  8.12461029956E+01  0.00000000000E+00  1.
      -13    1    7    7    0    0 -2.39667711695E+02 -8.37347481892E+01 -8.55611929042E+02  8.92481879013E+02  1.05659999677E-01  0.00000000000E+00  1.
       14    1    7    7    0    0 -6.12600054412E+01 -7.08708975640E+01 -3.52581145063E+02  3.64813563677E+02  9.34406182397E-06  0.00000000000E+00  1.
</event>
<event>
 9 114   1.0000000E+00   7.4550000E+01   7.8125000E-03   1.3429423E-01
        5   -1    0    0  501    0  0.00000000000E+00  0.00000000000E+00  1.39642944960E+03  1.39642944960E+03  0.00000000000E+00  0.00000000000E+00  1.
        2   -1    0    0  502    0  0.00000000000E+00  0.00000000000E+00 -2.59247167975E+03  2.59247167975E+03  0.00000000000E+00  0.00000000000E+00  1.
       25    1    1    2    0    0  3.52486051615E+02 -7.31307752775E+02  1.18419463539E+03  1.44117985704E+03  1.25000000000E+02  0.00000000000E+00  1.
        6    2    1    2  501    0 -1.86959825348E+02  4.31932589394E+02 -1.85283411479E+03  1.91908935970E+03  1.68493250659E+02  0.00000000000E+00  1.
        1    1    1    2  502    0 -1.65526226266E+02  2.99375163382E+02 -5.27402750760E+02  6.28631912602E+02  2.01854805837E-05  0.00000000000E+00  1.
        5    1    4    4  501    0 -9.43465113584E+01  3.06386696234E+02 -1.09037642779E+03  1.13653745588E+03  4.75000000000E+00  0.00000000000E+00  1.
       24    2    4    4    0    0 -9.26133139899E+01  1.25545893160E+02 -7.62457686998E+02  7.82551903822E+02  8.18948136037E+01  0.00000000000E+00  1.
       -1    1    7    7    0  703  1.30687129366E+01  3.36797040468E+01 -1.63442807264E+02  1.67387768277E+02  5.72204589844E-06  0.00000000000E+00  1.
        2    1    7    7  703    0 -1.05682026927E+02  9.18661891128E+01 -5.99014879735E+02  6.15164135545E+02  1.52587890625E-05  0.00000000000E+00  1.
</event>
<event>
 9 114   1.0000000E+00   7.4550000E+01   7.8125000E-03   1.3429423E-01
        5   -1    0    0  501    0  0.00000000000E+00  0.00000000000E+00  9.93052113945E+02  9.93052113945E+02  0.00000000000E+00  0.00000000000E+00  1.
        2   -1    0    0  502    0  0.00000000000E+00  0.00000000000E+00 -4.14137012458E+03  4.14137012458E+03  0.00000000000E+00  0.00000000000E+00  1.
       25    1    1    2    0    0  5.71223980208E+02 -2.19471110974E+02  6.86058586840E+02  9.27774643270E+02  1.25000000000E+02  0.00000000000E+00  1.
        6    2    1    2  501    0 -3.04305335371E+02  9.00315465510E+02 -1.76197921202E+03  2.00900669617E+03  1.68426503598E+02  0.00000000000E+00  1.
        1    1    1    2  502    0 -2.66918644837E+02 -6.80844354536E+02 -2.07239738545E+03  2.19764089908E+03  4.31583728752E-05  0.00000000000E+00  1.
        5    1    4    4  501    0 -1.00665008087E+02  1.33319157021E+02 -3.27269015801E+02  3.67471104558E+02  4.75000000004E+00  0.00000000000E+00  1.
       24    2    4    4    0    0 -2.03640327284E+02  7.66996308489E+02 -1.43471019622E+03  1.64153559162E+03  8.05793477126E+01  0.00000000000E+00  1.
       -1    1    7    7    0  703 -1.24987309846E+02  5.45978622130E+02 -1.07342093884E+03  1.21076298068E+03  2.15791864376E-05  0.00000000000E+00  1.
        2    1    7    7  703    0 -7.86530174378E+01  2.21017686359E+02 -3.61289257378E+02  4.30772610936E+02  7.62939453125E-06  0.00000000000E+00  1.
</event>
<event>
 9 114   1.0000000E+00   7.4550000E+01   7.8125000E-03   1.3429423E-01
        5   -1    0    0  501    0  0.00000000000E+00  0.00000000000E+00  2.87976919985E+02  2.87976919985E+02  0.00000000000E+00  0.00000000000E+00  1.
        2   -1    0    0  502    0  0.00000000000E+00  0.00000000000E+00 -1.06995855294E+03  1.06995855294E+03  0.00000000000E+00  0.00000000000E+00  1.
       25    1    1    2    0    0 -1.31600924493E+02  2.94379032642E+02  1.20554349946E+02  3.66246050460E+02  1.25000000000E+02  0.00000000000E+00  1.
        6    2    1    2  501    0  1.05209814944E+02 -3.02433114378E+02 -7.18155721521E+02  8.05255949926E+02  1.73650829844E+02  0.00000000000E+00  1.
        1    1    1    2  502    0  2.63911095493E+01  8.05408173574E+00 -1.84380261381E+02  1.86433472539E+02  2.69739830470E-06  0.00000000000E+00  1.
        5    1    4    4  501    0 -1.94175428470E+01 -1.12749267718E+02 -1.53933224170E+02  1.91852647478E+02  4.75000000000E+00  0.00000000000E+00  1.
       24    2    4    4    0    0  1.24627357791E+02 -1.89683846660E+02 -5.64222497351E+02  6.13403302448E+02  8.00290256291E+01  0.00000000000E+00  1.
       -3    1    7    7    0  703  2.16681169284E+01 -1.05327651320E+02 -2.56232743118E+02  2.77882421303E+02  6.60724947956E-06  0.00000000000E+00  1.
        4    1    7    7  703    0  1.02959240862E+02 -8.43561953399E+01 -3.07989754233E+02  3.35520881144E+02  6.60724947956E-06  0.00000000000E+00  1.
</event>
<event>
 9 114   1.0000000E+00   7.4550000E+01   7.8125000E-03   1.3429423E-01
        5   -1    0    0  501    0  0.00000000000E+00  0.00000000000E+00  3.73319847215E+02  3.73319847215E+02  0.00000000000E+00  0.00000000000E+00  1.
        2   -1    0    0  502    0  0.00000000000E+00  0.00000000000E+00 -3.01570087080E+03  3.01570087080E+03  0.00000000000E+00  0.00000000000E+00  1.
       25    1    1    2    0    0  7.40738017077E+01 -6.81389383630E+02 -9.01937795591E+01  7.02522838130E+02  1.25000000000E+02  0.00000000000E+00  1.
        6    2    1    2  501    0 -6.16383709334E+01  6.56503790216E+02 -1.67002004688E+03  1.80389213754E+03  1.73963707600E+02  0.00000000000E+00  1.
        1    1    1    2  502    0 -1.24354307742E+01  2.48855934147E+01 -8.82167197148E+02  8.82605742346E+02  2.15791864376E-05  0.00000000000E+00  1.
        5    1    4    4  501    0 -6.05631981048E+01  5.33440483858E+02 -1.30042547810E+03  1.40689574502E+03  4.74999999985E+00  0.00000000000E+00  1.
       24    2    4    4    0    0 -1.07517282862E+00  1.23063306358E+02 -3.69594568784E+02  3.96996392518E+02  7.65523156353E+01  0.00000000000E+00  1.
       -3    1    7    7    0  703  3.10315967182E+01  9.67786376716E+01 -2.32075711793E+02  2.53353904073E+02  4.67203091199E-06  0.00000000000E+00  1.
        4    1    7    7  703    0 -3.21067695469E+01  2.62846686860E+01 -1.37518856990E+02  1.43642488445E+02  1.90734863281E-06  0.00000000000E+00  1.
</event>
</LesHouchesEvents>
