<LesHouchesEvents version="1.0">
<!--
Output from the JHUGenerator v7.5.1 described in arXiv:1001.3396 [hep-ph], arXiv:1208.4018 [hep-ph], arXiv:1309.4819 [hep-ph], arXiv:1606.03107 [hep-ph]
   
   Command line: ./JHUGen Seed=765543533 PDFSet=3 Process=110 VegasNc0=100000 VegasNc2=100 DataFile=compare_to_reference/tqH_110 TopDK=1 DecayMode1=11 ghg2=0.383432074687728,0.918260989345657 ghg3=6294.49296087723,2253.12941717723 ghg4=0.335495485382528,0.17285803562226 ghz1=0.154934976270359,0.453918144016304 ghz2=0.469297059144414,0.745302300947002 ghz3=3947.40921062637,3597.4885961919 ghz4=0.177791270766536,0.920170534486048 ghzgs2=0.0240331049939919,0.232175381101053 ghzgs3=0.331962910170583,0.0450183240308457 ghzgs4=0.808286540247172,0.133184346613754 ghgsgs2=0.530394804029869,0.211218112389125 ghgsgs3=0.914978695198138,0.055650585081425 ghgsgs4=0.694524307167701,0.511424456076726 ghz1_prime=0.143354267833606,0.0910761280837012 ghz1_prime2=7416.7007267243,4861.35525489789 ghz1_prime3=4431.44656075298,4436.48625894176 ghz1_prime4=2441.69123517064,6946.16318931911 ghz1_prime5=78314042.889773,69465359.939181 ghz1_prime6=51233058.8130761,29537873.5850789 ghz1_prime7=47832192.9001564,59559649.9633293 g
   
   Input Parameter:
    Collider: P-P, sqrt(s)=13000.00
    Resonance: spin=0, mass= 125.00 width=   0.00407
    DecayMode1:11
    W boson: mass=80.399, width=2.0850
    Top quark mass=173.2000, width=2.0000
    Top quark decay= 1
    Random seed:   765543533
    To reproduce results using this seed, JHUGen should be compiled with the same compiler:
      GNU Fortran (GCC) 6.3.0
    
    WidthScheme:   2
    PDFSet:   3
    Unweighted: T
    
    
    LHE output: compare_to_reference/tqH_110.lhe
    Histogram output: compare_to_reference/tqH_110.dat
    Log file: compare_to_reference/tqH_110.log
    
-->
<init>
2212 2212   6500.0000000000000000    6500.0000000000000000 0 0  263000  263000  3  1
 4.5233875E+09  8.2838959E+07  1.0000000E+00 110
</init>
<event>
 9 110   1.0000000E+00   7.4550000E+01   7.8125000E-03   1.3429423E-01
        2   -1    0    0  502    0  0.00000000000E+00  0.00000000000E+00  1.24812228047E+03  1.24812228047E+03  0.00000000000E+00  0.00000000000E+00  1.
        5   -1    0    0  501    0  0.00000000000E+00  0.00000000000E+00 -3.86482057506E+02  3.86482057506E+02  0.00000000000E+00  0.00000000000E+00  1.
       25    1    1    2    0    0 -4.41501512476E+02  9.62012213820E+01 -1.43646537545E+02  4.90344356817E+02  1.25000000000E+02  0.00000000000E+00  1.
        6    2    1    2  501    0  3.32678188604E+02  1.21335178161E+01  5.56294776353E+02  6.69736290105E+02  1.68109549573E+02  0.00000000000E+00  1.
        1    1    1    2  502    0  1.08823323872E+02 -1.08334739198E+02  4.48991984154E+02  4.74523691052E+02  9.34406182397E-06  0.00000000000E+00  1.
        5    1    4    4  501    0  1.72793763883E+02  6.44354153459E+01  3.09048983802E+02  3.59921442091E+02  4.75000000000E+00  0.00000000000E+00  1.
       24    2    4    4    0    0  1.59884424721E+02 -5.23018975298E+01  2.47245792552E+02  3.09814848014E+02  8.09706141880E+01  0.00000000000E+00  1.
      -15    1    7    7    0    0  3.67111615829E+01 -3.59962607612E+01  1.26498722004E+02  1.36559598200E+02  1.77680000000E+00  0.00000000000E+00  1.
       16    1    7    7    0    0  1.23173263138E+02 -1.63056367687E+01  1.20747070548E+02  1.73255249815E+02  1.34869915235E-06  0.00000000000E+00  1.
</event>
<event>
 9 110   1.0000000E+00   7.4550000E+01   7.8125000E-03   1.3429423E-01
        5   -1    0    0  501    0  0.00000000000E+00  0.00000000000E+00  8.85126544869E+01  8.85126544869E+01  0.00000000000E+00  0.00000000000E+00  1.
        2   -1    0    0  502    0  0.00000000000E+00  0.00000000000E+00 -2.97474131200E+03  2.97474131200E+03  0.00000000000E+00  0.00000000000E+00  1.
       25    1    1    2    0    0  2.67242304563E+02  1.43457830307E+02 -1.34574020812E+03  1.38514992192E+03  1.25000000000E+02  0.00000000000E+00  1.
        6    2    1    2  501    0  3.70802643796E+01 -1.12202675553E+02 -1.57534335369E+02  2.61717376972E+02  1.72379036373E+02  0.00000000000E+00  1.
        1    1    1    2  502    0 -3.04322568942E+02 -3.12551547539E+01 -1.38295411402E+03  1.41638666760E+03  2.64289979182E-05  0.00000000000E+00  1.
        5    1    4    4  501    0  5.21805707685E+01  1.63101760666E+01 -5.30398945964E+01  7.63192421860E+01  4.75000000000E+00  0.00000000000E+00  1.
       24    2    4    4    0    0 -1.51003063889E+01 -1.28512851620E+02 -1.04494440773E+02  1.85398134786E+02  8.19134173695E+01  0.00000000000E+00  1.
       -1    1    7    7    0  703 -2.70901528305E+01 -2.66658458973E+01  1.33141070547E+00  3.80357249473E+01  4.60732723288E-07  0.00000000000E+00  1.
        4    1    7    7  703    0  1.19898464415E+01 -1.01847005722E+02 -1.05825851478E+02  1.47362409838E+02  1.34869915235E-06  0.00000000000E+00  1.
</event>
<event>
 9 110   1.0000000E+00   7.4550000E+01   7.8125000E-03   1.3429423E-01
        5   -1    0    0  501    0  0.00000000000E+00  0.00000000000E+00  1.83258304907E+02  1.83258304907E+02  0.00000000000E+00  0.00000000000E+00  1.
        2   -1    0    0  502    0  0.00000000000E+00  0.00000000000E+00 -2.51309545694E+03  2.51309545694E+03  0.00000000000E+00  0.00000000000E+00  1.
       25    1    1    2    0    0 -2.21417599741E+01  2.18102657433E+02 -2.12790310699E+02  3.30096566237E+02  1.25000000000E+02  0.00000000000E+00  1.
        6    2    1    2  501    0  4.42021322274E+01 -2.25080549485E+02 -4.56185278591E+01  2.94699663495E+02  1.79309116695E+02  0.00000000000E+00  1.
        1    1    1    2  502    0 -2.20603722534E+01  6.97789205223E+00 -2.07142831348E+03  2.07155753212E+03  3.05175781250E-05  0.00000000000E+00  1.
        5    1    4    4  501    0  4.16266714099E+01 -2.01619181910E+02 -2.20375655424E+01  2.07102127178E+02  4.75000000000E+00  0.00000000000E+00  1.
       24    2    4    4    0    0  2.57546081748E+00 -2.34613675750E+01 -2.35809623166E+01  8.75975363165E+01  8.09950481081E+01  0.00000000000E+00  1.
      -15    1    7    7    0    0 -1.17424808197E+01  1.23426648630E+01  2.20077417041E+01  2.78877203241E+01  1.77680000000E+00  0.00000000000E+00  1.
       16    1    7    7    0    0  1.43179416372E+01 -3.58040324381E+01 -4.55887040207E+01  5.97098159924E+01  1.16800772800E-06  0.00000000000E+00  1.
</event>
<event>
 9 110   1.0000000E+00   7.4550000E+01   7.8125000E-03   1.3429423E-01
        2   -1    0    0  502    0  0.00000000000E+00  0.00000000000E+00  1.40309428202E+03  1.40309428202E+03  0.00000000000E+00  0.00000000000E+00  1.
        5   -1    0    0  501    0  0.00000000000E+00  0.00000000000E+00 -2.65969013502E+02  2.65969013502E+02  0.00000000000E+00  0.00000000000E+00  1.
       25    1    1    2    0    0  3.93299209119E+02 -2.67627293705E+02  4.84957812987E+02  6.90737082113E+02  1.25000000000E+02  0.00000000000E+00  1.
        6    2    1    2  501    0 -1.56707902737E+02  3.63846804387E+02  2.45264233724E+02  4.97905697185E+02  1.75538243986E+02  0.00000000000E+00  1.
        1    1    1    2  502    0 -2.36591306382E+02 -9.62195106820E+01  4.06903221807E+02  4.80420516224E+02  0.00000000000E+00  0.00000000000E+00  1.
        5    1    4    4  501    0 -1.28547050333E+02  1.28152393853E+02  1.17628853714E+02  2.16348075854E+02  4.75000000000E+00  0.00000000000E+00  1.
       24    2    4    4    0    0 -2.81608524042E+01  2.35694410534E+02  1.27635380010E+02  2.81557621331E+02  8.14801517793E+01  0.00000000000E+00  1.
       -1    1    7    7    0  703 -6.38017349746E+00  2.27654388005E+01  4.74073352102E+01  5.29757232076E+01  3.37174788087E-06  0.00000000000E+00  1.
        2    1    7    7  703    0 -2.17806789068E+01  2.12928971734E+02  8.02280447999E+01  2.28581898123E+02  5.56082906231E-06  0.00000000000E+00  1.
</event>
<event>
 9 110   1.0000000E+00   7.4550000E+01   7.8125000E-03   1.3429423E-01
        5   -1    0    0  501    0  0.00000000000E+00  0.00000000000E+00  1.16105808039E+03  1.16105808039E+03  0.00000000000E+00  0.00000000000E+00  1.
        2   -1    0    0  502    0  0.00000000000E+00  0.00000000000E+00 -2.43392471401E+02  2.43392471401E+02  0.00000000000E+00  0.00000000000E+00  1.
       25    1    1    2    0    0  1.42859571581E+01  8.46288288389E+01  1.19296246282E+02  1.92931909283E+02  1.25000000000E+02  0.00000000000E+00  1.
        6    2    1    2  501    0  4.59030817049E+01 -6.40814579537E+01  9.90751152401E+02  1.00889665986E+03  1.73410201908E+02  0.00000000000E+00  1.
        1    1    1    2  502    0 -6.01890388630E+01 -2.05473708852E+01 -1.92381789691E+02  2.02621982653E+02  1.80946979151E-05  0.00000000000E+00  1.
        5    1    4    4  501    0  5.28648044449E+01 -5.18450157983E+01  1.92466193713E+02  2.06272614359E+02  4.75000000000E+00  0.00000000000E+00  1.
       24    2    4    4    0    0 -6.96172274002E+00 -1.22364421554E+01  7.98284958687E+02  8.02624045499E+02  8.21479582587E+01  0.00000000000E+00  1.
       -3    1    7    7    0  703  3.34658819526E+01  1.15346773807E+01  2.81889130567E+02  2.84102967195E+02  3.81469726562E-06  0.00000000000E+00  1.
        4    1    7    7  703    0 -4.04276046926E+01 -2.37711195361E+01  5.16395828120E+02  5.18521078303E+02  7.62939453125E-06  0.00000000000E+00  1.
</event>
<event>
 9 110   1.0000000E+00   7.4550000E+01   7.8125000E-03   1.3429423E-01
        2   -1    0    0  502    0  0.00000000000E+00  0.00000000000E+00  2.45960052408E+03  2.45960052408E+03  0.00000000000E+00  0.00000000000E+00  1.
        5   -1    0    0  501    0  0.00000000000E+00  0.00000000000E+00 -4.80097504937E+02  4.80097504937E+02  0.00000000000E+00  0.00000000000E+00  1.
       25    1    1    2    0    0  8.01501440170E+01  2.37983415830E+02 -1.95032454362E+02  3.41647201145E+02  1.25000000000E+02  0.00000000000E+00  1.
        6    2    1    2  501    0 -3.52788598301E+01 -6.59081150303E+00 -1.68680582626E+02  2.43009967252E+02  1.71209428718E+02  0.00000000000E+00  1.
        1    1    1    2  502    0 -4.48712841869E+01 -2.31392604327E+02  2.34321605613E+03  2.35504086062E+03  6.10351562500E-05  0.00000000000E+00  1.
        5    1    4    4  501    0 -3.25772179942E+01  5.59979890702E+01 -1.03560023857E+02  1.22246844350E+02  4.75000000000E+00  0.00000000000E+00  1.
       24    2    4    4    0    0 -2.70164183587E+00 -6.25888005732E+01 -6.51205587683E+01  1.20763122903E+02  8.01148416533E+01  0.00000000000E+00  1.
      -13    1    7    7    0    0 -7.34528534305E+00 -5.70346091453E+01 -8.32849488027E+01  1.01209158272E+02  1.05659999982E-01  0.00000000000E+00  1.
       14    1    7    7    0    0  4.64364350718E+00 -5.55419142796E+00  1.81643900344E+01  1.95539646303E+01  1.14341533740E-06  0.00000000000E+00  1.
</event>
<event>
 9 110   1.0000000E+00   7.4550000E+01   7.8125000E-03   1.3429423E-01
        2   -1    0    0  502    0  0.00000000000E+00  0.00000000000E+00  2.20130157120E+03  2.20130157120E+03  0.00000000000E+00  0.00000000000E+00  1.
        5   -1    0    0  501    0  0.00000000000E+00  0.00000000000E+00 -3.41311915267E+01  3.41311915267E+01  0.00000000000E+00  0.00000000000E+00  1.
       25    1    1    2    0    0  1.45392949991E+02  4.27669268049E+01  1.54801287297E+03  1.56042845873E+03  1.25000000000E+02  0.00000000000E+00  1.
        6    2    1    2  501    0 -1.35163329173E+02 -6.79745671727E+01  4.70870207215E+02  5.24242261477E+02  1.73843404650E+02  0.00000000000E+00  1.
        1    1    1    2  502    0 -1.02296208177E+01  2.52076403678E+01  1.48287299493E+02  1.50762042524E+02  2.69739830470E-06  0.00000000000E+00  1.
        5    1    4    4  501    0 -9.46365990430E+01 -8.39529240451E+01  1.85762187611E+02  2.24798425662E+02  4.75000000000E+00  0.00000000000E+00  1.
       24    2    4    4    0    0 -4.05267301305E+01  1.59783568725E+01  2.85108019604E+02  2.99443835815E+02  8.05127581294E+01  0.00000000000E+00  1.
      -11    1    7    7    0    0 -2.79982694235E+00  4.36591834656E+01  1.59934923571E+02  1.65810563926E+02  5.10998597706E-04  0.00000000000E+00  1.
       12    1    7    7    0    0 -3.77269031881E+01 -2.76808265931E+01  1.25173096034E+02  1.33633271889E+02  1.90734863281E-06  0.00000000000E+00  1.
</event>
<event>
 9 110   1.0000000E+00   7.4550000E+01   7.8125000E-03   1.3429423E-01
        5   -1    0    0  501    0  0.00000000000E+00  0.00000000000E+00  5.41992841742E+01  5.41992841742E+01  0.00000000000E+00  0.00000000000E+00  1.
        2   -1    0    0  502    0  0.00000000000E+00  0.00000000000E+00 -1.64242890917E+03  1.64242890917E+03  0.00000000000E+00  0.00000000000E+00  1.
       25    1    1    2    0    0  3.40862372318E+01  3.20764915002E+01 -2.93291504772E+02  3.22235441327E+02  1.25000000000E+02  0.00000000000E+00  1.
        6    2    1    2  501    0 -1.38860193326E+02 -1.51116502446E+02 -5.48209758776E+02  6.11011227567E+02  1.75164008842E+02  0.00000000000E+00  1.
        1    1    1    2  502    0  1.04773956094E+02  1.19040010946E+02 -7.46728361448E+02  7.63381524450E+02  1.07895932188E-05  0.00000000000E+00  1.
        5    1    4    4  501    0 -9.46195467354E+01 -1.60054651147E+00 -1.61881592848E+02  1.87573007058E+02  4.75000000000E+00  0.00000000000E+00  1.
       24    2    4    4    0    0 -4.42406465908E+01 -1.49515955935E+02 -3.86328165927E+02  4.23438220509E+02  7.57510323971E+01  0.00000000000E+00  1.
       -1    1    7    7    0  703 -1.41412810444E+01 -7.36022336263E+01 -2.77104508492E+02  2.87061270900E+02  3.81469726562E-06  0.00000000000E+00  1.
        2    1    7    7  703    0 -3.00993655464E+01 -7.59137223085E+01 -1.09223657436E+02  1.36376949609E+02  2.33601545599E-06  0.00000000000E+00  1.
</event>
<event>
 9 110   1.0000000E+00   7.4550000E+01   7.8125000E-03   1.3429423E-01
        5   -1    0    0  501    0  0.00000000000E+00  0.00000000000E+00  1.16441846996E+02  1.16441846996E+02  0.00000000000E+00  0.00000000000E+00  1.
        2   -1    0    0  502    0  0.00000000000E+00  0.00000000000E+00 -2.41570690766E+03  2.41570690766E+03  0.00000000000E+00  0.00000000000E+00  1.
       25    1    1    2    0    0 -2.37117198264E+02 -1.74586073451E+02 -6.28568531264E+02  7.05285942899E+02  1.25000000000E+02  0.00000000000E+00  1.
        6    2    1    2  501    0  1.55714452028E+01  2.75540775549E+02 -3.28020612789E+02  4.62292187121E+02  1.73064597659E+02  0.00000000000E+00  1.
        1    1    1    2  502    0  2.21545753061E+02 -1.00954702097E+02 -1.34267591661E+03  1.36457062463E+03  2.64289979182E-05  0.00000000000E+00  1.
        5    1    4    4  501    0  2.83092355725E+01  1.90037539254E+02 -1.28833431668E+02  2.31379114787E+02  4.75000000000E+00  0.00000000000E+00  1.
       24    2    4    4    0    0 -1.27377903697E+01  8.55032362945E+01 -1.99187181122E+02  2.30913072334E+02  7.85637265603E+01  0.00000000000E+00  1.
       -1    1    7    7    0  703  1.01367049627E+01 -1.16215578248E+01 -4.18725019094E+01  4.46219655543E+01  2.47771855483E-06  0.00000000000E+00  1.
        2    1    7    7  703    0 -2.28744953323E+01  9.71247941193E+01 -1.57314679212E+02  1.86291106780E+02  2.69739830470E-06  0.00000000000E+00  1.
</event>
<event>
 9 110   1.0000000E+00   7.4550000E+01   7.8125000E-03   1.3429423E-01
        5   -1    0    0  501    0  0.00000000000E+00  0.00000000000E+00  1.60663463466E+02  1.60663463466E+02  0.00000000000E+00  0.00000000000E+00  1.
        2   -1    0    0  502    0  0.00000000000E+00  0.00000000000E+00 -1.37302334672E+03  1.37302334672E+03  0.00000000000E+00  0.00000000000E+00  1.
       25    1    1    2    0    0  4.30780072868E+01  3.94685519329E+02 -7.80721391638E+02  8.84750397141E+02  1.25000000000E+02  0.00000000000E+00  1.
        6    2    1    2  501    0  4.14567517824E+01 -1.92176660875E+02 -1.96107086350E+02  3.27018712211E+02  1.72721502906E+02  0.00000000000E+00  1.
        1    1    1    2  502    0 -8.45347590692E+01 -2.02508858453E+02 -2.35531405263E+02  3.21917700831E+02  3.81469726562E-06  0.00000000000E+00  1.
        5    1    4    4  501    0 -4.64595219830E+01 -8.10204494785E+01 -1.05148098823E+02  1.40717751555E+02  4.75000000000E+00  0.00000000000E+00  1.
       24    2    4    4    0    0  8.79162737654E+01 -1.11156211397E+02 -9.09589875265E+01  1.86300960656E+02  7.96839758328E+01  0.00000000000E+00  1.
      -15    1    7    7    0    0  5.71440434299E+01 -2.65370991830E+01 -6.93302411743E+01  9.36989791411E+01  1.77680000000E+00  0.00000000000E+00  1.
       16    1    7    7    0    0  3.07722303355E+01 -8.46191122137E+01 -2.16287463522E+01  9.26019815146E+01  1.90734863281E-06  0.00000000000E+00  1.
</event>
<event>
 9 110   1.0000000E+00   7.4550000E+01   7.8125000E-03   1.3429423E-01
        5   -1    0    0  501    0  0.00000000000E+00  0.00000000000E+00  1.96412731296E+02  1.96412731296E+02  0.00000000000E+00  0.00000000000E+00  1.
        2   -1    0    0  502    0  0.00000000000E+00  0.00000000000E+00 -2.67300951961E+03  2.67300951961E+03  0.00000000000E+00  0.00000000000E+00  1.
       25    1    1    2    0    0  6.15539344012E+02  1.27312493222E+02 -6.80582468420E+02  9.34834023385E+02  1.25000000000E+02  0.00000000000E+00  1.
        6    2    1    2  501    0 -4.93382921124E+02 -3.94152982042E+01 -1.05011478416E+03  1.17365838453E+03  1.72489625997E+02  0.00000000000E+00  1.
        1    1    1    2  502    0 -1.22156422888E+02 -8.78971950173E+01 -7.45899535742E+02  7.60929842998E+02  1.07895932188E-05  0.00000000000E+00  1.
        5    1    4    4  501    0 -1.03610440747E+02  5.08542736409E+01 -2.49943295496E+02  2.75346134970E+02  4.75000000000E+00  0.00000000000E+00  1.
       24    2    4    4    0    0 -3.89772480377E+02 -9.02695718451E+01 -8.00171488661E+02  8.98312249557E+02  8.13591075342E+01  0.00000000000E+00  1.
      -11    1    7    7    0    0 -4.20323272845E+01  5.09015924174E+00 -4.68838042146E+01  6.31721248333E+01  5.11281068910E-04  0.00000000000E+00  1.
       12    1    7    7    0    0 -3.47740153092E+02 -9.53597310868E+01 -7.53287684446E+02  8.35140124724E+02  1.86881236479E-05  0.00000000000E+00  1.
</event>
<event>
 9 110   1.0000000E+00   7.4550000E+01   7.8125000E-03   1.3429423E-01
        2   -1    0    0  502    0  0.00000000000E+00  0.00000000000E+00  2.16127508147E+03  2.16127508147E+03  0.00000000000E+00  0.00000000000E+00  1.
        5   -1    0    0  501    0  0.00000000000E+00  0.00000000000E+00 -7.26623247162E+01  7.26623247162E+01  0.00000000000E+00  0.00000000000E+00  1.
       25    1    1    2    0    0 -3.29763396257E+01  2.34396401524E+02  1.12620606156E+03  1.15758118726E+03  1.25000000000E+02  0.00000000000E+00  1.
        6    2    1    2  501    0 -8.52163875730E+00 -2.28388367641E+02  3.09766945277E+02  4.22370881275E+02  1.73803728848E+02  0.00000000000E+00  1.
        1    1    1    2  502    0  4.14979783830E+01 -6.00803388270E+00  6.52639749922E+02  6.53985337648E+02  0.00000000000E+00  0.00000000000E+00  1.
        5    1    4    4  501    0 -3.81818950134E+01  4.15104800142E+00  3.29428228434E+01  5.08220462321E+01  4.75000000000E+00  0.00000000000E+00  1.
       24    2    4    4    0    0  2.96602562561E+01 -2.32539415643E+02  2.76824122434E+02  3.71548835042E+02  8.03904934161E+01  0.00000000000E+00  1.
       -1    1    7    7    0  703  2.55460006227E+01 -4.02724555131E+01  2.25865307755E+01  5.27695005978E+01  4.43484192794E-06  0.00000000000E+00  1.
        2    1    7    7  703    0  4.11425563338E+00 -1.92266960130E+02  2.54237591658E+02  3.18779334445E+02  4.67203091199E-06  0.00000000000E+00  1.
</event>
<event>
 9 110   1.0000000E+00   7.4550000E+01   7.8125000E-03   1.3429423E-01
        2   -1    0    0  502    0  0.00000000000E+00  0.00000000000E+00  1.64898291669E+03  1.64898291669E+03  0.00000000000E+00  0.00000000000E+00  1.
        5   -1    0    0  501    0  0.00000000000E+00  0.00000000000E+00 -3.54652429125E+02  3.54652429125E+02  0.00000000000E+00  0.00000000000E+00  1.
       25    1    1    2    0    0  2.43089250804E+02 -3.80949824068E+02  7.50460031068E+02  8.84890055625E+02  1.25000000000E+02  0.00000000000E+00  1.
        6    2    1    2  501    0 -8.28646990430E+01  2.07794394084E+02 -1.94175464652E+02  3.43912087722E+02  1.74717899622E+02  0.00000000000E+00  1.
        1    1    1    2  502    0 -1.60224551761E+02  1.73155429983E+02  7.38045921154E+02  7.74833202471E+02  1.52587890625E-05  0.00000000000E+00  1.
        5    1    4    4  501    0 -7.52914983707E+01  1.78115728864E+02 -1.54187909819E+02  2.47367129243E+02  4.75000000000E+00  0.00000000000E+00  1.
       24    2    4    4    0    0 -7.57320067231E+00  2.96786652206E+01 -3.99875548334E+01  9.65449584795E+01  8.23635109047E+01  0.00000000000E+00  1.
      -15    1    7    7    0    0 -1.13488466035E+01  3.91560396320E+01 -6.08823783499E+01  7.32926515463E+01  1.77680000000E+00  0.00000000000E+00  1.
       16    1    7    7    0    0  3.77564593120E+00 -9.47737441143E+00  2.08948235165E+01  2.32523069333E+01  1.26159253648E-06  0.00000000000E+00  1.
</event>
<event>
 9 110   1.0000000E+00   7.4550000E+01   7.8125000E-03   1.3429423E-01
        2   -1    0    0  502    0  0.00000000000E+00  0.00000000000E+00  1.31125929026E+03  1.31125929026E+03  0.00000000000E+00  0.00000000000E+00  1.
        5   -1    0    0  501    0  0.00000000000E+00  0.00000000000E+00 -6.30348477100E+02  6.30348477100E+02  0.00000000000E+00  0.00000000000E+00  1.
       25    1    1    2    0    0 -4.20052142465E+02 -5.78958798391E+02  6.86293647861E+02  9.99130153543E+02  1.25000000000E+02  0.00000000000E+00  1.
        6    2    1    2  501    0  5.51626825688E+02  5.66275912291E+02 -2.02127357393E+01  8.09463784347E+02  1.72807696076E+02  0.00000000000E+00  1.
        1    1    1    2  502    0 -1.31574683224E+02  1.26828861006E+01  1.48299010361E+01  1.33013829469E+02  1.01208616623E-05  0.00000000000E+00  1.
        5    1    4    4  501    0  2.30655804147E+02  2.99880368720E+02  4.06064116605E+01  3.80528288959E+02  4.75000000000E+00  0.00000000000E+00  1.
       24    2    4    4    0    0  3.20971021542E+02  2.66395543571E+02 -6.08191473998E+01  4.28935495388E+02  7.93581010935E+01  0.00000000000E+00  1.
       -1    1    7    7    0  703  2.02237661986E+02  2.15151020106E+02 -4.16299145685E+01  2.98199737031E+02  4.52367447877E-06  0.00000000000E+00  1.
        2    1    7    7  703    0  1.18733359556E+02  5.12445234647E+01 -1.91892328313E+01  1.30735758357E+02  2.44306344174E-06  0.00000000000E+00  1.
</event>
<event>
 9 110   1.0000000E+00   7.4550000E+01   7.8125000E-03   1.3429423E-01
        2   -1    0    0  502    0  0.00000000000E+00  0.00000000000E+00  2.86727072054E+03  2.86727072054E+03  0.00000000000E+00  0.00000000000E+00  1.
        5   -1    0    0  501    0  0.00000000000E+00  0.00000000000E+00 -1.51686169240E+02  1.51686169240E+02  0.00000000000E+00  0.00000000000E+00  1.
       25    1    1    2    0    0 -4.11869225301E+02 -6.15237726805E+01  6.87051828099E+02  8.13072350931E+02  1.25000000000E+02  0.00000000000E+00  1.
        6    2    1    2  501    0  3.90424402051E+02  1.10931396617E+02  4.64002950445E+02  6.40427926999E+02  1.73528681161E+02  0.00000000000E+00  1.
        1    1    1    2  502    0  2.14448232491E+01 -4.94076239362E+01  1.56452977276E+03  1.56545661185E+03  0.00000000000E+00  0.00000000000E+00  1.
        5    1    4    4  501    0  2.33403289151E+02  5.78804539249E+00  2.15696254339E+02  3.17896262155E+02  4.74999999999E+00  0.00000000000E+00  1.
       24    2    4    4    0    0  1.57021112900E+02  1.05143351224E+02  2.48306696106E+02  3.22531664844E+02  8.16070174229E+01  0.00000000000E+00  1.
       -3    1    7    7    0  703  1.19391456670E+02  8.77709119159E+01  2.37100113626E+02  2.79597061475E+02  3.81469726562E-06  0.00000000000E+00  1.
        4    1    7    7  703    0  3.76296562301E+01  1.73724393083E+01  1.12065824807E+01  4.29346033686E+01  2.20778693884E-06  0.00000000000E+00  1.
</event>
<event>
 9 110   1.0000000E+00   7.4550000E+01   7.8125000E-03   1.3429423E-01
        4   -1    0    0  502    0  0.00000000000E+00  0.00000000000E+00  9.83285016821E+02  9.83285016821E+02  0.00000000000E+00  0.00000000000E+00  1.
        5   -1    0    0  501    0  0.00000000000E+00  0.00000000000E+00 -1.01223739917E+02  1.01223739917E+02  0.00000000000E+00  0.00000000000E+00  1.
       25    1    1    2    0    0  1.98466552391E+02 -6.51207256970E+01  6.11898124268E+02  6.58539289501E+02  1.25000000000E+02  0.00000000000E+00  1.
        6    2    1    2  501    0 -2.01401139549E+02  3.44357261040E+01  1.61932920481E+02  3.13435187331E+02  1.73985941034E+02  0.00000000000E+00  1.
        3    1    1    2  502    0  2.93458715812E+00  3.06849995930E+01  1.08230232155E+02  1.12534279907E+02  1.34869915235E-06  0.00000000000E+00  1.
        5    1    4    4  501    0 -8.84639692974E+01  2.23432094782E+01 -1.00036093859E+01  9.19115203573E+01  4.75000000000E+00  0.00000000000E+00  1.
       24    2    4    4    0    0 -1.12937170252E+02  1.20925166258E+01  1.71936529866E+02  2.21523666973E+02  8.12990242500E+01  0.00000000000E+00  1.
       -1    1    7    7    0  703 -5.70805775511E+01  4.00282878322E+01  1.25980410449E+02  1.43984443525E+02  1.34869915235E-06  0.00000000000E+00  1.
        2    1    7    7  703    0 -5.58565927009E+01 -2.79357712064E+01  4.59561194171E+01  7.75392234481E+01  1.34869915235E-06  0.00000000000E+00  1.
</event>
<event>
 9 110   1.0000000E+00   7.4550000E+01   7.8125000E-03   1.3429423E-01
        5   -1    0    0  501    0  0.00000000000E+00  0.00000000000E+00  1.06029235294E+02  1.06029235294E+02  0.00000000000E+00  0.00000000000E+00  1.
        2   -1    0    0  502    0  0.00000000000E+00  0.00000000000E+00 -2.99681955489E+03  2.99681955489E+03  0.00000000000E+00  0.00000000000E+00  1.
       25    1    1    2    0    0 -3.07548959256E+02  2.03572838666E+01 -1.10458246368E+03  1.15357193119E+03  1.25000000000E+02  0.00000000000E+00  1.
        6    2    1    2  501    0  1.51671720014E+01 -9.41401551334E+01 -7.53582381728E+01  2.12055676727E+02  1.73770924082E+02  0.00000000000E+00  1.
        1    1    1    2  502    0  2.92381787255E+02  7.37828712668E+01 -1.71084961774E+03  1.73722118228E+03  0.00000000000E+00  0.00000000000E+00  1.
        5    1    4    4  501    0 -4.58764143854E+01  4.20544135924E+00 -4.70565050511E+01  6.60243008407E+01  4.75000000000E+00  0.00000000000E+00  1.
       24    2    4    4    0    0  6.10435863868E+01 -9.83455964926E+01 -2.83017331217E+01  1.46031375886E+02  8.44156315916E+01  0.00000000000E+00  1.
       -1    1    7    7    0  703  3.86166574215E+01 -3.30978743275E+00  1.17352985313E+01  4.04959029394E+01  1.16800772800E-06  0.00000000000E+00  1.
        4    1    7    7  703    0  2.24269289653E+01 -9.50358090599E+01 -4.00370316530E+01  1.05535472947E+02  2.18514237163E-06  0.00000000000E+00  1.
</event>
<event>
 9 110   1.0000000E+00   7.4550000E+01   7.8125000E-03   1.3429423E-01
       -3   -1    0    0    0  502  0.00000000000E+00  0.00000000000E+00  4.47743579202E+02  4.47743579202E+02  0.00000000000E+00  0.00000000000E+00  1.
        5   -1    0    0  501    0  0.00000000000E+00  0.00000000000E+00 -5.76045432620E+02  5.76045432620E+02  0.00000000000E+00  0.00000000000E+00  1.
       25    1    1    2    0    0  1.48165882713E+02 -1.31594789310E+02 -2.94421367965E+02  3.76270194525E+02  1.25000000000E+02  0.00000000000E+00  1.
        6    2    1    2  501    0  1.05136722977E+01  2.64430286828E+00 -1.74601221120E+02  2.50154942687E+02  1.78813811802E+02  0.00000000000E+00  1.
       -4    1    1    2    0  502 -1.58679555010E+02  1.28950486442E+02  3.40720735666E+02  3.97363874610E+02  3.81469726562E-06  0.00000000000E+00  1.
        5    1    4    4  501    0 -1.43058497460E+01  3.73200258436E+01  1.24900088179E+01  4.21426682378E+01  4.75000000000E+00  0.00000000000E+00  1.
       24    2    4    4    0    0  2.48195220437E+01 -3.46757229754E+01 -1.87091229938E+02  2.08012274449E+02  8.02967219973E+01  0.00000000000E+00  1.
       -3    1    7    7    0  703 -1.92448212909E+01 -3.72868664939E+01 -1.24809954303E+02  1.31674592282E+02  1.90734863281E-06  0.00000000000E+00  1.
        4    1    7    7  703    0  4.40643433347E+01  2.61114351854E+00 -6.22812756350E+01  7.63376821676E+01  9.53674316406E-07  0.00000000000E+00  1.
</event>
<event>
 9 110   1.0000000E+00   7.4550000E+01   7.8125000E-03   1.3429423E-01
        5   -1    0    0  501    0  0.00000000000E+00  0.00000000000E+00  1.66779581437E+02  1.66779581437E+02  0.00000000000E+00  0.00000000000E+00  1.
        2   -1    0    0  502    0  0.00000000000E+00  0.00000000000E+00 -6.20482096082E+02  6.20482096082E+02  0.00000000000E+00  0.00000000000E+00  1.
       25    1    1    2    0    0 -5.05957960344E+01  9.02753420465E+01  2.11112732850E+01  1.63646747043E+02  1.25000000000E+02  0.00000000000E+00  1.
        6    2    1    2  501    0  1.25321220096E+01 -1.22400468052E+02 -9.06983180840E+01  2.36283597924E+02  1.80179979696E+02  0.00000000000E+00  1.
        1    1    1    2  502    0  3.80636740248E+01  3.21251260058E+01 -3.84115469846E+02  3.87331332552E+02  0.00000000000E+00  0.00000000000E+00  1.
        5    1    4    4  501    0 -1.40956774601E+01 -6.10028637463E+01  3.72778237866E+01  7.30221620782E+01  4.75000000000E+00  0.00000000000E+00  1.
       24    2    4    4    0    0  2.66277994697E+01 -6.13976043060E+01 -1.27976141871E+02  1.63261435846E+02  7.61426163674E+01  0.00000000000E+00  1.
      -11    1    7    7    0    0 -5.38038925245E+00  8.55899338417E+00 -5.92386146313E+01  6.00950781675E+01  5.10998152747E-04  0.00000000000E+00  1.
       12    1    7    7    0    0  3.20081887222E+01 -6.99565976902E+01 -6.87375272392E+01  1.03166357678E+02  2.13248059988E-06  0.00000000000E+00  1.
</event>
<event>
 9 110   1.0000000E+00   7.4550000E+01   7.8125000E-03   1.3429423E-01
        2   -1    0    0  502    0  0.00000000000E+00  0.00000000000E+00  8.21832418162E+02  8.21832418162E+02  0.00000000000E+00  0.00000000000E+00  1.
        5   -1    0    0  501    0  0.00000000000E+00  0.00000000000E+00 -2.51474787060E+02  2.51474787060E+02  0.00000000000E+00  0.00000000000E+00  1.
       25    1    1    2    0    0  2.70903203533E+01  9.76572538946E+01  5.13349527104E+02  5.37981004937E+02  1.25000000000E+02  0.00000000000E+00  1.
        6    2    1    2  501    0  2.88857482486E+01 -5.79788692385E+01 -1.97989748916E+02  2.71258785681E+02  1.73739610922E+02  0.00000000000E+00  1.
        1    1    1    2  502    0 -5.59760686019E+01 -3.96783846561E+01  2.54997852915E+02  2.64067414605E+02  7.13664510112E-06  0.00000000000E+00  1.
        5    1    4    4  501    0  1.63731656310E+01 -9.66464016969E+01 -9.46344762453E+01  1.36333613273E+02  4.75000000000E+00  0.00000000000E+00  1.
       24    2    4    4    0    0  1.25125826176E+01  3.86675324584E+01 -1.03355272671E+02  1.34925172408E+02  7.66207998550E+01  0.00000000000E+00  1.
      -13    1    7    7    0    0 -7.74266315232E+00 -1.65786976813E+01 -2.93032860180E+00  1.85310560748E+01  1.05660000002E-01  0.00000000000E+00  1.
       14    1    7    7    0    0  2.02552457700E+01  5.52462301397E+01 -1.00424944069E+02  1.16394116334E+02  1.34869915235E-06  0.00000000000E+00  1.
</event>
<event>
 9 110   1.0000000E+00   7.4550000E+01   7.8125000E-03   1.3429423E-01
        2   -1    0    0  502    0  0.00000000000E+00  0.00000000000E+00  1.42169588900E+03  1.42169588900E+03  0.00000000000E+00  0.00000000000E+00  1.
        5   -1    0    0  501    0  0.00000000000E+00  0.00000000000E+00 -4.97381995432E+01  4.97381995432E+01  0.00000000000E+00  0.00000000000E+00  1.
       25    1    1    2    0    0  5.77315867313E+01 -6.27994415342E+01  2.30135904616E+02  2.75434639356E+02  1.25000000000E+02  0.00000000000E+00  1.
        6    2    1    2  501    0 -8.58224134772E+01  1.63344915075E+01  3.28576715824E+02  3.80943850834E+02  1.71823330891E+02  0.00000000000E+00  1.
        1    1    1    2  502    0  2.80908267459E+01  4.64649500267E+01  8.13245069021E+02  8.15055598358E+02  1.52587890625E-05  0.00000000000E+00  1.
        5    1    4    4  501    0 -3.86098779223E+01  5.21557654551E+01  2.39418249754E+02  2.48102009985E+02  4.75000000001E+00  0.00000000000E+00  1.
       24    2    4    4    0    0 -4.72125355549E+01 -3.58212739476E+01  8.91584660701E+01  1.32841840849E+02  7.86481749777E+01  0.00000000000E+00  1.
       -3    1    7    7    0  703  2.14054361350E+01 -1.52119093132E+01  1.78156588942E+01  3.17331464390E+01  1.75201159199E-06  0.00000000000E+00  1.
        2    1    7    7  703    0 -6.86179716899E+01 -2.06093646344E+01  7.13428071759E+01  1.01108694410E+02  1.65181236989E-06  0.00000000000E+00  1.
</event>
<event>
 9 110   1.0000000E+00   7.4550000E+01   7.8125000E-03   1.3429423E-01
        2   -1    0    0  502    0  0.00000000000E+00  0.00000000000E+00  2.87955520039E+03  2.87955520039E+03  0.00000000000E+00  0.00000000000E+00  1.
        5   -1    0    0  501    0  0.00000000000E+00  0.00000000000E+00 -6.75266191958E+01  6.75266191958E+01  0.00000000000E+00  0.00000000000E+00  1.
       25    1    1    2    0    0 -3.31374177332E+02  2.22426524624E+02  1.44602206559E+03  1.50528642405E+03  1.25000000000E+02  0.00000000000E+00  1.
        6    2    1    2  501    0  3.26911493804E+02 -1.89270623038E+02  1.13994717199E+03  1.21327393880E+03  1.72799311658E+02  0.00000000000E+00  1.
        1    1    1    2  502    0  4.46268352778E+00 -3.31559015859E+01  2.26059343606E+02  2.28521456729E+02  6.03156597170E-06  0.00000000000E+00  1.
        5    1    4    4  501    0  1.95211165113E+02 -4.48821972912E+01  6.34021727989E+02  6.64927007032E+02  4.74999999999E+00  0.00000000000E+00  1.
       24    2    4    4    0    0  1.31700328691E+02 -1.44388425747E+02  5.05925444002E+02  5.48346931766E+02  8.08134185722E+01  0.00000000000E+00  1.
       -3    1    7    7    0  703  3.19327527331E+01 -9.17911803813E+01  2.01826155763E+02  2.24006961148E+02  4.67203091199E-06  0.00000000000E+00  1.
        4    1    7    7  703    0  9.97675759582E+01 -5.25972453660E+01  3.04099288239E+02  3.24339970617E+02  5.39479660939E-06  0.00000000000E+00  1.
</event>
<event>
 9 110   1.0000000E+00   7.4550000E+01   7.8125000E-03   1.3429423E-01
        2   -1    0    0  502    0  0.00000000000E+00  0.00000000000E+00  3.38649772424E+03  3.38649772424E+03  0.00000000000E+00  0.00000000000E+00  1.
        5   -1    0    0  501    0  0.00000000000E+00  0.00000000000E+00 -5.32785794492E+02  5.32785794492E+02  0.00000000000E+00  0.00000000000E+00  1.
       25    1    1    2    0    0 -7.84244859411E+02  5.81143997001E+02  1.40820243546E+03  1.71797189849E+03  1.25000000000E+02  0.00000000000E+00  1.
        6    2    1    2  501    0 -5.52537317850E+01 -4.05756775017E+02 -7.99837762176E+01  4.51269254866E+02  1.71915678693E+02  0.00000000000E+00  1.
        1    1    1    2  502    0  8.39498591196E+02 -1.75387221984E+02  1.52549327051E+03  1.75004236538E+03  4.31583728752E-05  0.00000000000E+00  1.
        5    1    4    4  501    0  9.18366564068E+00 -1.14023830771E+02 -8.41578384673E+01  1.42094609235E+02  4.75000000000E+00  0.00000000000E+00  1.
       24    2    4    4    0    0 -6.44373974257E+01 -2.91732944247E+02  4.17406224976E+00  3.09174645631E+02  7.94433745461E+01  0.00000000000E+00  1.
       -3    1    7    7    0  703  1.72567974103E+01 -8.29869701927E+01  6.37182909453E+00  8.50013793102E+01  6.52936169511E-07  0.00000000000E+00  1.
        4    1    7    7  703    0 -8.16941948360E+01 -2.08745974054E+02 -2.19776684477E+00  2.24173266320E+02  3.02372430165E-06  0.00000000000E+00  1.
</event>
<event>
 9 110   1.0000000E+00   7.4550000E+01   7.8125000E-03   1.3429423E-01
        2   -1    0    0  502    0  0.00000000000E+00  0.00000000000E+00  2.33346177612E+03  2.33346177612E+03  0.00000000000E+00  0.00000000000E+00  1.
        5   -1    0    0  501    0  0.00000000000E+00  0.00000000000E+00 -2.23157597523E+02  2.23157597523E+02  0.00000000000E+00  0.00000000000E+00  1.
       25    1    1    2    0    0  1.90249685173E+02 -8.76921605386E+01  1.22319720390E+02  2.72895532621E+02  1.25000000000E+02  0.00000000000E+00  1.
        6    2    1    2  501    0 -1.24288656765E+02  1.81573589313E+02 -1.22496969683E+01  2.80201628650E+02  1.73049874562E+02  0.00000000000E+00  1.
        1    1    1    2  502    0 -6.59610284075E+01 -9.38814287740E+01  2.00023415517E+03  2.00352221237E+03  3.05175781250E-05  0.00000000000E+00  1.
        5    1    4    4  501    0 -1.14131719666E+02  6.15721287194E+01  2.10786523562E+01  1.31468812097E+02  4.75000000000E+00  0.00000000000E+00  1.
       24    2    4    4    0    0 -1.01569370993E+01  1.20001460593E+02 -3.33283493245E+01  1.48732816553E+02  8.06669568993E+01  0.00000000000E+00  1.
       -1    1    7    7    0  703  2.81180661446E+01  2.22444665628E+01  6.52114546754E+00  3.64412853036E+01  1.57021759418E-06  0.00000000000E+00  1.
        2    1    7    7  703    0 -3.82750032438E+01  9.77569940303E+01 -3.98494947920E+01  1.12291531249E+02  2.28683067480E-06  0.00000000000E+00  1.
</event>
<event>
 9 110   1.0000000E+00   7.4550000E+01   7.8125000E-03   1.3429423E-01
        5   -1    0    0  501    0  0.00000000000E+00  0.00000000000E+00  3.41836719434E+02  3.41836719434E+02  0.00000000000E+00  0.00000000000E+00  1.
        4   -1    0    0  502    0  0.00000000000E+00  0.00000000000E+00 -3.70821875565E+02  3.70821875565E+02  0.00000000000E+00  0.00000000000E+00  1.
       25    1    1    2    0    0 -1.59132723105E+02  6.47647819756E+01 -7.95420225121E+01  2.26869199965E+02  1.25000000000E+02  0.00000000000E+00  1.
        6    2    1    2  501    0  1.69192010293E+02 -3.44456524316E+01  2.11564904351E+02  3.21643036056E+02  1.69947328817E+02  0.00000000000E+00  1.
        3    1    1    2  502    0 -1.00592871873E+01 -3.03191295440E+01 -1.61008037970E+02  1.64146358978E+02  2.69739830470E-06  0.00000000000E+00  1.
        5    1    4    4  501    0  1.58869705649E+01  1.03366451742E+01  1.17820690024E+02  1.19429977664E+02  4.75000000000E+00  0.00000000000E+00  1.
       24    2    4    4    0    0  1.53305039728E+02 -4.47822976058E+01  9.37442143278E+01  2.02213058392E+02  8.12050114192E+01  0.00000000000E+00  1.
       -3    1    7    7    0  703  5.28187460452E+00 -1.69908885777E+01  3.73862544140E+01  4.14043537940E+01  1.65181236989E-06  0.00000000000E+00  1.
        4    1    7    7  703    0  1.48023165123E+02 -2.77914090281E+01  5.63579599139E+01  1.60808704598E+02  1.16800772800E-06  0.00000000000E+00  1.
</event>
<event>
 9 110   1.0000000E+00   7.4550000E+01   7.8125000E-03   1.3429423E-01
        5   -1    0    0  501    0  0.00000000000E+00  0.00000000000E+00  4.30573517240E+02  4.30573517240E+02  0.00000000000E+00  0.00000000000E+00  1.
        2   -1    0    0  502    0  0.00000000000E+00  0.00000000000E+00 -1.60951754853E+03  1.60951754853E+03  0.00000000000E+00  0.00000000000E+00  1.
       25    1    1    2    0    0  1.33772856668E+02 -3.30914448151E+02 -2.09567567042E+02  4.32369187538E+02  1.25000000000E+02  0.00000000000E+00  1.
        6    2    1    2  501    0 -5.47106680893E+00  1.47188838010E+02  2.67277998752E+02  3.50928056653E+02  1.73258436224E+02  0.00000000000E+00  1.
        1    1    1    2  502    0 -1.28301789859E+02  1.83725610141E+02 -1.23665446300E+03  1.25679382158E+03  2.64289979182E-05  0.00000000000E+00  1.
        5    1    4    4  501    0  4.05505970127E+01  1.17483106048E+02  1.08975309139E+02  1.65362666968E+02  4.75000000000E+00  0.00000000000E+00  1.
       24    2    4    4    0    0 -4.60216638216E+01  2.97057319619E+01  1.58302689612E+02  1.85565389685E+02  7.98395156432E+01  0.00000000000E+00  1.
      -11    1    7    7    0    0 -6.73899732957E+01  1.51499619542E+01  9.74354285103E+01  1.19434469804E+02  5.10998597706E-04  0.00000000000E+00  1.
       12    1    7    7    0    0  2.13683094741E+01  1.45557700078E+01  6.08672611019E+01  6.61309198813E+01  6.74349576174E-07  0.00000000000E+00  1.
</event>
<event>
 9 110   1.0000000E+00   7.4550000E+01   7.8125000E-03   1.3429423E-01
        2   -1    0    0  502    0  0.00000000000E+00  0.00000000000E+00  1.31592853336E+03  1.31592853336E+03  0.00000000000E+00  0.00000000000E+00  1.
        5   -1    0    0  501    0  0.00000000000E+00  0.00000000000E+00 -7.51819240967E+02  7.51819240967E+02  0.00000000000E+00  0.00000000000E+00  1.
       25    1    1    2    0    0  5.79937567533E+02  4.39861753378E+02  1.28999425061E+02  7.49714476308E+02  1.25000000000E+02  0.00000000000E+00  1.
        6    2    1    2  501    0 -5.20025715975E+02 -4.36680170751E+02 -1.60849406144E+02  7.19061672590E+02  1.73380623858E+02  0.00000000000E+00  1.
        1    1    1    2  502    0 -5.99118515579E+01 -3.18158262638E+00  5.95959273479E+02  5.98971625431E+02  7.62939453125E-06  0.00000000000E+00  1.
        5    1    4    4  501    0 -3.06851890333E+02 -2.30629671770E+02 -2.91908657233E+01  3.84997139266E+02  4.75000000000E+00  0.00000000000E+00  1.
       24    2    4    4    0    0 -2.13173825642E+02 -2.06050498981E+02 -1.31658540421E+02  3.34064533324E+02  7.97825362471E+01  0.00000000000E+00  1.
       -3    1    7    7    0  703  7.13129854312E+00 -4.91014388173E+00 -4.76536746916E+00  9.88299848055E+00  3.08795782256E-06  0.00000000000E+00  1.
        4    1    7    7  703    0 -2.20305124185E+02 -2.01140355100E+02 -1.26893172952E+02  3.24181534843E+02  4.47312904341E-06  0.00000000000E+00  1.
</event>
<event>
 9 110   1.0000000E+00   7.4550000E+01   7.8125000E-03   1.3429423E-01
        5   -1    0    0  501    0  0.00000000000E+00  0.00000000000E+00  6.68826945389E+02  6.68826945389E+02  0.00000000000E+00  0.00000000000E+00  1.
        2   -1    0    0  502    0  0.00000000000E+00  0.00000000000E+00 -2.88911198645E+02  2.88911198645E+02  0.00000000000E+00  0.00000000000E+00  1.
       25    1    1    2    0    0  5.62897194174E+01 -2.71161589702E+01  3.31356009545E+02  3.59618719829E+02  1.25000000000E+02  0.00000000000E+00  1.
        6    2    1    2  501    0 -9.92385985590E+01  1.28538549258E+02  2.64868999603E+02  3.55383344330E+02  1.72543549248E+02  0.00000000000E+00  1.
        1    1    1    2  502    0  4.29488791416E+01 -1.01422390287E+02 -2.16309262404E+02  2.42736079875E+02  8.09219491409E-06  0.00000000000E+00  1.
        5    1    4    4  501    0 -2.00970476192E+01  4.04377887411E+01 -8.47200765143E+00  4.61892140539E+01  4.75000000000E+00  0.00000000000E+00  1.
       24    2    4    4    0    0 -7.91415509398E+01  8.81007605166E+01  2.73341007254E+02  3.09194130276E+02  8.28285872237E+01  0.00000000000E+00  1.
       -3    1    7    7    0  703  1.74154493053E+01  8.66096415644E+00  3.90952681410E+01  4.36663504960E+01  2.93942165516E-06  0.00000000000E+00  1.
        4    1    7    7  703    0 -9.65570002450E+01  7.94397963601E+01  2.34245739113E+02  2.65527779780E+02  2.69739830470E-06  0.00000000000E+00  1.
</event>
<event>
 9 110   1.0000000E+00   7.4550000E+01   7.8125000E-03   1.3429423E-01
        2   -1    0    0  502    0  0.00000000000E+00  0.00000000000E+00  5.98320883339E+02  5.98320883339E+02  0.00000000000E+00  0.00000000000E+00  1.
        5   -1    0    0  501    0  0.00000000000E+00  0.00000000000E+00 -1.71168251274E+02  1.71168251274E+02  0.00000000000E+00  0.00000000000E+00  1.
       25    1    1    2    0    0 -1.34159847415E+02 -5.30951019206E+01  4.69531725052E+02  5.06855990728E+02  1.25000000000E+02  0.00000000000E+00  1.
        6    2    1    2  501    0  9.30532566827E+01  7.52453154058E+01 -2.26163495309E+01  2.11928609689E+02  1.73440105710E+02  0.00000000000E+00  1.
        1    1    1    2  502    0  4.11065907326E+01 -2.21502134852E+01 -1.97627434561E+01  5.07045341958E+01  7.15255737305E-07  0.00000000000E+00  1.
        5    1    4    4  501    0  6.01070849541E+01  7.90592731563E+01 -6.07575489762E+01  1.16521554192E+02  4.75000000000E+00  0.00000000000E+00  1.
       24    2    4    4    0    0  3.29461717286E+01 -3.81395775058E+00  3.81411994453E+01  9.54070554969E+01  8.09182219168E+01  0.00000000000E+00  1.
       -3    1    7    7    0  703  5.67314127694E+01 -1.58860164741E+00  4.27807515235E+01  7.10715804730E+01  6.74349576174E-07  0.00000000000E+00  1.
        4    1    7    7  703    0 -2.37852410408E+01 -2.22535610317E+00 -4.63955207820E+00  2.43354750240E+01  9.27230667240E-07  0.00000000000E+00  1.
</event>
<event>
 9 110   1.0000000E+00   7.4550000E+01   7.8125000E-03   1.3429423E-01
        2   -1    0    0  502    0  0.00000000000E+00  0.00000000000E+00  1.16303530857E+03  1.16303530857E+03  0.00000000000E+00  0.00000000000E+00  1.
        5   -1    0    0  501    0  0.00000000000E+00  0.00000000000E+00 -9.27328852431E+01  9.27328852431E+01  0.00000000000E+00  0.00000000000E+00  1.
       25    1    1    2    0    0 -1.12473214466E+02  1.17637208954E+02  1.62683377002E+02  2.61877104871E+02  1.25000000000E+02  0.00000000000E+00  1.
        6    2    1    2  501    0 -1.25410347482E+01 -3.25876711274E+01  1.86689261872E+02  2.57276033093E+02  1.73547811407E+02  0.00000000000E+00  1.
        1    1    1    2  502    0  1.25014249214E+02 -8.50495378269E+01  7.20929784457E+02  7.36615055853E+02  1.07895932188E-05  0.00000000000E+00  1.
        5    1    4    4  501    0 -1.36331616454E+01 -8.26247213913E+01  1.00173454538E+02  1.30652176314E+02  4.75000000000E+00  0.00000000000E+00  1.
       24    2    4    4    0    0  1.09212689722E+00  5.00370502639E+01  8.65158073331E+01  1.26623856779E+02  7.77413470868E+01  0.00000000000E+00  1.
       -1    1    7    7    0  703  1.13076625190E+01  1.22447722572E+01 -1.20507212079E+01  2.05673907170E+01  1.11828226085E-06  0.00000000000E+00  1.
        2    1    7    7  703    0 -1.02155356218E+01  3.77922780067E+01  9.85665285410E+01  1.06056466062E+02  1.34869915235E-06  0.00000000000E+00  1.
</event>
<event>
 9 110   1.0000000E+00   7.4550000E+01   7.8125000E-03   1.3429423E-01
        5   -1    0    0  501    0  0.00000000000E+00  0.00000000000E+00  1.14253310816E+02  1.14253310816E+02  0.00000000000E+00  0.00000000000E+00  1.
        2   -1    0    0  502    0  0.00000000000E+00  0.00000000000E+00 -3.74392105093E+02  3.74392105093E+02  0.00000000000E+00  0.00000000000E+00  1.
       25    1    1    2    0    0 -1.41007259789E+01 -1.08749484369E+02 -9.05026289649E+01  1.89317211772E+02  1.25000000000E+02  0.00000000000E+00  1.
        6    2    1    2  501    0  1.61297347458E+01  1.14567288620E+02 -1.11881035653E+02  2.41245343284E+02  1.79711205974E+02  0.00000000000E+00  1.
        1    1    1    2  502    0 -2.02900876696E+00 -5.81780425145E+00 -5.77551296592E+01  5.80828608528E+01  9.53674316406E-07  0.00000000000E+00  1.
        5    1    4    4  501    0  5.92910764561E+01  9.50565623005E+01 -9.15696041298E+01  1.44771325490E+02  4.75000000000E+00  0.00000000000E+00  1.
       24    2    4    4    0    0 -4.31613417103E+01  1.95107263197E+01 -2.03114315235E+01  9.64740177936E+01  8.15543499696E+01  0.00000000000E+00  1.
       -1    1    7    7    0  703 -3.26612491725E-01 -1.92931164318E+01 -3.21315479469E+01  3.74802266647E+01  9.53674316406E-07  0.00000000000E+00  1.
        2    1    7    7  703    0 -4.28347292186E+01  3.88038427515E+01  1.18201164233E+01  5.89937911290E+01  1.36961046375E-06  0.00000000000E+00  1.
</event>
<event>
 9 110   1.0000000E+00   7.4550000E+01   7.8125000E-03   1.3429423E-01
        2   -1    0    0  502    0  0.00000000000E+00  0.00000000000E+00  1.18293910348E+03  1.18293910348E+03  0.00000000000E+00  0.00000000000E+00  1.
        5   -1    0    0  501    0  0.00000000000E+00  0.00000000000E+00 -3.39314947875E+02  3.39314947875E+02  0.00000000000E+00  0.00000000000E+00  1.
       25    1    1    2    0    0 -3.22013304151E+02 -6.41681607795E+01  3.91231352491E+02  5.25829907936E+02  1.25000000000E+02  0.00000000000E+00  1.
        6    2    1    2  501    0  1.01523008076E+01  9.25251647986E+01 -1.95290035546E+02  2.77011560419E+02  1.73012228729E+02  0.00000000000E+00  1.
        1    1    1    2  502    0  3.11861003344E+02 -2.83570040191E+01  6.47682838657E+02  7.19412582997E+02  1.52587890625E-05  0.00000000000E+00  1.
        5    1    4    4  501    0 -3.89597787228E+01  3.99545486254E+01 -1.48515884510E+02  1.58725425707E+02  4.75000000000E+00  0.00000000000E+00  1.
       24    2    4    4    0    0  4.91120795303E+01  5.25706161733E+01 -4.67741510353E+01  1.18286134712E+02  8.14132815910E+01  0.00000000000E+00  1.
      -13    1    7    7    0    0  3.09088372340E+00 -2.01626489426E+01 -1.50008010726E-01  2.03990107851E+01  1.05660000002E-01  0.00000000000E+00  1.
       14    1    7    7    0    0  4.60211958069E+01  7.27332651158E+01 -4.66241430246E+01  9.78871239270E+01  1.50789149292E-06  0.00000000000E+00  1.
</event>
<event>
 9 110   1.0000000E+00   7.4550000E+01   7.8125000E-03   1.3429423E-01
        2   -1    0    0  502    0  0.00000000000E+00  0.00000000000E+00  1.66460604609E+03  1.66460604609E+03  0.00000000000E+00  0.00000000000E+00  1.
        5   -1    0    0  501    0  0.00000000000E+00  0.00000000000E+00 -9.15444365540E+01  9.15444365540E+01  0.00000000000E+00  0.00000000000E+00  1.
       25    1    1    2    0    0  2.53386493448E+02  1.03248855945E+02  6.08760177915E+02  6.79027978459E+02  1.25000000000E+02  0.00000000000E+00  1.
        6    2    1    2  501    0 -1.99137324712E+02 -1.21537604786E+02  3.28523907476E+02  4.38772669963E+02  1.73684871686E+02  0.00000000000E+00  1.
        1    1    1    2  502    0 -5.42491687365E+01  1.82887488404E+01  6.35777524144E+02  6.38349834221E+02  1.07895932188E-05  0.00000000000E+00  1.
        5    1    4    4  501    0 -1.24119762244E+02  4.72308918258E-01  1.13919244916E+02  1.68541079020E+02  4.75000000000E+00  0.00000000000E+00  1.
       24    2    4    4    0    0 -7.50175624681E+01 -1.22009913704E+02  2.14604662561E+02  2.70231590943E+02  8.03486019174E+01  0.00000000000E+00  1.
      -15    1    7    7    0    0 -4.07373736762E+01 -6.74219216667E+01  1.81289326905E+02  1.97672016743E+02  1.77680000000E+00  0.00000000000E+00  1.
       16    1    7    7    0    0 -3.42801887919E+01 -5.45879920372E+01  3.33153356558E+01  7.25595742002E+01  0.00000000000E+00  0.00000000000E+00  1.
</event>
<event>
 9 110   1.0000000E+00   7.4550000E+01   7.8125000E-03   1.3429423E-01
       -3   -1    0    0    0  502  0.00000000000E+00  0.00000000000E+00  3.68705812180E+02  3.68705812180E+02  0.00000000000E+00  0.00000000000E+00  1.
        5   -1    0    0  501    0  0.00000000000E+00  0.00000000000E+00 -3.36672097642E+02  3.36672097642E+02  0.00000000000E+00  0.00000000000E+00  1.
       25    1    1    2    0    0 -3.39545790746E+01  1.08954970273E+02 -2.05896669446E+01  1.70508162186E+02  1.25000000000E+02  0.00000000000E+00  1.
        6    2    1    2  501    0 -5.58472697969E+01 -3.67783809954E+01 -1.90546325213E+02  2.65787346957E+02  1.72810430523E+02  0.00000000000E+00  1.
       -4    1    1    2    0  502  8.98018488715E+01 -7.21765892771E+01  2.43169706697E+02  2.69082400679E+02  7.62939453125E-06  0.00000000000E+00  1.
        5    1    4    4  501    0 -5.33402405172E+01  1.95683631179E+01 -1.50386825510E+02  1.60831781314E+02  4.75000000000E+00  0.00000000000E+00  1.
       24    2    4    4    0    0 -2.50702927964E+00 -5.63467441134E+01 -4.01594997030E+01  1.04955565643E+02  7.88774021823E+01  0.00000000000E+00  1.
       -1    1    7    7    0  703  1.33371053911E+01 -2.09640145465E+01  2.10075584080E+01  3.25374522110E+01  1.39020726558E-06  0.00000000000E+00  1.
        2    1    7    7  703    0 -1.58441346707E+01 -3.53827295669E+01 -6.11670581110E+01  7.24181134318E+01  1.78416127528E-06  0.00000000000E+00  1.
</event>
<event>
 9 110   1.0000000E+00   7.4550000E+01   7.8125000E-03   1.3429423E-01
        5   -1    0    0  501    0  0.00000000000E+00  0.00000000000E+00  8.68187709268E+02  8.68187709268E+02  0.00000000000E+00  0.00000000000E+00  1.
        2   -1    0    0  502    0  0.00000000000E+00  0.00000000000E+00 -1.39849190967E+03  1.39849190967E+03  0.00000000000E+00  0.00000000000E+00  1.
       25    1    1    2    0    0  7.84347790888E+02  4.45486157630E+02  2.85970831228E+02  9.54496563653E+02  1.25000000000E+02  0.00000000000E+00  1.
        6    2    1    2  501    0 -7.75975808454E+02 -3.68891676444E+02 -5.50483345244E+02  1.03544847994E+03  1.75789979720E+02  0.00000000000E+00  1.
        1    1    1    2  502    0 -8.37198243446E+00 -7.65944811864E+01 -2.65791686382E+02  2.76734575339E+02  5.39479660939E-06  0.00000000000E+00  1.
        5    1    4    4  501    0 -2.75676739754E+02 -7.34109627660E+01 -1.28647013908E+02  3.12984745607E+02  4.75000000000E+00  0.00000000000E+00  1.
       24    2    4    4    0    0 -5.00299068700E+02 -2.95480713678E+02 -4.21836331336E+02  7.22463734336E+02  7.99996668570E+01  0.00000000000E+00  1.
      -15    1    7    7    0    0 -4.33605258249E+02 -2.72720132758E+02 -3.41718486575E+02  6.15763324564E+02  1.77680000000E+00  0.00000000000E+00  1.
       16    1    7    7    0    0 -6.66938104514E+01 -2.27605809202E+01 -8.01178447608E+01  1.06700409772E+02  6.18051595536E-06  0.00000000000E+00  1.
</event>
<event>
 9 110   1.0000000E+00   7.4550000E+01   7.8125000E-03   1.3429423E-01
        5   -1    0    0  501    0  0.00000000000E+00  0.00000000000E+00  2.87128856957E+02  2.87128856957E+02  0.00000000000E+00  0.00000000000E+00  1.
        2   -1    0    0  502    0  0.00000000000E+00  0.00000000000E+00 -1.31796783148E+03  1.31796783148E+03  0.00000000000E+00  0.00000000000E+00  1.
       25    1    1    2    0    0 -1.20796583413E+02 -3.38527628516E+02 -7.66252640962E+01  3.88187069505E+02  1.25000000000E+02  0.00000000000E+00  1.
        6    2    1    2  501    0  2.08378520058E+02  1.38044526746E+02 -7.82506621875E+01  3.14039012698E+02  1.73261179662E+02  0.00000000000E+00  1.
        1    1    1    2  502    0 -8.75819366442E+01  2.00483101770E+02 -8.75963048240E+02  9.02870606236E+02  2.41262638868E-05  0.00000000000E+00  1.
        5    1    4    4  501    0  8.74105579254E+01 -1.73512562225E+01 -4.06146594029E+01  9.80499096774E+01  4.75000000000E+00  0.00000000000E+00  1.
       24    2    4    4    0    0  1.20967962132E+02  1.55395782968E+02 -3.76360027845E+01  2.15989103021E+02  8.03350900384E+01  0.00000000000E+00  1.
      -13    1    7    7    0    0  4.26931279262E+01  1.10042439288E+02 -6.87310016439E-02  1.18034137031E+02  1.05660000015E-01  0.00000000000E+00  1.
       14    1    7    7    0    0  7.82748342059E+01  4.53533436800E+01 -3.75672717829E+01  9.79549659901E+01  1.34869915235E-06  0.00000000000E+00  1.
</event>
<event>
 9 110   1.0000000E+00   7.4550000E+01   7.8125000E-03   1.3429423E-01
        5   -1    0    0  501    0  0.00000000000E+00  0.00000000000E+00  1.71848721048E+02  1.71848721048E+02  0.00000000000E+00  0.00000000000E+00  1.
        2   -1    0    0  502    0  0.00000000000E+00  0.00000000000E+00 -3.03599062397E+02  3.03599062397E+02  0.00000000000E+00  0.00000000000E+00  1.
       25    1    1    2    0    0 -7.28577580259E+01 -3.49719589768E+00 -1.92892537763E+02  2.41149361202E+02  1.25000000000E+02  0.00000000000E+00  1.
        6    2    1    2  501    0  6.69475674031E+01  3.17413956312E+01  3.13543535788E+01  1.92825771585E+02  1.75240376971E+02  0.00000000000E+00  1.
        1    1    1    2  502    0  5.91019062278E+00 -2.82441997335E+01  2.97878428354E+01  4.14726506577E+01  6.74349576174E-07  0.00000000000E+00  1.
        5    1    4    4  501    0  7.91453607612E+01  1.34322306100E+01  6.57684771931E+01  1.03886803981E+02  4.75000000000E+00  0.00000000000E+00  1.
       24    2    4    4    0    0 -1.21977933581E+01  1.83091650212E+01 -3.44141236143E+01  8.89389676031E+01  7.90050401403E+01  0.00000000000E+00  1.
      -15    1    7    7    0    0  8.82612093991E+00  5.29942879085E+00 -5.54816613059E+01  5.64566746794E+01  1.77680000000E+00  0.00000000000E+00  1.
       16    1    7    7    0    0 -2.10239142980E+01  1.30097362304E+01  2.10675376916E+01  3.24822929237E+01  8.25906184945E-07  0.00000000000E+00  1.
</event>
<event>
 9 110   1.0000000E+00   7.4550000E+01   7.8125000E-03   1.3429423E-01
        2   -1    0    0  502    0  0.00000000000E+00  0.00000000000E+00  1.30726655528E+02  1.30726655528E+02  0.00000000000E+00  0.00000000000E+00  1.
        5   -1    0    0  501    0  0.00000000000E+00  0.00000000000E+00 -4.12130384125E+02  4.12130384125E+02  0.00000000000E+00  0.00000000000E+00  1.
       25    1    1    2    0    0 -1.27588336427E+02  7.25040616768E+01 -9.02577604887E+01  2.12854612072E+02  1.25000000000E+02  0.00000000000E+00  1.
        6    2    1    2  501    0  1.48739365494E+02 -4.65982401248E+01 -1.51724903943E+02  2.78306219589E+02  1.73606193884E+02  0.00000000000E+00  1.
        1    1    1    2  502    0 -2.11510290677E+01 -2.59058215520E+01 -3.94210641655E+01  5.16962079929E+01  4.76837158203E-07  0.00000000000E+00  1.
        5    1    4    4  501    0  1.38800642051E+02 -3.08309668523E+01 -5.77059281503E+01  1.53521019389E+02  4.75000000000E+00  0.00000000000E+00  1.
       24    2    4    4    0    0  9.93872344370E+00 -1.57672732725E+01 -9.40189757928E+01  1.24785200199E+02  7.99023982713E+01  0.00000000000E+00  1.
       -1    1    7    7    0  703 -1.64363494688E+01  2.53133083082E+01 -5.31338796409E+01  6.11074981247E+01  1.34869915235E-06  0.00000000000E+00  1.
        2    1    7    7  703    0  2.63750729125E+01 -4.10805815807E+01 -4.08850961518E+01  6.36777020745E+01  4.76837158203E-07  0.00000000000E+00  1.
</event>
<event>
 9 110   1.0000000E+00   7.4550000E+01   7.8125000E-03   1.3429423E-01
        2   -1    0    0  502    0  0.00000000000E+00  0.00000000000E+00  1.87695763874E+03  1.87695763874E+03  0.00000000000E+00  0.00000000000E+00  1.
        5   -1    0    0  501    0  0.00000000000E+00  0.00000000000E+00 -8.93547678605E+01  8.93547678605E+01  0.00000000000E+00  0.00000000000E+00  1.
       25    1    1    2    0    0  7.23078596417E+01 -1.03289887682E+02  1.36292711190E+02  2.23825670080E+02  1.25000000000E+02  0.00000000000E+00  1.
        6    2    1    2  501    0  5.09221501090E+01  2.84028906543E+02  1.06848864986E+03  1.11996513805E+03  1.71430541164E+02  0.00000000000E+00  1.
        1    1    1    2  502    0 -1.23230009751E+02 -1.80739018861E+02  5.82821509829E+02  6.22521598470E+02  0.00000000000E+00  0.00000000000E+00  1.
        5    1    4    4  501    0 -9.62212267943E+00 -9.84684845132E-01  2.05725582143E+02  2.06007603008E+02  4.75000000000E+00  0.00000000000E+00  1.
       24    2    4    4    0    0  6.05442727885E+01  2.85013591388E+02  8.62763067712E+02  9.13957535037E+02  7.78454147615E+01  0.00000000000E+00  1.
       -1    1    7    7    0  703  4.03837292011E+01  4.39619391069E+01  1.72787596251E+02  1.82808782864E+02  6.87704329579E-06  0.00000000000E+00  1.
        2    1    7    7  703    0  2.01605435873E+01  2.41051652282E+02  6.89975471462E+02  7.31148752173E+02  7.62939453125E-06  0.00000000000E+00  1.
</event>
<event>
 9 110   1.0000000E+00   7.4550000E+01   7.8125000E-03   1.3429423E-01
        5   -1    0    0  501    0  0.00000000000E+00  0.00000000000E+00  2.94980269848E+01  2.94980269848E+01  0.00000000000E+00  0.00000000000E+00  1.
        2   -1    0    0  502    0  0.00000000000E+00  0.00000000000E+00 -1.61557797783E+03  1.61557797783E+03  0.00000000000E+00  0.00000000000E+00  1.
       25    1    1    2    0    0  8.15606334976E+01  6.02991594371E+01 -1.05584713881E+03  1.06804789504E+03  1.25000000000E+02  0.00000000000E+00  1.
        6    2    1    2  501    0 -4.11448052801E+01 -4.22258728396E+01 -4.06651120987E+02  4.45755427083E+02  1.72791340162E+02  0.00000000000E+00  1.
        1    1    1    2  502    0 -4.04158282175E+01 -1.80732865975E+01 -1.23581691045E+02  1.31272682689E+02  1.34869915235E-06  0.00000000000E+00  1.
        5    1    4    4  501    0  1.05468718676E+00  2.25830029832E+01  1.14463305482E+00  2.31295714104E+01  4.75000000000E+00  0.00000000000E+00  1.
       24    2    4    4    0    0 -4.21994924669E+01 -6.48088758228E+01 -4.07795754042E+02  4.22625855672E+02  7.95879973242E+01  0.00000000000E+00  1.
       -3    1    7    7    0  703  9.30692436706E+00 -4.14738996146E+01 -8.63515698450E+01  9.62460222821E+01  3.01578298585E-06  0.00000000000E+00  1.
        4    1    7    7  703    0 -5.15064168339E+01 -2.33349762082E+01 -3.21444184197E+02  3.26379833390E+02  0.00000000000E+00  0.00000000000E+00  1.
</event>
<event>
 9 110   1.0000000E+00   7.4550000E+01   7.8125000E-03   1.3429423E-01
        2   -1    0    0  502    0  0.00000000000E+00  0.00000000000E+00  7.02056539445E+02  7.02056539445E+02  0.00000000000E+00  0.00000000000E+00  1.
        5   -1    0    0  501    0  0.00000000000E+00  0.00000000000E+00 -1.39151044491E+03  1.39151044491E+03  0.00000000000E+00  0.00000000000E+00  1.
       25    1    1    2    0    0 -4.83254045859E+02  4.71400659172E+01 -1.03091322877E+03  1.14636981114E+03  1.25000000000E+02  0.00000000000E+00  1.
        6    2    1    2  501    0  5.19341349203E+02 -2.02721983653E+01 -5.29532197519E+01  5.50226859592E+02  1.72682235671E+02  0.00000000000E+00  1.
        1    1    1    2  502    0 -3.60873033437E+01 -2.68678675519E+01  3.94412543059E+02  3.96970313615E+02  1.32144989591E-05  0.00000000000E+00  1.
        5    1    4    4  501    0  3.62573887435E+02  3.02904161346E+01 -4.28976947860E+01  3.66387919939E+02  4.75000000001E+00  0.00000000000E+00  1.
       24    2    4    4    0    0  1.56767461768E+02 -5.05626144999E+01 -1.00555249659E+01  1.83838939653E+02  8.10125119737E+01  0.00000000000E+00  1.
       -3    1    7    7    0  703 -8.39981718200E+00 -1.00341892688E+01 -3.92334207817E+00  1.36614236460E+01  3.95776636625E-06  0.00000000000E+00  1.
        4    1    7    7  703    0  1.65167278950E+02 -4.05284252311E+01 -6.13218288772E+00  1.70177516007E+02  4.09584106031E-06  0.00000000000E+00  1.
</event>
<event>
 9 110   1.0000000E+00   7.4550000E+01   7.8125000E-03   1.3429423E-01
        5   -1    0    0  501    0  0.00000000000E+00  0.00000000000E+00  7.14846455469E+01  7.14846455469E+01  0.00000000000E+00  0.00000000000E+00  1.
        2   -1    0    0  502    0  0.00000000000E+00  0.00000000000E+00 -1.53839741038E+03  1.53839741038E+03  0.00000000000E+00  0.00000000000E+00  1.
       25    1    1    2    0    0  1.09026236137E+02 -1.96784761959E+02 -9.70288219119E+02  1.00384022178E+03  1.25000000000E+02  0.00000000000E+00  1.
        6    2    1    2  501    0 -3.01476180688E+01  1.71195217752E+02 -4.45196775905E+02  5.08463779911E+02  1.73547010196E+02  0.00000000000E+00  1.
        1    1    1    2  502    0 -7.88786180684E+01  2.55895442072E+01 -5.14277698135E+01  9.75780542392E+01  2.43140197448E-06  0.00000000000E+00  1.
        5    1    4    4  501    0 -5.20637380077E+01 -2.43476830139E+00 -9.17170798330E+01  1.05598987425E+02  4.75000000000E+00  0.00000000000E+00  1.
       24    2    4    4    0    0  2.19161199388E+01  1.73629986053E+02 -3.53479696073E+02  4.02864792486E+02  8.20027872657E+01  0.00000000000E+00  1.
       -3    1    7    7    0  703 -9.82297850438E+00  1.03666338590E+02 -1.30088109741E+02  1.66631680539E+02  2.69739830470E-06  0.00000000000E+00  1.
        2    1    7    7  703    0  3.17390984432E+01  6.99636474633E+01 -2.23391586332E+02  2.36233111947E+02  2.69739830470E-06  0.00000000000E+00  1.
</event>
<event>
 9 110   1.0000000E+00   7.4550000E+01   7.8125000E-03   1.3429423E-01
        2   -1    0    0  502    0  0.00000000000E+00  0.00000000000E+00  1.74827545054E+03  1.74827545054E+03  0.00000000000E+00  0.00000000000E+00  1.
        5   -1    0    0  501    0  0.00000000000E+00  0.00000000000E+00 -2.02343065522E+02  2.02343065522E+02  0.00000000000E+00  0.00000000000E+00  1.
       25    1    1    2    0    0 -2.12944104753E+02  1.28720818279E+02  1.46605644378E+03  1.49226697918E+03  1.25000000000E+02  0.00000000000E+00  1.
        6    2    1    2  501    0 -2.11974521964E+01 -4.51768311545E+00  8.36907531092E+01  1.93279395255E+02  1.72867119586E+02  0.00000000000E+00  1.
        1    1    1    2  502    0  2.34141556950E+02 -1.24203135164E+02 -3.81481187273E+00  2.65072141624E+02  6.01741288382E-06  0.00000000000E+00  1.
        5    1    4    4  501    0 -4.67882420837E+00  6.42628805106E+01  4.73142998944E+01  8.00800517107E+01  4.75000000000E+00  0.00000000000E+00  1.
       24    2    4    4    0    0 -1.65186279880E+01 -6.87805636260E+01  3.63764532148E+01  1.13199343545E+02  8.05432432124E+01  0.00000000000E+00  1.
      -11    1    7    7    0    0 -3.25467914473E+01 -2.33746784602E+01 -1.49990627858E+01  4.27859919991E+01  5.10999042666E-04  0.00000000000E+00  1.
       12    1    7    7    0    0  1.60281634593E+01 -4.54058851658E+01  5.13755160006E+01  7.04133515457E+01  6.74349576174E-07  0.00000000000E+00  1.
</event>
<event>
 9 110   1.0000000E+00   7.4550000E+01   7.8125000E-03   1.3429423E-01
        5   -1    0    0  501    0  0.00000000000E+00  0.00000000000E+00  3.09641692025E+03  3.09641692025E+03  0.00000000000E+00  0.00000000000E+00  1.
        2   -1    0    0  502    0  0.00000000000E+00  0.00000000000E+00 -9.13974462762E+02  9.13974462762E+02  0.00000000000E+00  0.00000000000E+00  1.
       25    1    1    2    0    0  4.70754213948E+02 -2.10773428165E+02  1.00305743067E+03  1.13480578831E+03  1.25000000000E+02  0.00000000000E+00  1.
        6    2    1    2  501    0 -4.94634700492E+02  4.76498457304E+01  1.98474234101E+03  2.05352721217E+03  1.75607107481E+02  0.00000000000E+00  1.
        1    1    1    2  502    0  2.38804865439E+01  1.63123582435E+02 -8.05357314184E+02  8.22058382534E+02  1.07895932188E-05  0.00000000000E+00  1.
        5    1    4    4  501    0 -8.48490255338E+01  1.00141569664E+01  6.33007892727E+02  6.38765367900E+02  4.74999999999E+00  0.00000000000E+00  1.
       24    2    4    4    0    0 -4.09785674959E+02  3.76356887640E+01  1.35173444828E+03  1.41476184427E+03  7.08823875077E+01  0.00000000000E+00  1.
       -3    1    7    7    0  703 -3.38276344585E+02  6.74224818733E+00  1.05198667394E+03  1.10505760273E+03  1.52587890625E-05  0.00000000000E+00  1.
        4    1    7    7  703    0 -7.15093303735E+01  3.08934405767E+01  2.99747774342E+02  3.09704241534E+02  5.39479660939E-06  0.00000000000E+00  1.
</event>
<event>
 9 110   1.0000000E+00   7.4550000E+01   7.8125000E-03   1.3429423E-01
        2   -1    0    0  502    0  0.00000000000E+00  0.00000000000E+00  2.70129414639E+03  2.70129414639E+03  0.00000000000E+00  0.00000000000E+00  1.
        5   -1    0    0  501    0  0.00000000000E+00  0.00000000000E+00 -4.52003434803E+02  4.52003434803E+02  0.00000000000E+00  0.00000000000E+00  1.
       25    1    1    2    0    0 -1.06440878840E+02 -3.36921669941E+02 -2.70650152359E+02  4.62301176005E+02  1.25000000000E+02  0.00000000000E+00  1.
        6    2    1    2  501    0  3.40555346591E+01 -3.59093165002E+01  4.40940384937E+01  1.86189010277E+02  1.73990818334E+02  0.00000000000E+00  1.
        1    1    1    2  502    0  7.23853441808E+01  3.72830986441E+02  2.47584682545E+03  2.50480739491E+03  3.05175781250E-05  0.00000000000E+00  1.
        5    1    4    4  501    0 -2.69378264886E+01  1.78137084011E+01  6.25671122139E+01  7.05703955899E+01  4.75000000000E+00  0.00000000000E+00  1.
       24    2    4    4    0    0  6.09933611477E+01 -5.37230249013E+01 -1.84730737202E+01  1.15618614687E+02  8.01252525785E+01  0.00000000000E+00  1.
      -13    1    7    7    0    0 -8.19922287557E+00 -2.86733672926E+01 -2.86210992558E+01  4.13348247161E+01  1.05660000011E-01  0.00000000000E+00  1.
       14    1    7    7    0    0  6.91925840233E+01 -2.50496576087E+01  1.01480255356E+01  7.42837899707E+01  2.20134083183E-06  0.00000000000E+00  1.
</event>
<event>
 9 110   1.0000000E+00   7.4550000E+01   7.8125000E-03   1.3429423E-01
        2   -1    0    0  502    0  0.00000000000E+00  0.00000000000E+00  3.38923382565E+03  3.38923382565E+03  0.00000000000E+00  0.00000000000E+00  1.
        5   -1    0    0  501    0  0.00000000000E+00  0.00000000000E+00 -6.25200339469E+02  6.25200339469E+02  0.00000000000E+00  0.00000000000E+00  1.
       25    1    1    2    0    0 -2.14737173919E+02 -3.11411873645E+02 -3.78496140742E+02  5.49521371255E+02  1.25000000000E+02  0.00000000000E+00  1.
        6    2    1    2  501    0  1.46750053867E+02 -8.40290347111E+01 -5.03034366584E+01  2.46966440615E+02  1.72816463526E+02  0.00000000000E+00  1.
        1    1    1    2  502    0  6.79871200516E+01  3.95440908356E+02  3.19283306358E+03  3.21794635325E+03  0.00000000000E+00  0.00000000000E+00  1.
        5    1    4    4  501    0 -1.61226721332E+00 -1.78023445981E+01  3.99207265086E+01  4.39971565414E+01  4.75000000000E+00  0.00000000000E+00  1.
       24    2    4    4    0    0  1.48362321081E+02 -6.62266901131E+01 -9.02241631670E+01  2.02969284073E+02  8.16013349045E+01  0.00000000000E+00  1.
       -3    1    7    7    0  703 -5.24081608503E+00  8.11992240600E+00  5.47386281464E-01  9.67982049719E+00  1.15767254618E-06  0.00000000000E+00  1.
        4    1    7    7  703    0  1.53603137166E+02 -7.43466125191E+01 -9.07715494484E+01  1.93289463576E+02  1.34869915235E-06  0.00000000000E+00  1.
</event>
<event>
 9 110   1.0000000E+00   7.4550000E+01   7.8125000E-03   1.3429423E-01
        2   -1    0    0  502    0  0.00000000000E+00  0.00000000000E+00  2.44659786205E+03  2.44659786205E+03  0.00000000000E+00  0.00000000000E+00  1.
        5   -1    0    0  501    0  0.00000000000E+00  0.00000000000E+00 -6.01250267131E+01  6.01250267131E+01  0.00000000000E+00  0.00000000000E+00  1.
       25    1    1    2    0    0 -7.16040341478E+01 -1.82152711091E+02  1.84673755793E+03  1.86128218058E+03  1.25000000000E+02  0.00000000000E+00  1.
        6    2    1    2  501    0 -3.33827946470E+01  1.52531398063E+02  3.00549951404E+02  3.82554275327E+02  1.77868664775E+02  0.00000000000E+00  1.
        1    1    1    2  502    0  1.04986828795E+02  2.96213130277E+01  2.39185325999E+02  2.62886432855E+02  6.03156597170E-06  0.00000000000E+00  1.
        5    1    4    4  501    0  4.47882558977E+01  5.98460023411E+01  1.76229243369E+02  1.91485875669E+02  4.75000000000E+00  0.00000000000E+00  1.
       24    2    4    4    0    0 -7.81710505447E+01  9.26853957219E+01  1.24320708035E+02  1.91068399658E+02  7.96881369974E+01  0.00000000000E+00  1.
       -1    1    7    7    0  703 -2.23606150751E+01  2.44616960420E+01 -6.05742841123E+00  3.36907126482E+01  8.38711695640E-07  0.00000000000E+00  1.
        2    1    7    7  703    0 -5.58104354696E+01  6.82236996800E+01  1.30378136446E+02  1.57377687010E+02  2.69739830470E-06  0.00000000000E+00  1.
</event>
<event>
 9 110   1.0000000E+00   7.4550000E+01   7.8125000E-03   1.3429423E-01
        5   -1    0    0  501    0  0.00000000000E+00  0.00000000000E+00  1.22474311842E+02  1.22474311842E+02  0.00000000000E+00  0.00000000000E+00  1.
       -1   -1    0    0    0  502  0.00000000000E+00  0.00000000000E+00 -1.02832450259E+03  1.02832450259E+03  0.00000000000E+00  0.00000000000E+00  1.
       25    1    1    2    0    0  6.79238961184E+01  7.14780249823E+01 -2.66564439866E+02  3.10490522110E+02  1.25000000000E+02  0.00000000000E+00  1.
        6    2    1    2  501    0 -1.18313609658E+02 -1.94845410484E+01 -1.49500763185E+01  2.11788220936E+02  1.73933861497E+02  0.00000000000E+00  1.
       -2    1    1    2    0  502  5.03897135398E+01 -5.19934839339E+01 -6.24335674564E+02  6.28520071386E+02  1.07895932188E-05  0.00000000000E+00  1.
        5    1    4    4  501    0 -5.80878368621E+01 -7.31563701205E+01 -6.34015529323E+00  9.37486605220E+01  4.75000000000E+00  0.00000000000E+00  1.
       24    2    4    4    0    0 -6.02257727961E+01  5.36718290721E+01 -8.60992102528E+00  1.18039560414E+02  8.57402947155E+01  0.00000000000E+00  1.
      -11    1    7    7    0    0 -3.39372687618E+01  6.32230279242E+01  2.34531634063E+01  7.54913262895E+01  5.11003380998E-04  0.00000000000E+00  1.
       12    1    7    7    0    0 -2.62885040343E+01 -9.55119885214E+00 -3.20630844316E+01  4.25482341248E+01  1.84678237257E-06  0.00000000000E+00  1.
</event>
<event>
 9 110   1.0000000E+00   7.4550000E+01   7.8125000E-03   1.3429423E-01
        5   -1    0    0  501    0  0.00000000000E+00  0.00000000000E+00  1.68687301000E+02  1.68687301000E+02  0.00000000000E+00  0.00000000000E+00  1.
        2   -1    0    0  502    0  0.00000000000E+00  0.00000000000E+00 -9.50923127626E+02  9.50923127626E+02  0.00000000000E+00  0.00000000000E+00  1.
       25    1    1    2    0    0  6.81436966547E+01 -3.06732195441E+02 -2.84822772748E+02  4.42128052706E+02  1.25000000000E+02  0.00000000000E+00  1.
        6    2    1    2  501    0 -3.98613555405E+00  3.21864589725E+02 -3.10172098676E+02  4.78977067910E+02  1.72045335277E+02  0.00000000000E+00  1.
        1    1    1    2  502    0 -6.41575611006E+01 -1.51323942843E+01 -1.87240955201E+02  1.98505308009E+02  4.67203091199E-06  0.00000000000E+00  1.
        5    1    4    4  501    0 -2.81760531996E+01  2.58134400811E+02 -2.48504377083E+02  3.59449922500E+02  4.74999999999E+00  0.00000000000E+00  1.
       24    2    4    4    0    0  2.41899176456E+01  6.37301889144E+01 -6.16677215933E+01  1.19527145410E+02  7.64011878739E+01  0.00000000000E+00  1.
      -15    1    7    7    0    0  2.21454211641E+01 -1.34800648386E+00 -4.81258655423E+01  5.30235113177E+01  1.77680000000E+00  0.00000000000E+00  1.
       16    1    7    7    0    0  2.04449648149E+00  6.50781953982E+01 -1.35418560509E+01  6.65036340921E+01  6.74349576174E-07  0.00000000000E+00  1.
</event>
<event>
 9 110   1.0000000E+00   7.4550000E+01   7.8125000E-03   1.3429423E-01
        5   -1    0    0  501    0  0.00000000000E+00  0.00000000000E+00  9.27205955233E+02  9.27205955233E+02  0.00000000000E+00  0.00000000000E+00  1.
        2   -1    0    0  502    0  0.00000000000E+00  0.00000000000E+00 -1.24771339465E+03  1.24771339465E+03  0.00000000000E+00  0.00000000000E+00  1.
       25    1    1    2    0    0 -5.48689113921E+02 -2.34752934252E+02 -7.64270150449E+02  9.77702688318E+02  1.25000000000E+02  0.00000000000E+00  1.
        6    2    1    2  501    0  1.59387694378E+01  4.90253028390E+02  1.88634556250E+02  5.53637915015E+02  1.74154726934E+02  0.00000000000E+00  1.
        1    1    1    2  502    0  5.32750344483E+02 -2.55500094138E+02  2.55128154781E+02  6.43578746552E+02  8.94625808682E-06  0.00000000000E+00  1.
        5    1    4    4  501    0 -4.44080101385E+01  1.10544928099E+02  7.53882257528E+00  1.19464006457E+02  4.75000000000E+00  0.00000000000E+00  1.
       24    2    4    4    0    0  6.03467795763E+01  3.79708100291E+02  1.81095733674E+02  4.34173908558E+02  8.88332307509E+01  0.00000000000E+00  1.
      -11    1    7    7    0    0  1.48632060139E+01  7.29867650038E+01  7.69030270164E+01  1.07061002813E+02  5.11011056420E-04  0.00000000000E+00  1.
       12    1    7    7    0    0  4.54835735624E+01  3.06721335287E+02  1.04192706658E+02  3.27112905745E+02  3.81469726562E-06  0.00000000000E+00  1.
</event>
<event>
 9 110   1.0000000E+00   7.4550000E+01   7.8125000E-03   1.3429423E-01
        5   -1    0    0  501    0  0.00000000000E+00  0.00000000000E+00  3.24216771037E+03  3.24216771037E+03  0.00000000000E+00  0.00000000000E+00  1.
        2   -1    0    0  502    0  0.00000000000E+00  0.00000000000E+00 -5.76536162072E+02  5.76536162072E+02  0.00000000000E+00  0.00000000000E+00  1.
       25    1    1    2    0    0  6.28104151446E+02 -6.48782716835E+02  1.21560350393E+01  9.11705329542E+02  1.25000000000E+02  0.00000000000E+00  1.
        6    2    1    2  501    0 -3.54245988942E+02  7.86883915138E+02  1.99864639505E+03  2.18390006538E+03  1.73653581944E+02  0.00000000000E+00  1.
        1    1    1    2  502    0 -2.73858162504E+02 -1.38101198304E+02  6.54829118203E+02  7.23098477518E+02  2.64289979182E-05  0.00000000000E+00  1.
        5    1    4    4  501    0 -5.78828137767E+01  2.18152673342E+02  6.57920911108E+02  6.95574220907E+02  4.75000000006E+00  0.00000000000E+00  1.
       24    2    4    4    0    0 -2.96363175165E+02  5.68731241797E+02  1.34072548394E+03  1.48832584447E+03  7.92631000962E+01  0.00000000000E+00  1.
       -3    1    7    7    0  703 -7.45794224067E+01  1.34361891598E+02  2.48831233901E+02  2.92458870827E+02  5.39479660939E-06  0.00000000000E+00  1.
        4    1    7    7  703    0 -2.21783752759E+02  4.34369350199E+02  1.09189425004E+03  1.19586697365E+03  2.15791864376E-05  0.00000000000E+00  1.
</event>
<event>
 9 110   1.0000000E+00   7.4550000E+01   7.8125000E-03   1.3429423E-01
        5   -1    0    0  501    0  0.00000000000E+00  0.00000000000E+00  8.30891178381E+01  8.30891178381E+01  0.00000000000E+00  0.00000000000E+00  1.
        2   -1    0    0  502    0  0.00000000000E+00  0.00000000000E+00 -2.16180313236E+03  2.16180313236E+03  0.00000000000E+00  0.00000000000E+00  1.
       25    1    1    2    0    0 -1.26271900210E+02  2.23306761214E+02 -3.18631602406E+02  4.27740108522E+02  1.25000000000E+02  0.00000000000E+00  1.
        6    2    1    2  501    0 -4.58739964793E+01 -7.05160632272E+01 -1.12749449417E+03  1.14399043669E+03  1.74336875364E+02  0.00000000000E+00  1.
        1    1    1    2  502    0  1.72145896690E+02 -1.52790697987E+02 -6.32587917941E+02  6.73161704989E+02  1.32144989591E-05  0.00000000000E+00  1.
        5    1    4    4  501    0 -3.63409321201E+01 -1.00286500424E+02 -5.79181931289E+02  5.88941692824E+02  4.74999999998E+00  0.00000000000E+00  1.
       24    2    4    4    0    0 -9.53306435914E+00  2.97704371965E+01 -5.48312562886E+02  5.55048743863E+02  8.03447770494E+01  0.00000000000E+00  1.
       -1    1    7    7    0  703 -1.38126217889E+01  4.07156343663E+01 -1.37436890316E+02  1.44005035406E+02  4.26496119976E-06  0.00000000000E+00  1.
        2    1    7    7  703    0  4.27955742975E+00 -1.09451971697E+01 -4.10875672570E+02  4.11043708457E+02  7.62939453125E-06  0.00000000000E+00  1.
</event>
<event>
 9 110   1.0000000E+00   7.4550000E+01   7.8125000E-03   1.3429423E-01
        5   -1    0    0  501    0  0.00000000000E+00  0.00000000000E+00  3.23223063599E+02  3.23223063599E+02  0.00000000000E+00  0.00000000000E+00  1.
        2   -1    0    0  502    0  0.00000000000E+00  0.00000000000E+00 -1.35754167082E+03  1.35754167082E+03  0.00000000000E+00  0.00000000000E+00  1.
       25    1    1    2    0    0 -4.59053184740E+02 -1.11456777741E+02 -1.64435397522E+02  5.15573893523E+02  1.25000000000E+02  0.00000000000E+00  1.
        6    2    1    2  501    0  4.52884665566E+02  1.94685212012E+01 -2.65472412334E+02  5.53788925670E+02  1.75279858686E+02  0.00000000000E+00  1.
        1    1    1    2  502    0  6.16851917390E+00  9.19882565401E+01 -6.04410797370E+02  6.11401915230E+02  7.62939453125E-06  0.00000000000E+00  1.
        5    1    4    4  501    0  2.02935847147E+02  7.04594649975E+01 -1.52888390292E+02  2.63713702054E+02  4.75000000000E+00  0.00000000000E+00  1.
       24    2    4    4    0    0  2.49948818419E+02 -5.09909437963E+01 -1.12584022042E+02  2.90075223616E+02  7.99623984014E+01  0.00000000000E+00  1.
       -1    1    7    7    0  703  6.35496691269E+00  9.55157197629E+00  5.45201337190E+00  1.27020699686E+01  2.76053814337E-06  0.00000000000E+00  1.
        2    1    7    7  703    0  2.43593851507E+02 -6.05425157726E+01 -1.18036035414E+02  2.77373153647E+02  4.04609745705E-06  0.00000000000E+00  1.
</event>
<event>
 9 110   1.0000000E+00   7.4550000E+01   7.8125000E-03   1.3429423E-01
        5   -1    0    0  501    0  0.00000000000E+00  0.00000000000E+00  1.31239237980E+02  1.31239237980E+02  0.00000000000E+00  0.00000000000E+00  1.
        2   -1    0    0  502    0  0.00000000000E+00  0.00000000000E+00 -1.74175185404E+03  1.74175185404E+03  0.00000000000E+00  0.00000000000E+00  1.
       25    1    1    2    0    0 -4.24322382080E+01 -3.27733822647E+02 -4.51303627506E+02  5.73157846972E+02  1.25000000000E+02  0.00000000000E+00  1.
        6    2    1    2  501    0  1.84837517975E+01 -6.67559854146E+01 -2.86172611463E+02  3.41507489164E+02  1.73016158015E+02  0.00000000000E+00  1.
        1    1    1    2  502    0  2.39484864105E+01  3.94489808061E+02 -8.73036377093E+02  9.58325755886E+02  1.52587890625E-05  0.00000000000E+00  1.
        5    1    4    4  501    0 -4.94022975326E+01  1.44208214146E+01 -6.52131605304E+01  8.32097704488E+01  4.75000000000E+00  0.00000000000E+00  1.
       24    2    4    4    0    0  6.78860493301E+01 -8.11768068292E+01 -2.20959450932E+02  2.58297718715E+02  8.18317962430E+01  0.00000000000E+00  1.
       -1    1    7    7    0  703  2.48137567569E+01  7.76418306213E+00 -1.54018763051E+01  3.02195773751E+01  1.60822124043E-06  0.00000000000E+00  1.
        2    1    7    7  703    0  4.30722925732E+01 -8.89409898913E+01 -2.05557574627E+02  2.28078141340E+02  3.81469726562E-06  0.00000000000E+00  1.
</event>
<event>
 9 110   1.0000000E+00   7.4550000E+01   7.8125000E-03   1.3429423E-01
        5   -1    0    0  501    0  0.00000000000E+00  0.00000000000E+00  1.29446464456E+03  1.29446464456E+03  0.00000000000E+00  0.00000000000E+00  1.
       -1   -1    0    0    0  502  0.00000000000E+00  0.00000000000E+00 -1.37061415109E+03  1.37061415109E+03  0.00000000000E+00  0.00000000000E+00  1.
       25    1    1    2    0    0  6.21975210264E+01 -3.42323562552E+02 -2.40653698094E+02  4.41127142110E+02  1.25000000000E+02  0.00000000000E+00  1.
        6    2    1    2  501    0  6.99845704140E+00  3.26693104022E+02  1.16450679875E+03  1.22143601327E+03  1.70447902805E+02  0.00000000000E+00  1.
       -2    1    1    2    0  502 -6.91959780678E+01  1.56304585302E+01 -1.00000260718E+03  1.00251564027E+03  3.73762472959E-05  0.00000000000E+00  1.
        5    1    4    4  501    0  3.00799895172E+01  2.42609443125E+02  6.79798404379E+02  7.22435174087E+02  4.75000000003E+00  0.00000000000E+00  1.
       24    2    4    4    0    0 -2.30815324758E+01  8.40836608976E+01  4.84708394369E+02  4.99000839184E+02  8.03541583466E+01  0.00000000000E+00  1.
      -15    1    7    7    0    0 -4.32939190325E+01  4.34682190561E+01  1.64167822625E+02  1.75265742507E+02  1.77679999999E+00  0.00000000000E+00  1.
       16    1    7    7    0    0  2.02123865567E+01  4.06154418415E+01  3.20540571744E+02  3.23735096677E+02  5.39479660939E-06  0.00000000000E+00  1.
</event>
<event>
 9 110   1.0000000E+00   7.4550000E+01   7.8125000E-03   1.3429423E-01
        5   -1    0    0  501    0  0.00000000000E+00  0.00000000000E+00  2.23870674716E+03  2.23870674716E+03  0.00000000000E+00  0.00000000000E+00  1.
        2   -1    0    0  502    0  0.00000000000E+00  0.00000000000E+00 -1.17849536971E+03  1.17849536971E+03  0.00000000000E+00  0.00000000000E+00  1.
       25    1    1    2    0    0 -2.23233919036E+02 -2.11050494880E+02 -7.27621889426E+02  7.99646364319E+02  1.25000000000E+02  0.00000000000E+00  1.
        6    2    1    2  501    0 -2.69056236993E+01  2.96885743628E+02  2.14529729448E+03  2.17290081691E+03  1.74162054101E+02  0.00000000000E+00  1.
        1    1    1    2  502    0  2.50139542735E+02 -8.58352487475E+01 -3.57464027596E+02  4.44654935644E+02  2.58725356412E-05  0.00000000000E+00  1.
        5    1    4    4  501    0 -3.25352433401E+01  5.98538210112E+01  1.94519057664E+02  2.06158308693E+02  4.75000000002E+00  0.00000000000E+00  1.
       24    2    4    4    0    0  5.62961964081E+00  2.37031922616E+02  1.95077823681E+03  1.96674250822E+03  7.95269731133E+01  0.00000000000E+00  1.
       -1    1    7    7    0  703  2.66169030961E+01  9.32347027405E+01  5.53560245543E+02  5.61987646457E+02  1.52587890625E-05  0.00000000000E+00  1.
        2    1    7    7  703    0 -2.09872834553E+01  1.43797219876E+02  1.39721799127E+03  1.40475486176E+03  0.00000000000E+00  0.00000000000E+00  1.
</event>
<event>
 9 110   1.0000000E+00   7.4550000E+01   7.8125000E-03   1.3429423E-01
        2   -1    0    0  502    0  0.00000000000E+00  0.00000000000E+00  1.07875898722E+03  1.07875898722E+03  0.00000000000E+00  0.00000000000E+00  1.
        5   -1    0    0  501    0  0.00000000000E+00  0.00000000000E+00 -1.05283596235E+03  1.05283596235E+03  0.00000000000E+00  0.00000000000E+00  1.
       25    1    1    2    0    0  8.48232345675E+01  2.13805730523E+02 -4.82071915032E+01  2.66189415341E+02  1.25000000000E+02  0.00000000000E+00  1.
        6    2    1    2  501    0 -1.38445340263E+02  1.92510695009E+00 -8.68890845523E+02  8.96538232870E+02  1.72158889656E+02  0.00000000000E+00  1.
        1    1    1    2  502    0  5.36221056951E+01 -2.15730837473E+02  9.43021061895E+02  9.68867301354E+02  4.03709611674E-05  0.00000000000E+00  1.
        5    1    4    4  501    0 -7.69489994814E+01  1.70271049553E+01 -1.40403829588E+02  1.61080317504E+02  4.74999999999E+00  0.00000000000E+00  1.
       24    2    4    4    0    0 -6.14963407812E+01 -1.51019980052E+01 -7.28487015935E+02  7.35457915366E+02  7.87092282739E+01  0.00000000000E+00  1.
       -3    1    7    7    0  703  1.19052525243E+01 -9.48637435788E+00 -3.62358626759E+01  3.93034868681E+01  7.10471364296E-06  0.00000000000E+00  1.
        4    1    7    7  703    0 -7.34015933055E+01 -5.61562364733E+00 -6.92251153259E+02  6.96154428498E+02  7.62939453125E-06  0.00000000000E+00  1.
</event>
<event>
 9 110   1.0000000E+00   7.4550000E+01   7.8125000E-03   1.3429423E-01
        5   -1    0    0  501    0  0.00000000000E+00  0.00000000000E+00  1.65019911352E+02  1.65019911352E+02  0.00000000000E+00  0.00000000000E+00  1.
        2   -1    0    0  502    0  0.00000000000E+00  0.00000000000E+00 -5.64781402179E+02  5.64781402179E+02  0.00000000000E+00  0.00000000000E+00  1.
       25    1    1    2    0    0  9.13718963318E+01 -1.35569365658E+02 -2.56121893897E+02  3.28559432793E+02  1.25000000000E+02  0.00000000000E+00  1.
        6    2    1    2  501    0 -2.75460075376E+01  2.12389764964E+02 -1.08553644388E+02  2.95382814543E+02  1.72043362629E+02  0.00000000000E+00  1.
        1    1    1    2  502    0 -6.38258887942E+01 -7.68203993056E+01 -3.50859525426E+01  1.05859066195E+02  3.60004159702E-06  0.00000000000E+00  1.
        5    1    4    4  501    0  2.08944648440E+01  1.68256829967E+02 -8.03865147559E+01  1.87700542744E+02  4.75000000000E+00  0.00000000000E+00  1.
       24    2    4    4    0    0 -4.84404723815E+01  4.41329349966E+01 -2.81671296317E+01  1.07682271799E+02  8.06714890909E+01  0.00000000000E+00  1.
      -13    1    7    7    0    0 -2.82481425272E+01 -1.67351987292E+00 -4.64479905301E+01  5.43892012566E+01  1.05660000004E-01  0.00000000000E+00  1.
       14    1    7    7    0    0 -2.01923298543E+01  4.58064548695E+01  1.82808608984E+01  5.32930705425E+01  8.25906184945E-07  0.00000000000E+00  1.
</event>
<event>
 9 110   1.0000000E+00   7.4550000E+01   7.8125000E-03   1.3429423E-01
        2   -1    0    0  502    0  0.00000000000E+00  0.00000000000E+00  8.13640379007E+02  8.13640379007E+02  0.00000000000E+00  0.00000000000E+00  1.
        5   -1    0    0  501    0  0.00000000000E+00  0.00000000000E+00 -5.15089692187E+02  5.15089692187E+02  0.00000000000E+00  0.00000000000E+00  1.
       25    1    1    2    0    0  1.23827793376E+01 -3.58506940390E+02  4.61050894806E+02  5.97388891036E+02  1.25000000000E+02  0.00000000000E+00  1.
        6    2    1    2  501    0  2.91254392402E+01  2.20342894300E+02 -3.78732634580E+02  4.71401382990E+02  1.71410539669E+02  0.00000000000E+00  1.
        1    1    1    2  502    0 -4.15082185778E+01  1.38164046090E+02  2.16232426593E+02  2.59939797168E+02  3.81469726562E-06  0.00000000000E+00  1.
        5    1    4    4  501    0  1.67313739687E+01  1.51762614523E+02 -1.29052316029E+02  1.99972230108E+02  4.75000000000E+00  0.00000000000E+00  1.
       24    2    4    4    0    0  1.23940652716E+01  6.85802797766E+01 -2.49680318551E+02  2.71429152882E+02  8.04776735154E+01  0.00000000000E+00  1.
       -3    1    7    7    0  703 -1.87250032064E+00 -1.41138453473E+01 -9.77295955229E+00  1.72689787292E+01  4.34746325703E-06  0.00000000000E+00  1.
        4    1    7    7  703    0  1.42665655922E+01  8.26941251239E+01 -2.39907358999E+02  2.54160174153E+02  3.81469726562E-06  0.00000000000E+00  1.
</event>
<event>
 9 110   1.0000000E+00   7.4550000E+01   7.8125000E-03   1.3429423E-01
        2   -1    0    0  502    0  0.00000000000E+00  0.00000000000E+00  7.98258750597E+02  7.98258750597E+02  0.00000000000E+00  0.00000000000E+00  1.
        5   -1    0    0  501    0  0.00000000000E+00  0.00000000000E+00 -2.11421542499E+02  2.11421542499E+02  0.00000000000E+00  0.00000000000E+00  1.
       25    1    1    2    0    0 -1.61194041540E+02 -1.77940734764E+02  4.53858259214E+02  5.28449376547E+02  1.25000000000E+02  0.00000000000E+00  1.
        6    2    1    2  501    0  2.29683754361E+00  7.12797379309E+01 -6.70767276319E+01  2.04378675472E+02  1.79402561564E+02  0.00000000000E+00  1.
        1    1    1    2  502    0  1.58897203996E+02  1.06660996833E+02  2.00055676516E+02  2.76852241077E+02  0.00000000000E+00  0.00000000000E+00  1.
        5    1    4    4  501    0 -1.69070843608E+01  1.01819859079E+02 -5.63118942811E+01  1.17672108599E+02  4.75000000000E+00  0.00000000000E+00  1.
       24    2    4    4    0    0  1.92039219044E+01 -3.05401211484E+01 -1.07648333508E+01  8.67065668735E+01  7.81067057662E+01  0.00000000000E+00  1.
       -1    1    7    7    0  703 -1.10515351025E+01  4.75094962480E+00 -3.30388080897E+01  3.51606426342E+01  1.43051147461E-06  0.00000000000E+00  1.
        2    1    7    7  703    0  3.02554570069E+01 -3.52910707732E+01  2.22739747389E+01  5.15459242393E+01  1.03924249257E-06  0.00000000000E+00  1.
</event>
<event>
 9 110   1.0000000E+00   7.4550000E+01   7.8125000E-03   1.3429423E-01
        2   -1    0    0  502    0  0.00000000000E+00  0.00000000000E+00  7.47924374416E+02  7.47924374416E+02  0.00000000000E+00  0.00000000000E+00  1.
        5   -1    0    0  501    0  0.00000000000E+00  0.00000000000E+00 -9.50691492809E+01  9.50691492809E+01  0.00000000000E+00  0.00000000000E+00  1.
       25    1    1    2    0    0  1.32691298460E+02 -1.12144129220E+02  3.05947632870E+02  3.73379485865E+02  1.25000000000E+02  0.00000000000E+00  1.
        6    2    1    2  501    0 -1.26639918769E+02  1.47339124933E+02  2.30751924079E+02  3.48092656293E+02  1.73711139934E+02  0.00000000000E+00  1.
        1    1    1    2  502    0 -6.05137969129E+00 -3.51949957128E+01  1.16155668186E+02  1.21521381539E+02  1.34869915235E-06  0.00000000000E+00  1.
        5    1    4    4  501    0 -4.82761854218E+01  6.34070976741E+01  1.35442769475E+00  7.98463968424E+01  4.75000000000E+00  0.00000000000E+00  1.
       24    2    4    4    0    0 -7.83637333474E+01  8.39320272590E+01  2.29397496384E+02  2.68246259451E+02  7.84052578473E+01  0.00000000000E+00  1.
      -13    1    7    7    0    0 -4.25082017536E+01  9.12408163629E+01  1.85918529423E+02  2.11417938060E+02  1.05659999987E-01  0.00000000000E+00  1.
       14    1    7    7    0    0 -3.58555315938E+01 -7.30878910391E+00  4.34789669615E+01  5.68283213907E+01  1.26159253648E-06  0.00000000000E+00  1.
</event>
<event>
 9 110   1.0000000E+00   7.4550000E+01   7.8125000E-03   1.3429423E-01
        5   -1    0    0  501    0  0.00000000000E+00  0.00000000000E+00  2.36677757993E+02  2.36677757993E+02  0.00000000000E+00  0.00000000000E+00  1.
        2   -1    0    0  502    0  0.00000000000E+00  0.00000000000E+00 -2.33768130677E+02  2.33768130677E+02  0.00000000000E+00  0.00000000000E+00  1.
       25    1    1    2    0    0 -4.10162860539E+01  6.24435300688E+01 -1.43723763147E+02  2.04604619357E+02  1.25000000000E+02  0.00000000000E+00  1.
        6    2    1    2  501    0  5.00456469421E+01 -6.18147172418E+01  1.60710617683E+02  2.49105287423E+02  1.72915920436E+02  0.00000000000E+00  1.
        1    1    1    2  502    0 -9.02936088817E+00 -6.28812826937E-01 -1.40772272195E+01  1.67359818896E+01  6.52936169511E-07  0.00000000000E+00  1.
        5    1    4    4  501    0  6.71750926933E+01  2.13275733922E+01  5.88956324789E+01  9.19707371409E+01  4.75000000000E+00  0.00000000000E+00  1.
       24    2    4    4    0    0 -1.71294457512E+01 -8.31422906341E+01  1.01814985204E+02  1.57134550282E+02  8.43736764432E+01  0.00000000000E+00  1.
       -3    1    7    7    0  703 -4.29549357280E+01 -1.37536655424E+01  4.59240445461E+01  6.43685302514E+01  1.34869915235E-06  0.00000000000E+00  1.
        4    1    7    7  703    0  2.58254899768E+01 -6.93886250916E+01  5.58909406581E+01  9.27660200305E+01  1.34869915235E-06  0.00000000000E+00  1.
</event>
<event>
 9 110   1.0000000E+00   7.4550000E+01   7.8125000E-03   1.3429423E-01
        5   -1    0    0  501    0  0.00000000000E+00  0.00000000000E+00  9.68172300565E+01  9.68172300565E+01  0.00000000000E+00  0.00000000000E+00  1.
        2   -1    0    0  502    0  0.00000000000E+00  0.00000000000E+00 -9.03073310458E+02  9.03073310458E+02  0.00000000000E+00  0.00000000000E+00  1.
       25    1    1    2    0    0  8.31214197439E+01  2.10427708621E+02 -4.81855834954E+02  5.46808043700E+02  1.25000000000E+02  0.00000000000E+00  1.
        6    2    1    2  501    0 -1.08453967874E+02 -1.54667489481E+02 -2.51073736979E+02  3.57543411213E+02  1.70631105169E+02  0.00000000000E+00  1.
        1    1    1    2  502    0  2.53325481305E+01 -5.57602191404E+01 -7.33265084690E+01  9.55390856018E+01  1.34869915235E-06  0.00000000000E+00  1.
        5    1    4    4  501    0 -7.15356587034E+01 -1.34348841605E+02 -1.03161952929E+02  1.83934533840E+02  4.75000000000E+00  0.00000000000E+00  1.
       24    2    4    4    0    0 -3.69183091711E+01 -2.03186478754E+01 -1.47911784050E+02  1.73608877373E+02  8.05378013009E+01  0.00000000000E+00  1.
      -11    1    7    7    0    0  3.14233464303E+00 -4.37983143257E+01 -6.23746966521E+01  7.62808585917E+01  5.11001712413E-04  0.00000000000E+00  1.
       12    1    7    7    0    0 -4.00606438141E+01  2.34796664503E+01 -8.55370873976E+01  9.73280187813E+01  1.34869915235E-06  0.00000000000E+00  1.
</event>
<event>
 9 110   1.0000000E+00   7.4550000E+01   7.8125000E-03   1.3429423E-01
       -1   -1    0    0    0  502  0.00000000000E+00  0.00000000000E+00  6.09447061729E+02  6.09447061729E+02  0.00000000000E+00  0.00000000000E+00  1.
        5   -1    0    0  501    0  0.00000000000E+00  0.00000000000E+00 -1.50984151499E+03  1.50984151499E+03  0.00000000000E+00  0.00000000000E+00  1.
       25    1    1    2    0    0 -2.12452544324E+02  2.35128911038E+02  8.33609499437E+01  3.50707479776E+02  1.25000000000E+02  0.00000000000E+00  1.
        6    2    1    2  501    0  2.95397314076E+02 -1.34491555459E+02 -1.33985307552E+03  1.38935390330E+03  1.72483196272E+02  0.00000000000E+00  1.
       -2    1    1    2    0  502 -8.29447697519E+01 -1.00637355579E+02  3.56097672314E+02  3.79227193638E+02  1.14440917969E-05  0.00000000000E+00  1.
        5    1    4    4  501    0  4.06719630920E+01 -8.21412000460E+01 -4.28859372715E+02  4.38570757567E+02  4.74999999999E+00  0.00000000000E+00  1.
       24    2    4    4    0    0  2.54725350984E+02 -5.23503554125E+01 -9.10993702804E+02  9.50783145738E+02  8.03336761588E+01  0.00000000000E+00  1.
       -3    1    7    7    0  703  2.45179335544E+01 -2.45423008495E+01 -6.61384113589E+01  7.46842892035E+01  1.29713730895E-05  0.00000000000E+00  1.
        4    1    7    7  703    0  2.30207417430E+02 -2.78080545631E+01 -8.44855291445E+02  8.76098856534E+02  1.86881236479E-05  0.00000000000E+00  1.
</event>
<event>
 9 110   1.0000000E+00   7.4550000E+01   7.8125000E-03   1.3429423E-01
        2   -1    0    0  502    0  0.00000000000E+00  0.00000000000E+00  8.16864132875E+02  8.16864132875E+02  0.00000000000E+00  0.00000000000E+00  1.
        5   -1    0    0  501    0  0.00000000000E+00  0.00000000000E+00 -2.36644327978E+02  2.36644327978E+02  0.00000000000E+00  0.00000000000E+00  1.
       25    1    1    2    0    0 -7.69650978865E+00 -1.37385855499E+02  2.89371904117E+02  3.43940704840E+02  1.25000000000E+02  0.00000000000E+00  1.
        6    2    1    2  501    0  4.77856728062E+01 -4.02408112579E+01 -1.49687623526E+02  2.32881358146E+02  1.67106399993E+02  0.00000000000E+00  1.
        1    1    1    2  502    0 -4.00891630175E+01  1.77626666757E+02  4.40535524308E+02  4.76686397867E+02  1.07895932188E-05  0.00000000000E+00  1.
        5    1    4    4  501    0  4.72680646966E+01  1.02608218771E+01  7.82352383660E+00  4.92272732434E+01  4.75000000000E+00  0.00000000000E+00  1.
       24    2    4    4    0    0  5.17608109615E-01 -5.05016331350E+01 -1.57511147363E+02  1.83654084902E+02  7.98021208379E+01  0.00000000000E+00  1.
      -13    1    7    7    0    0 -3.04123055248E+01 -1.01523301540E+00 -2.69641462773E+01  4.06572917680E+01  1.05660000010E-01  0.00000000000E+00  1.
       14    1    7    7    0    0  3.09299136344E+01 -4.94864001196E+01 -1.30547001086E+02  1.42996793134E+02  1.90734863281E-06  0.00000000000E+00  1.
</event>
<event>
 9 110   1.0000000E+00   7.4550000E+01   7.8125000E-03   1.3429423E-01
        2   -1    0    0  502    0  0.00000000000E+00  0.00000000000E+00  1.29535897727E+03  1.29535897727E+03  0.00000000000E+00  0.00000000000E+00  1.
        5   -1    0    0  501    0  0.00000000000E+00  0.00000000000E+00 -3.29547853390E+02  3.29547853390E+02  0.00000000000E+00  0.00000000000E+00  1.
       25    1    1    2    0    0  2.02748729440E+02 -9.90967339704E+01  5.79513842919E+02  6.34340999864E+02  1.25000000000E+02  0.00000000000E+00  1.
        6    2    1    2  501    0 -1.72446168812E+02  1.63752481270E+02 -2.27961517932E+02  3.72170744417E+02  1.73182138461E+02  0.00000000000E+00  1.
        1    1    1    2  502    0 -3.03025606282E+01 -6.46557472996E+01  6.14258798889E+02  6.18395086375E+02  1.07895932188E-05  0.00000000000E+00  1.
        5    1    4    4  501    0 -1.48429549480E+02  1.14982950704E+02 -1.97464848033E+02  2.72520345699E+02  4.75000000000E+00  0.00000000000E+00  1.
       24    2    4    4    0    0 -2.40166193322E+01  4.87695305655E+01 -3.04966698997E+01  9.96503987178E+01  7.77488904996E+01  0.00000000000E+00  1.
      -13    1    7    7    0    0  1.58497072472E+01  5.18830080307E+01 -2.31989400574E+01  5.90022179749E+01  1.05659999995E-01  0.00000000000E+00  1.
       14    1    7    7    0    0 -3.98663265793E+01 -3.11347746523E+00 -7.29772984225E+00  4.06481807429E+01  6.07850493621E-07  0.00000000000E+00  1.
</event>
<event>
 9 110   1.0000000E+00   7.4550000E+01   7.8125000E-03   1.3429423E-01
        5   -1    0    0  501    0  0.00000000000E+00  0.00000000000E+00  8.93537530238E+01  8.93537530238E+01  0.00000000000E+00  0.00000000000E+00  1.
        2   -1    0    0  502    0  0.00000000000E+00  0.00000000000E+00 -2.44791092749E+03  2.44791092749E+03  0.00000000000E+00  0.00000000000E+00  1.
       25    1    1    2    0    0 -3.33877982634E+02  8.22080786912E+01 -1.03019454898E+03  1.09323304206E+03  1.25000000000E+02  0.00000000000E+00  1.
        6    2    1    2  501    0  2.09242287152E+02 -1.89784729332E+02 -5.03276563835E+02  6.02679273822E+02  1.73592710585E+02  0.00000000000E+00  1.
        1    1    1    2  502    0  1.24635695482E+02  1.07576650641E+02 -8.25086061649E+02  8.41352364636E+02  1.07895932188E-05  0.00000000000E+00  1.
        5    1    4    4  501    0 -1.81789561882E+00 -5.82616197232E+01 -4.38993288709E+01  7.31261557350E+01  4.75000000000E+00  0.00000000000E+00  1.
       24    2    4    4    0    0  2.11060182771E+02 -1.31523109609E+02 -4.59377234964E+02  5.29553118087E+02  8.69156588864E+01  0.00000000000E+00  1.
       -3    1    7    7    0  703  1.18957239875E+02 -2.34530044776E+01 -2.01418827550E+02  2.35096602335E+02  0.00000000000E+00  0.00000000000E+00  1.
        4    1    7    7  703    0  9.21029428957E+01 -1.08070105131E+02 -2.57958407415E+02  2.94456515752E+02  0.00000000000E+00  0.00000000000E+00  1.
</event>
<event>
 9 110   1.0000000E+00   7.4550000E+01   7.8125000E-03   1.3429423E-01
        2   -1    0    0  502    0  0.00000000000E+00  0.00000000000E+00  2.33298909506E+03  2.33298909506E+03  0.00000000000E+00  0.00000000000E+00  1.
        5   -1    0    0  501    0  0.00000000000E+00  0.00000000000E+00 -5.85692251358E+02  5.85692251358E+02  0.00000000000E+00  0.00000000000E+00  1.
       25    1    1    2    0    0  4.67865641263E+01  5.77211932987E+01 -4.14576256751E+01  1.51209964834E+02  1.25000000000E+02  0.00000000000E+00  1.
        6    2    1    2  501    0 -1.63258448736E+02 -4.15455222072E+01 -4.59070486872E+02  5.16572808529E+02  1.66500459744E+02  0.00000000000E+00  1.
        1    1    1    2  502    0  1.16471884610E+02 -1.61756710915E+01  2.24782495625E+03  2.25089857305E+03  4.31583728752E-05  0.00000000000E+00  1.
        5    1    4    4  501    0 -7.00148971988E+01 -4.46685841535E+01 -7.18633482240E+01  1.09928483834E+02  4.75000000000E+00  0.00000000000E+00  1.
       24    2    4    4    0    0 -9.32435515372E+01  3.12306194632E+00 -3.87207138648E+02  4.06644324695E+02  8.20129573135E+01  0.00000000000E+00  1.
       -3    1    7    7    0  703 -1.45636966186E+01  3.00114995432E+01 -5.62079576757E+01  6.53615014370E+01  9.53674316406E-07  0.00000000000E+00  1.
        4    1    7    7  703    0 -7.86798549185E+01 -2.68884375969E+01 -3.30999180973E+02  3.41282823258E+02  6.60724947956E-06  0.00000000000E+00  1.
</event>
<event>
 9 110   1.0000000E+00   7.4550000E+01   7.8125000E-03   1.3429423E-01
        5   -1    0    0  501    0  0.00000000000E+00  0.00000000000E+00  1.94333077571E+02  1.94333077571E+02  0.00000000000E+00  0.00000000000E+00  1.
        2   -1    0    0  502    0  0.00000000000E+00  0.00000000000E+00 -1.00344420094E+03  1.00344420094E+03  0.00000000000E+00  0.00000000000E+00  1.
       25    1    1    2    0    0  1.66943427258E+02  6.30140109189E+01 -4.00086193841E+02  4.55559914807E+02  1.25000000000E+02  0.00000000000E+00  1.
        6    2    1    2  501    0 -2.30114471081E+02  1.16063597096E+02 -2.16802140709E+01  3.10829720090E+02  1.72399695003E+02  0.00000000000E+00  1.
        1    1    1    2  502    0  6.31710438226E+01 -1.79077608015E+02 -3.87344715459E+02  4.31387643615E+02  1.07895932188E-05  0.00000000000E+00  1.
        5    1    4    4  501    0 -1.90203931507E+02  5.79976441073E+01  9.38720256024E+00  1.99127959751E+02  4.75000000000E+00  0.00000000000E+00  1.
       24    2    4    4    0    0 -3.99105395740E+01  5.80659529891E+01 -3.10674166311E+01  1.11701760339E+02  8.09171973133E+01  0.00000000000E+00  1.
      -11    1    7    7    0    0 -2.37614704039E+01 -1.53569718439E+01 -2.22806358555E+01  3.60120923352E+01  5.11002602326E-04  0.00000000000E+00  1.
       12    1    7    7    0    0 -1.61490691700E+01  7.34229248331E+01 -8.78678077557E+00  7.56896680036E+01  2.19487579340E-06  0.00000000000E+00  1.
</event>
<event>
 9 110   1.0000000E+00   7.4550000E+01   7.8125000E-03   1.3429423E-01
        5   -1    0    0  501    0  0.00000000000E+00  0.00000000000E+00  2.62187807051E+02  2.62187807051E+02  0.00000000000E+00  0.00000000000E+00  1.
       -1   -1    0    0    0  502  0.00000000000E+00  0.00000000000E+00 -3.95275140394E+02  3.95275140394E+02  0.00000000000E+00  0.00000000000E+00  1.
       25    1    1    2    0    0 -6.49848059443E+01 -3.38143887007E+01 -1.63669960883E+02  2.18584752401E+02  1.25000000000E+02  0.00000000000E+00  1.
        6    2    1    2  501    0  1.09013834923E+02 -2.11415012178E+01  1.80503489995E+02  2.73243143714E+02  1.72479930450E+02  0.00000000000E+00  1.
       -2    1    1    2    0  502 -4.40290289790E+01  5.49558899185E+01 -1.49920862455E+02  1.65635051329E+02  7.13664510112E-06  0.00000000000E+00  1.
        5    1    4    4  501    0 -2.65388399533E+01  1.13464914316E+01 -2.82368842374E+00  2.93868781974E+01  4.75000000000E+00  0.00000000000E+00  1.
       24    2    4    4    0    0  1.35552674877E+02 -3.24879926494E+01  1.83327178418E+02  2.43856265517E+02  8.01687379992E+01  0.00000000000E+00  1.
       -3    1    7    7    0  703 -3.52664403009E-01  8.42681116416E+00  4.45925042615E+01  4.53831131026E+01  1.50789149292E-06  0.00000000000E+00  1.
        4    1    7    7  703    0  1.35905339280E+02 -4.09148038135E+01  1.38734674157E+02  1.98473152414E+02  0.00000000000E+00  0.00000000000E+00  1.
</event>
<event>
 9 110   1.0000000E+00   7.4550000E+01   7.8125000E-03   1.3429423E-01
        5   -1    0    0  501    0  0.00000000000E+00  0.00000000000E+00  5.89424410460E+02  5.89424410460E+02  0.00000000000E+00  0.00000000000E+00  1.
        2   -1    0    0  502    0  0.00000000000E+00  0.00000000000E+00 -1.70943714725E+03  1.70943714725E+03  0.00000000000E+00  0.00000000000E+00  1.
       25    1    1    2    0    0 -5.09676595753E+02 -5.87689439373E+02 -8.71122948028E+02  1.17457622145E+03  1.25000000000E+02  0.00000000000E+00  1.
        6    2    1    2  501    0 -9.20733230443E+01  6.99251414261E+01  1.28701328165E+02  2.45218851527E+02  1.73785013890E+02  0.00000000000E+00  1.
        1    1    1    2  502    0  6.01749918798E+02  5.17764297947E+02 -3.77591116923E+02  8.79066484733E+02  1.52587890625E-05  0.00000000000E+00  1.
        5    1    4    4  501    0  1.62857159368E+01  6.41933138253E+01  1.25914068944E+01  6.75804121845E+01  4.75000000000E+00  0.00000000000E+00  1.
       24    2    4    4    0    0 -1.08359038981E+02  5.73182760079E+00  1.16109921270E+02  1.77638439342E+02  7.93685462761E+01  0.00000000000E+00  1.
       -1    1    7    7    0  703 -4.85128579300E+01 -4.26544010459E+00  2.40734437665E+00  4.87594777533E+01  2.69459803701E-06  0.00000000000E+00  1.
        2    1    7    7  703    0 -5.98461810511E+01  9.99726770538E+00  1.13702576894E+02  1.28878961589E+02  2.69739830470E-06  0.00000000000E+00  1.
</event>
<event>
 9 110   1.0000000E+00   7.4550000E+01   7.8125000E-03   1.3429423E-01
        2   -1    0    0  502    0  0.00000000000E+00  0.00000000000E+00  1.86619506375E+03  1.86619506375E+03  0.00000000000E+00  0.00000000000E+00  1.
        5   -1    0    0  501    0  0.00000000000E+00  0.00000000000E+00 -3.41213328816E+02  3.41213328816E+02  0.00000000000E+00  0.00000000000E+00  1.
       25    1    1    2    0    0 -9.46081948075E+01  1.81440016307E+02  5.85693924088E+01  2.46833068630E+02  1.25000000000E+02  0.00000000000E+00  1.
        6    2    1    2  501    0  9.42044638315E+01 -9.96665329528E+01 -1.96256903399E+02  2.95896349803E+02  1.73867705163E+02  0.00000000000E+00  1.
        1    1    1    2  502    0  4.03730975925E-01 -8.17734833545E+01  1.66266924592E+03  1.66467897413E+03  2.15791864376E-05  0.00000000000E+00  1.
        5    1    4    4  501    0  4.27211150349E+00  3.73492522414E+01 -4.60998613507E+01  5.96739247599E+01  4.75000000000E+00  0.00000000000E+00  1.
       24    2    4    4    0    0  8.99323523280E+01 -1.37015785194E+02 -1.50157042048E+02  2.36222425043E+02  7.99546335696E+01  0.00000000000E+00  1.
       -1    1    7    7    0  703  1.44185450560E+01 -7.26917987488E+01 -1.01663269416E+02  1.25807044299E+02  1.90734863281E-06  0.00000000000E+00  1.
        2    1    7    7  703    0  7.55138072720E+01 -6.43239864454E+01 -4.84937726321E+01  1.10415380745E+02  9.53674316406E-07  0.00000000000E+00  1.
</event>
<event>
 9 110   1.0000000E+00   7.4550000E+01   7.8125000E-03   1.3429423E-01
        2   -1    0    0  502    0  0.00000000000E+00  0.00000000000E+00  2.23663296179E+03  2.23663296179E+03  0.00000000000E+00  0.00000000000E+00  1.
        5   -1    0    0  501    0  0.00000000000E+00  0.00000000000E+00 -2.70893679145E+02  2.70893679145E+02  0.00000000000E+00  0.00000000000E+00  1.
       25    1    1    2    0    0  2.78194568421E+02 -3.45622162357E+01  2.85498944851E+02  4.19191378968E+02  1.25000000000E+02  0.00000000000E+00  1.
        6    2    1    2  501    0 -2.99525543502E+02 -1.01675683154E+02 -3.92228158321E+01  3.63351403374E+02  1.74448609331E+02  0.00000000000E+00  1.
        1    1    1    2  502    0  2.13309750813E+01  1.36237899390E+02  1.71946315363E+03  1.72498385859E+03  3.05175781250E-05  0.00000000000E+00  1.
        5    1    4    4  501    0 -1.08041441101E+02 -7.40016020748E+01  4.14525668090E+01  1.37441143403E+02  4.75000000000E+00  0.00000000000E+00  1.
       24    2    4    4    0    0 -1.91484102400E+02 -2.76740810795E+01 -8.06753826411E+01  2.25910259971E+02  8.42313003597E+01  0.00000000000E+00  1.
      -15    1    7    7    0    0  1.11622774058E+00 -1.19168558166E+01 -1.99806632766E+01  2.33589670177E+01  1.77680000000E+00  0.00000000000E+00  1.
       16    1    7    7    0    0 -1.92600330141E+02 -1.57572252629E+01 -6.06947193645E+01  2.02551292954E+02  0.00000000000E+00  0.00000000000E+00  1.
</event>
<event>
 9 110   1.0000000E+00   7.4550000E+01   7.8125000E-03   1.3429423E-01
        5   -1    0    0  501    0  0.00000000000E+00  0.00000000000E+00  2.99472096099E+02  2.99472096099E+02  0.00000000000E+00  0.00000000000E+00  1.
        2   -1    0    0  502    0  0.00000000000E+00  0.00000000000E+00 -1.38042692554E+03  1.38042692554E+03  0.00000000000E+00  0.00000000000E+00  1.
       25    1    1    2    0    0  2.35800832495E+02 -3.70240602205E+02  4.48552813405E+01  4.58603458765E+02  1.25000000000E+02  0.00000000000E+00  1.
        6    2    1    2  501    0 -2.28588638718E+02  3.55079891149E+02 -1.08205887735E+03  1.17443370924E+03  1.73518380905E+02  0.00000000000E+00  1.
        1    1    1    2  502    0 -7.21219377694E+00  1.51607110562E+01 -4.37512334371E+01  4.68618536347E+01  8.25906184945E-07  0.00000000000E+00  1.
        5    1    4    4  501    0 -1.55726206381E+02  2.87470682032E+02 -7.30886787538E+02  8.00692264905E+02  4.75000000002E+00  0.00000000000E+00  1.
       24    2    4    4    0    0 -7.28624323370E+01  6.76092091171E+01 -3.51172089809E+02  3.73741444338E+02  8.05039834504E+01  0.00000000000E+00  1.
       -3    1    7    7    0  703  1.77401448054E+01  1.23896158195E+01 -6.69639876597E+01  7.03732261671E+01  9.53674316406E-07  0.00000000000E+00  1.
        4    1    7    7  703    0 -9.06025771423E+01  5.52195932976E+01 -2.84208102149E+02  3.03368218171E+02  5.39479660939E-06  0.00000000000E+00  1.
</event>
<event>
 9 110   1.0000000E+00   7.4550000E+01   7.8125000E-03   1.3429423E-01
        5   -1    0    0  501    0  0.00000000000E+00  0.00000000000E+00  2.91869943056E+02  2.91869943056E+02  0.00000000000E+00  0.00000000000E+00  1.
        2   -1    0    0  502    0  0.00000000000E+00  0.00000000000E+00 -7.54718006048E+02  7.54718006048E+02  0.00000000000E+00  0.00000000000E+00  1.
       25    1    1    2    0    0 -1.77610444940E+02 -2.58085038050E+01  8.40970724601E+01  2.34326410412E+02  1.25000000000E+02  0.00000000000E+00  1.
        6    2    1    2  501    0  7.68604279393E+01 -3.98297131342E+01  5.32924486515E+01  2.00098081093E+02  1.72352039566E+02  0.00000000000E+00  1.
        1    1    1    2  502    0  1.00750017000E+02  6.56382169392E+01 -6.00237584103E+02  6.12163457598E+02  7.62939453125E-06  0.00000000000E+00  1.
        5    1    4    4  501    0  6.78592873973E+01 -2.20021871431E+01  8.54224365170E+01  1.11393600739E+02  4.75000000000E+00  0.00000000000E+00  1.
       24    2    4    4    0    0  9.00114054199E+00 -1.78275259911E+01 -3.21299878655E+01  8.87044803540E+01  8.02328330587E+01  0.00000000000E+00  1.
      -15    1    7    7    0    0 -8.48676338764E-01  2.72629717480E+01  6.97707434928E+00  2.82103963952E+01  1.77680000000E+00  0.00000000000E+00  1.
       16    1    7    7    0    0  9.84981688075E+00 -4.50904977391E+01 -3.91070622148E+01  6.04940839588E+01  4.76837158203E-07  0.00000000000E+00  1.
</event>
<event>
 9 110   1.0000000E+00   7.4550000E+01   7.8125000E-03   1.3429423E-01
        5   -1    0    0  501    0  0.00000000000E+00  0.00000000000E+00  5.55705171367E+02  5.55705171367E+02  0.00000000000E+00  0.00000000000E+00  1.
       -1   -1    0    0    0  502  0.00000000000E+00  0.00000000000E+00 -5.67405040484E+02  5.67405040484E+02  0.00000000000E+00  0.00000000000E+00  1.
       25    1    1    2    0    0  4.18693565984E+01 -4.89867327024E+01 -4.63834357850E+02  4.84685521266E+02  1.25000000000E+02  0.00000000000E+00  1.
        6    2    1    2  501    0 -6.89667370177E+01  8.24102553790E+00  5.21763660030E+02  5.53320623858E+02  1.70593289851E+02  0.00000000000E+00  1.
       -2    1    1    2    0  502  2.70973804193E+01  4.07457071645E+01 -6.96291712973E+01  8.51040667270E+01  7.38712949029E-06  0.00000000000E+00  1.
        5    1    4    4  501    0 -1.06702658221E+01  3.93034055375E+00  3.80709273901E+02  3.80908671316E+02  4.74999999999E+00  0.00000000000E+00  1.
       24    2    4    4    0    0 -5.82964711956E+01  4.31068498416E+00  1.41054386128E+02  1.72411952542E+02  8.00779680954E+01  0.00000000000E+00  1.
      -13    1    7    7    0    0 -6.30444180307E+01 -2.21763062210E+01  1.23073482920E+02  1.40048136598E+02  1.05660000012E-01  0.00000000000E+00  1.
       14    1    7    7    0    0  4.74794683501E+00  2.64869912051E+01  1.79809032080E+01  3.23638159435E+01  0.00000000000E+00  0.00000000000E+00  1.
</event>
<event>
 9 110   1.0000000E+00   7.4550000E+01   7.8125000E-03   1.3429423E-01
        2   -1    0    0  502    0  0.00000000000E+00  0.00000000000E+00  2.43820173981E+03  2.43820173981E+03  0.00000000000E+00  0.00000000000E+00  1.
        5   -1    0    0  501    0  0.00000000000E+00  0.00000000000E+00 -2.43335811012E+02  2.43335811012E+02  0.00000000000E+00  0.00000000000E+00  1.
       25    1    1    2    0    0  3.45876483023E+02  2.15172673263E+02  1.90395444942E+03  1.95105032388E+03  1.25000000000E+02  0.00000000000E+00  1.
        6    2    1    2  501    0 -1.78870006649E+02 -2.88619335313E+02 -7.43695562680E+00  3.80776826776E+02  1.72162956252E+02  0.00000000000E+00  1.
        1    1    1    2  502    0 -1.67006476374E+02  7.34466620495E+01  2.98348435002E+02  3.49710400168E+02  0.00000000000E+00  0.00000000000E+00  1.
        5    1    4    4  501    0 -1.35739736806E+02 -9.41990110910E+01  3.16616713743E+00  1.65321858667E+02  4.75000000000E+00  0.00000000000E+00  1.
       24    2    4    4    0    0 -4.31302698423E+01 -1.94420324222E+02 -1.06031227642E+01  2.15454968108E+02  8.15409984184E+01  0.00000000000E+00  1.
       -1    1    7    7    0  703  1.22458076259E+01 -7.54667328172E+00 -1.46170913916E+01  2.05078385692E+01  3.00161321450E-06  0.00000000000E+00  1.
        2    1    7    7  703    0 -5.53760774682E+01 -1.86873650940E+02  4.01396862733E+00  1.94947129539E+02  1.20984215320E-06  0.00000000000E+00  1.
</event>
<event>
 9 110   1.0000000E+00   7.4550000E+01   7.8125000E-03   1.3429423E-01
        2   -1    0    0  502    0  0.00000000000E+00  0.00000000000E+00  1.20357597764E+03  1.20357597764E+03  0.00000000000E+00  0.00000000000E+00  1.
        5   -1    0    0  501    0  0.00000000000E+00  0.00000000000E+00 -2.26324072696E+02  2.26324072696E+02  0.00000000000E+00  0.00000000000E+00  1.
       25    1    1    2    0    0 -1.24904388818E+02  1.43644651544E+02  1.49343612950E+02  2.72329592575E+02  1.25000000000E+02  0.00000000000E+00  1.
        6    2    1    2  501    0 -3.38510722505E+01 -1.57396279734E+02 -7.11189562361E+01  2.44530263268E+02  1.69757650053E+02  0.00000000000E+00  1.
        1    1    1    2  502    0  1.58755461069E+02  1.37516281898E+01  8.99027248234E+02  9.13040194496E+02  1.07895932188E-05  0.00000000000E+00  1.
        5    1    4    4  501    0 -5.18526861399E+01 -1.45581735811E+02 -5.00890921497E+01  1.62524528961E+02  4.75000000000E+00  0.00000000000E+00  1.
       24    2    4    4    0    0  1.80016138894E+01 -1.18145439225E+01 -2.10298640864E+01  8.20057343071E+01  7.62826567775E+01  0.00000000000E+00  1.
       -1    1    7    7    0  703 -1.39764243097E+01 -5.00458452126E+00  2.28716320471E+01  2.72671570798E+01  6.74349576174E-07  0.00000000000E+00  1.
        4    1    7    7  703    0  3.19780381991E+01 -6.80995940120E+00 -4.39014961335E+01  5.47385772273E+01  1.06624029994E-06  0.00000000000E+00  1.
</event>
<event>
 9 110   1.0000000E+00   7.4550000E+01   7.8125000E-03   1.3429423E-01
        5   -1    0    0  501    0  0.00000000000E+00  0.00000000000E+00  1.06121167889E+02  1.06121167889E+02  0.00000000000E+00  0.00000000000E+00  1.
        2   -1    0    0  502    0  0.00000000000E+00  0.00000000000E+00 -5.09712981435E+02  5.09712981435E+02  0.00000000000E+00  0.00000000000E+00  1.
       25    1    1    2    0    0  1.31402778827E+02  4.61222663206E+01 -6.58589570309E+01  1.98384364190E+02  1.25000000000E+02  0.00000000000E+00  1.
        6    2    1    2  501    0 -1.45981656419E+02 -3.96847669324E+01 -3.08968710564E+02  3.84565728776E+02  1.71882549737E+02  0.00000000000E+00  1.
        1    1    1    2  502    0  1.45788775918E+01 -6.43749938818E+00 -2.87641459517E+01  3.28840563578E+01  1.01152436426E-06  0.00000000000E+00  1.
        5    1    4    4  501    0 -1.27130190287E+02 -6.26144464584E+01 -1.98359214827E+02  2.43826977167E+02  4.75000000000E+00  0.00000000000E+00  1.
       24    2    4    4    0    0 -1.88514661315E+01  2.29296795260E+01 -1.10609495737E+02  1.40738751608E+02  8.18033476003E+01  0.00000000000E+00  1.
       -1    1    7    7    0  703  6.22667732014E+00  3.29271866621E+01 -7.75000141021E+00  3.43952562686E+01  1.17104546454E-06  0.00000000000E+00  1.
        2    1    7    7  703    0 -2.50781434517E+01 -9.99750713611E+00 -1.02859494326E+02  1.06343495339E+02  0.00000000000E+00  0.00000000000E+00  1.
</event>
<event>
 9 110   1.0000000E+00   7.4550000E+01   7.8125000E-03   1.3429423E-01
        5   -1    0    0  501    0  0.00000000000E+00  0.00000000000E+00  9.79320117841E+02  9.79320117841E+02  0.00000000000E+00  0.00000000000E+00  1.
        2   -1    0    0  502    0  0.00000000000E+00  0.00000000000E+00 -7.39141123659E+01  7.39141123659E+01  0.00000000000E+00  0.00000000000E+00  1.
       25    1    1    2    0    0  1.80766700677E+01  2.13994980177E+02  5.24498308816E+02  5.80382712951E+02  1.25000000000E+02  0.00000000000E+00  1.
        6    2    1    2  501    0 -1.60616376535E+01 -2.00428928023E+02  3.53508394745E+02  4.42211349631E+02  1.73646080275E+02  0.00000000000E+00  1.
        1    1    1    2  502    0 -2.01503241420E+00 -1.35660521542E+01  2.73993019143E+01  3.06401676248E+01  4.76837158203E-07  0.00000000000E+00  1.
        5    1    4    4  501    0 -2.51402712936E+00 -1.45091849705E+02  1.07558924232E+02  1.80691587699E+02  4.75000000000E+00  0.00000000000E+00  1.
       24    2    4    4    0    0 -1.35476105241E+01 -5.53370783176E+01  2.45949470513E+02  2.61519761932E+02  6.82327915862E+01  0.00000000000E+00  1.
       -3    1    7    7    0  703 -2.37810178331E+00  6.43452203438E+00 -8.03929119660E-01  6.90686209013E+00  6.14241517299E-06  0.00000000000E+00  1.
        4    1    7    7  703    0 -1.11695087408E+01 -6.17716003519E+01  2.46753399633E+02  2.54612899842E+02  6.60724947956E-06  0.00000000000E+00  1.
</event>
<event>
 9 110   1.0000000E+00   7.4550000E+01   7.8125000E-03   1.3429423E-01
        2   -1    0    0  502    0  0.00000000000E+00  0.00000000000E+00  2.86887520100E+03  2.86887520100E+03  0.00000000000E+00  0.00000000000E+00  1.
        5   -1    0    0  501    0  0.00000000000E+00  0.00000000000E+00 -1.45640875553E+02  1.45640875553E+02  0.00000000000E+00  0.00000000000E+00  1.
       25    1    1    2    0    0 -3.67598808470E+01 -2.95314396748E+02  2.41736849506E+03  2.43882293795E+03  1.25000000000E+02  0.00000000000E+00  1.
        6    2    1    2  501    0  4.57070787935E+01  8.51188103904E+01 -6.87598462201E+00  1.98771820910E+02  1.73575945019E+02  0.00000000000E+00  1.
        1    1    1    2  502    0 -8.94719794653E+00  2.10195586358E+02  3.12741815011E+02  3.76921317694E+02  8.52992239952E-06  0.00000000000E+00  1.
        5    1    4    4  501    0  8.73127510351E+01  5.22449939044E+01 -8.51328574406E+00  1.02215920558E+02  4.75000000000E+00  0.00000000000E+00  1.
       24    2    4    4    0    0 -4.16056722415E+01  3.28738164860E+01  1.63730112205E+00  9.65559003522E+01  8.06761511528E+01  0.00000000000E+00  1.
       -3    1    7    7    0  703  4.47780294059E+00  4.28654007110E+00 -3.20965774062E+01  3.26896837879E+01  1.16800772800E-06  0.00000000000E+00  1.
        4    1    7    7  703    0 -4.60834751821E+01  2.85872764149E+01  3.37338785283E+01  6.38662165643E+01  1.43051147461E-06  0.00000000000E+00  1.
</event>
<event>
 9 110   1.0000000E+00   7.4550000E+01   7.8125000E-03   1.3429423E-01
        2   -1    0    0  502    0  0.00000000000E+00  0.00000000000E+00  1.61605623609E+03  1.61605623609E+03  0.00000000000E+00  0.00000000000E+00  1.
        5   -1    0    0  501    0  0.00000000000E+00  0.00000000000E+00 -1.80365367920E+02  1.80365367920E+02  0.00000000000E+00  0.00000000000E+00  1.
       25    1    1    2    0    0 -1.62263540141E+02 -1.07963056943E+02  9.58300537912E+02  9.85875448059E+02  1.25000000000E+02  0.00000000000E+00  1.
        6    2    1    2  501    0 -1.69776520606E+02  1.94618984146E+02  2.07298594270E+02  3.73843284986E+02  1.73451660711E+02  0.00000000000E+00  1.
        1    1    1    2  502    0  3.32040060747E+02 -8.66559272034E+01  2.70091735987E+02  4.36702870964E+02  3.81469726562E-06  0.00000000000E+00  1.
        5    1    4    4  501    0 -1.12054522034E+02  1.76222964015E+02  1.46677735887E+02  2.55240415411E+02  4.75000000000E+00  0.00000000000E+00  1.
       24    2    4    4    0    0 -5.77219985717E+01  1.83960201312E+01  6.06208583834E+01  1.18602869575E+02  8.19848127667E+01  0.00000000000E+00  1.
       -3    1    7    7    0  703 -3.85008815237E+01  3.52272133905E+01 -6.81680991266E-01  5.21894542062E+01  1.48264681862E-06  0.00000000000E+00  1.
        4    1    7    7  703    0 -1.92211170480E+01 -1.68311932593E+01  6.13025393747E+01  6.64134153683E+01  0.00000000000E+00  0.00000000000E+00  1.
</event>
<event>
 9 110   1.0000000E+00   7.4550000E+01   7.8125000E-03   1.3429423E-01
        5   -1    0    0  501    0  0.00000000000E+00  0.00000000000E+00  4.46361734115E+02  4.46361734115E+02  0.00000000000E+00  0.00000000000E+00  1.
       -1   -1    0    0    0  502  0.00000000000E+00  0.00000000000E+00 -9.15195773631E+02  9.15195773631E+02  0.00000000000E+00  0.00000000000E+00  1.
       25    1    1    2    0    0  2.42447519378E+02  6.36340684788E+01 -7.65384386248E+00  2.80202918703E+02  1.25000000000E+02  0.00000000000E+00  1.
        6    2    1    2  501    0 -2.87583141849E+01  2.67380990905E+01  2.65399807098E+02  3.18630061127E+02  1.71889766037E+02  0.00000000000E+00  1.
       -2    1    1    2    0  502 -2.13689205193E+02 -9.03721675693E+01 -7.26580002751E+02  7.62724527916E+02  1.07895932188E-05  0.00000000000E+00  1.
        5    1    4    4  501    0  4.22948623691E+01 -1.46910605226E+01  1.48705815761E+02  1.55372664208E+02  4.75000000000E+00  0.00000000000E+00  1.
       24    2    4    4    0    0 -7.10531765539E+01  4.14291596131E+01  1.16693991337E+02  1.63257396919E+02  7.91868730901E+01  0.00000000000E+00  1.
      -13    1    7    7    0    0 -2.05315292578E+01  2.42973883822E+01 -3.25841866322E+00  3.19771048108E+01  1.05659999999E-01  0.00000000000E+00  1.
       14    1    7    7    0    0 -5.05216472962E+01  1.71317712309E+01  1.19952410000E+02  1.31280292108E+02  2.33601545599E-06  0.00000000000E+00  1.
</event>
<event>
 9 110   1.0000000E+00   7.4550000E+01   7.8125000E-03   1.3429423E-01
        5   -1    0    0  501    0  0.00000000000E+00  0.00000000000E+00  1.01650075747E+03  1.01650075747E+03  0.00000000000E+00  0.00000000000E+00  1.
        2   -1    0    0  502    0  0.00000000000E+00  0.00000000000E+00 -3.49201031657E+02  3.49201031657E+02  0.00000000000E+00  0.00000000000E+00  1.
       25    1    1    2    0    0  5.89859288755E+01  3.33665683496E+02 -1.45671830778E+02  3.89432164093E+02  1.25000000000E+02  0.00000000000E+00  1.
        6    2    1    2  501    0 -3.08431136943E+01 -3.70662283718E+02  8.30715583606E+02  9.26514052797E+02  1.73199546625E+02  0.00000000000E+00  1.
        1    1    1    2  502    0 -2.81428151812E+01  3.69966002221E+01 -1.77440270112E+01  4.97555722396E+01  4.31135685921E-06  0.00000000000E+00  1.
        5    1    4    4  501    0 -6.87014854678E+01 -1.15221238960E+02  2.10910221180E+02  2.50003023804E+02  4.75000000000E+00  0.00000000000E+00  1.
       24    2    4    4    0    0  3.78583717736E+01 -2.55441044758E+02  6.19805362426E+02  6.76511028993E+02  8.26141718871E+01  0.00000000000E+00  1.
       -1    1    7    7    0  703  1.65402457294E+01 -2.47752768984E+02  5.61264575442E+02  6.13736863741E+02  7.62939453125E-06  0.00000000000E+00  1.
        2    1    7    7  703    0  2.13181260442E+01 -7.68827577381E+00  5.85407869837E+01  6.27741652519E+01  6.21719589730E-06  0.00000000000E+00  1.
</event>
<event>
 9 110   1.0000000E+00   7.4550000E+01   7.8125000E-03   1.3429423E-01
        5   -1    0    0  501    0  0.00000000000E+00  0.00000000000E+00  6.66855328786E+02  6.66855328786E+02  0.00000000000E+00  0.00000000000E+00  1.
        2   -1    0    0  502    0  0.00000000000E+00  0.00000000000E+00 -1.02064130657E+03  1.02064130657E+03  0.00000000000E+00  0.00000000000E+00  1.
       25    1    1    2    0    0 -2.15417480731E+02 -3.34689231070E+02 -7.35247932374E+02  8.45361517021E+02  1.25000000000E+02  0.00000000000E+00  1.
        6    2    1    2  501    0  1.02046456289E+02  4.10283281273E+02  4.88811811229E+02  6.68666270040E+02  1.71556823702E+02  0.00000000000E+00  1.
        1    1    1    2  502    0  1.13371024442E+02 -7.55940502027E+01 -1.07349856641E+02  1.73468848299E+02  5.22348935609E-06  0.00000000000E+00  1.
        5    1    4    4  501    0 -2.10694209004E+01  1.55422507105E+01  4.92725459694E+00  2.70614558383E+01  4.75000000000E+00  0.00000000000E+00  1.
       24    2    4    4    0    0  1.23115877189E+02  3.94741030562E+02  4.83884556632E+02  6.41604814201E+02  8.08360874478E+01  0.00000000000E+00  1.
       -3    1    7    7    0  703 -1.48891341090E+00  7.95769188709E+01  6.47817582819E+01  1.02622507698E+02  6.10649513000E-06  0.00000000000E+00  1.
        4    1    7    7  703    0  1.24604790600E+02  3.15164111691E+02  4.19102798350E+02  5.38982306503E+02  5.39479660939E-06  0.00000000000E+00  1.
</event>
<event>
 9 110   1.0000000E+00   7.4550000E+01   7.8125000E-03   1.3429423E-01
        5   -1    0    0  501    0  0.00000000000E+00  0.00000000000E+00  3.54542859325E+02  3.54542859325E+02  0.00000000000E+00  0.00000000000E+00  1.
        2   -1    0    0  502    0  0.00000000000E+00  0.00000000000E+00 -5.84369586548E+02  5.84369586548E+02  0.00000000000E+00  0.00000000000E+00  1.
       25    1    1    2    0    0 -3.22920681093E+02 -6.88474444620E+00 -4.95854814120E+01  3.49869812859E+02  1.25000000000E+02  0.00000000000E+00  1.
        6    2    1    2  501    0  1.71731884832E+01 -2.88969569794E+01  6.92022811916E+01  1.92830653692E+02  1.76818417468E+02  0.00000000000E+00  1.
        1    1    1    2  502    0  3.05747492609E+02  3.57817014257E+01 -2.49443527002E+02  3.96211979321E+02  3.81469726562E-06  0.00000000000E+00  1.
        5    1    4    4  501    0 -5.30163684003E+01 -4.80127557474E+01  3.10189181049E+01  7.81069511197E+01  4.75000000000E+00  0.00000000000E+00  1.
       24    2    4    4    0    0  7.01895568836E+01  1.91157987680E+01  3.81833630867E+01  1.14723702573E+02  8.00722864498E+01  0.00000000000E+00  1.
      -11    1    7    7    0    0  3.38759516406E+01  2.53190963196E+01  5.88597547681E+01  7.24783241364E+01  5.11001712413E-04  0.00000000000E+00  1.
       12    1    7    7    0    0  3.63136052430E+01 -6.20329755166E+00 -2.06763916814E+01  4.22453784362E+01  1.90734863281E-06  0.00000000000E+00  1.
</event>
<event>
 9 110   1.0000000E+00   7.4550000E+01   7.8125000E-03   1.3429423E-01
        5   -1    0    0  501    0  0.00000000000E+00  0.00000000000E+00  7.24890660263E+02  7.24890660263E+02  0.00000000000E+00  0.00000000000E+00  1.
        2   -1    0    0  502    0  0.00000000000E+00  0.00000000000E+00 -8.10777669918E+02  8.10777669918E+02  0.00000000000E+00  0.00000000000E+00  1.
       25    1    1    2    0    0 -2.27640991678E+02 -1.53115127342E+02  1.82506853487E+02  3.52417954824E+02  1.25000000000E+02  0.00000000000E+00  1.
        6    2    1    2  501    0  2.24691129969E+02 -3.19336236986E+01  3.98852792484E+02  4.90812767056E+02  1.74091246259E+02  0.00000000000E+00  1.
        1    1    1    2  502    0  2.94986170826E+00  1.85048751040E+02 -6.67246655626E+02  6.92437608301E+02  1.70598447990E-05  0.00000000000E+00  1.
        5    1    4    4  501    0  1.95910504144E+02 -3.54763632278E+01  2.64637933394E+02  3.31202802333E+02  4.75000000000E+00  0.00000000000E+00  1.
       24    2    4    4    0    0  2.87806258248E+01  3.54273952923E+00  1.34214859090E+02  1.59609964723E+02  8.13685259317E+01  0.00000000000E+00  1.
      -11    1    7    7    0    0  2.72849190562E+00  1.21296412623E+01  1.31453949721E+02  1.32040576198E+02  5.11009276622E-04  0.00000000000E+00  1.
       12    1    7    7    0    0  2.60521339192E+01 -8.58690173307E+00  2.76090936878E+00  2.75693885253E+01  1.50228538050E-06  0.00000000000E+00  1.
</event>
<event>
 9 110   1.0000000E+00   7.4550000E+01   7.8125000E-03   1.3429423E-01
        2   -1    0    0  502    0  0.00000000000E+00  0.00000000000E+00  1.91885788227E+02  1.91885788227E+02  0.00000000000E+00  0.00000000000E+00  1.
        5   -1    0    0  501    0  0.00000000000E+00  0.00000000000E+00 -7.28634710291E+02  7.28634710291E+02  0.00000000000E+00  0.00000000000E+00  1.
       25    1    1    2    0    0 -3.16508609750E+01  8.59926390360E+01 -4.02584501584E+02  4.31388214819E+02  1.25000000000E+02  0.00000000000E+00  1.
        6    2    1    2  501    0 -1.09379307936E+02 -1.03446552104E+02 -2.23958619108E+02  3.21033664634E+02  1.73896890740E+02  0.00000000000E+00  1.
        1    1    1    2  502    0  1.41030168911E+02  1.74539130678E+01  8.97941986284E+01  1.68098619065E+02  7.92181383411E-06  0.00000000000E+00  1.
        5    1    4    4  501    0 -1.06271061408E+02 -4.04613159938E+01 -6.08517456727E+01  1.29058723209E+02  4.75000000000E+00  0.00000000000E+00  1.
       24    2    4    4    0    0 -3.10824652707E+00 -6.29852361101E+01 -1.63106873436E+02  1.91974941426E+02  7.92068482467E+01  0.00000000000E+00  1.
      -11    1    7    7    0    0 -2.61728864389E+01 -3.34813645262E+01 -1.43586422069E+02  1.49743388361E+02  5.10998597706E-04  0.00000000000E+00  1.
       12    1    7    7    0    0  2.30646399118E+01 -2.95038715839E+01 -1.95204513670E+01  4.22315530649E+01  2.18514237163E-06  0.00000000000E+00  1.
</event>
<event>
 9 110   1.0000000E+00   7.4550000E+01   7.8125000E-03   1.3429423E-01
        2   -1    0    0  502    0  0.00000000000E+00  0.00000000000E+00  2.87661389309E+03  2.87661389309E+03  0.00000000000E+00  0.00000000000E+00  1.
        5   -1    0    0  501    0  0.00000000000E+00  0.00000000000E+00 -2.86473882981E+01  2.86473882981E+01  0.00000000000E+00  0.00000000000E+00  1.
       25    1    1    2    0    0  6.34273318925E+01 -9.29933846707E+01  3.98382644079E+02  4.32440200637E+02  1.25000000000E+02  0.00000000000E+00  1.
        6    2    1    2  501    0  6.48046182378E+00  4.14525031703E+00  2.05317893412E+03  2.06061002264E+03  1.74673267598E+02  0.00000000000E+00  1.
        1    1    1    2  502    0 -6.99077937163E+01  8.88481343536E+01  3.96404926598E+02  4.12211058114E+02  7.62939453125E-06  0.00000000000E+00  1.
        5    1    4    4  501    0 -4.16765388110E+01  1.69662753053E+01  1.39557846160E+03  1.39631178229E+03  4.74999999990E+00  0.00000000000E+00  1.
       24    2    4    4    0    0  4.81570006347E+01 -1.28210249883E+01  6.57600472521E+02  6.64298240352E+02  7.98141295897E+01  0.00000000000E+00  1.
      -15    1    7    7    0    0  4.89444081095E+01  2.45309277607E+01  4.54628231116E+02  4.57916266415E+02  1.77680000000E+00  0.00000000000E+00  1.
       16    1    7    7    0    0 -7.87407474799E-01 -3.73519527490E+01  2.02972241406E+02  2.06381973937E+02  2.69739830470E-06  0.00000000000E+00  1.
</event>
<event>
 9 110   1.0000000E+00   7.4550000E+01   7.8125000E-03   1.3429423E-01
        2   -1    0    0  502    0  0.00000000000E+00  0.00000000000E+00  2.95575753408E+03  2.95575753408E+03  0.00000000000E+00  0.00000000000E+00  1.
        5   -1    0    0  501    0  0.00000000000E+00  0.00000000000E+00 -7.37569372979E+01  7.37569372979E+01  0.00000000000E+00  0.00000000000E+00  1.
       25    1    1    2    0    0 -9.14970846816E+01 -2.00618389140E+02  2.50526541761E+03  2.51805465930E+03  1.25000000000E+02  0.00000000000E+00  1.
        6    2    1    2  501    0  8.46651516079E+01  2.09643264282E+02  2.34873313358E+02  3.69147083715E+02  1.73163535226E+02  0.00000000000E+00  1.
        1    1    1    2  502    0  6.83193307379E+00 -9.02487514181E+00  1.41861865821E+02  1.42312728366E+02  0.00000000000E+00  0.00000000000E+00  1.
        5    1    4    4  501    0 -2.84679286401E+01  1.22002609054E+01  7.12980913627E+01  7.78797127575E+01  4.75000000000E+00  0.00000000000E+00  1.
       24    2    4    4    0    0  1.13133080248E+02  1.97443003377E+02  1.63575221995E+02  2.91267370957E+02  7.93536054942E+01  0.00000000000E+00  1.
       -1    1    7    7    0  703 -4.80849376272E+00  5.20935739329E+01  4.97558966990E+01  7.21977237431E+01  6.74349576174E-07  0.00000000000E+00  1.
        2    1    7    7  703    0  1.17941574011E+02  1.45349429444E+02  1.13819325296E+02  2.19069647214E+02  4.26496119976E-06  0.00000000000E+00  1.
</event>
<event>
 9 110   1.0000000E+00   7.4550000E+01   7.8125000E-03   1.3429423E-01
        2   -1    0    0  502    0  0.00000000000E+00  0.00000000000E+00  2.87258887461E+03  2.87258887461E+03  0.00000000000E+00  0.00000000000E+00  1.
        5   -1    0    0  501    0  0.00000000000E+00  0.00000000000E+00 -3.62224531512E+02  3.62224531512E+02  0.00000000000E+00  0.00000000000E+00  1.
       25    1    1    2    0    0 -1.47280897777E+02 -2.57662939097E+02  1.58182540988E+03  1.61427335986E+03  1.25000000000E+02  0.00000000000E+00  1.
        6    2    1    2  501    0  2.94885896610E+02  2.74485619992E+02 -2.00449930233E+02  4.81818793241E+02  1.72247285574E+02  0.00000000000E+00  1.
        1    1    1    2  502    0 -1.47604998833E+02 -1.68226808950E+01  1.12898886345E+03  1.13872125302E+03  0.00000000000E+00  0.00000000000E+00  1.
        5    1    4    4  501    0  2.27920956108E+02  1.89826252899E+02 -1.77059613644E+02  3.45477405638E+02  4.75000000001E+00  0.00000000000E+00  1.
       24    2    4    4    0    0  6.69649405024E+01  8.46593670929E+01 -2.33903165884E+01  1.36341387602E+02  7.99396983366E+01  0.00000000000E+00  1.
       -1    1    7    7    0  703  1.93305836337E+01  7.81905385893E+01 -3.34741324273E+01  8.72235594910E+01  4.76837158203E-07  0.00000000000E+00  1.
        2    1    7    7  703    0  4.76343568687E+01  6.46882850356E+00  1.00838158389E+01  4.91178281113E+01  9.61096018350E-07  0.00000000000E+00  1.
</event>
<event>
 9 110   1.0000000E+00   7.4550000E+01   7.8125000E-03   1.3429423E-01
        5   -1    0    0  501    0  0.00000000000E+00  0.00000000000E+00  7.54063375005E+01  7.54063375005E+01  0.00000000000E+00  0.00000000000E+00  1.
        2   -1    0    0  502    0  0.00000000000E+00  0.00000000000E+00 -2.02331980104E+03  2.02331980104E+03  0.00000000000E+00  0.00000000000E+00  1.
       25    1    1    2    0    0 -3.41689988679E+01  2.10118953156E+02 -2.56929791411E+02  3.56308030605E+02  1.25000000000E+02  0.00000000000E+00  1.
        6    2    1    2  501    0  5.73306646226E+01 -2.32363102518E+02 -8.33666534129E+02  8.84499731836E+02  1.73379551775E+02  0.00000000000E+00  1.
        1    1    1    2  502    0 -2.31616657547E+01  2.22441493615E+01 -8.57317138002E+02  8.57918376102E+02  1.52587890625E-05  0.00000000000E+00  1.
        5    1    4    4  501    0 -2.59861844755E+01  3.23141201545E-01 -1.75083954210E+02  1.77065919153E+02  4.75000000000E+00  0.00000000000E+00  1.
       24    2    4    4    0    0  8.33168490980E+01 -2.32686243719E+02 -6.58582579919E+02  7.07433812683E+02  7.51465195087E+01  0.00000000000E+00  1.
      -15    1    7    7    0    0  8.47242736880E+00 -6.93123974297E+00 -5.47418444798E+00  1.23672075872E+01  1.77680000005E+00  0.00000000000E+00  1.
       16    1    7    7    0    0  7.48444217292E+01 -2.25755003976E+02 -6.53108395471E+02  6.95066605096E+02  7.62939453125E-06  0.00000000000E+00  1.
</event>
<event>
 9 110   1.0000000E+00   7.4550000E+01   7.8125000E-03   1.3429423E-01
        5   -1    0    0  501    0  0.00000000000E+00  0.00000000000E+00  2.27579022424E+02  2.27579022424E+02  0.00000000000E+00  0.00000000000E+00  1.
        2   -1    0    0  502    0  0.00000000000E+00  0.00000000000E+00 -9.78879234887E+02  9.78879234887E+02  0.00000000000E+00  0.00000000000E+00  1.
       25    1    1    2    0    0  2.34674353550E+02 -1.30160394945E+02 -7.65364087491E+02  8.20622304746E+02  1.25000000000E+02  0.00000000000E+00  1.
        6    2    1    2  501    0 -2.49690572629E+02  1.65219256700E+02  2.43239433129E+01  3.46340641144E+02  1.72387356397E+02  0.00000000000E+00  1.
        1    1    1    2  502    0  1.50162190789E+01 -3.50588617548E+01 -1.02600682846E+01  3.94953114201E+01  2.61989366720E-06  0.00000000000E+00  1.
        5    1    4    4  501    0 -1.03345429718E+02  1.47606421202E+00  4.40201056699E+01  1.12440156582E+02  4.75000000000E+00  0.00000000000E+00  1.
       24    2    4    4    0    0 -1.46345142912E+02  1.63743192488E+02 -1.96961623570E+01  2.33900484562E+02  7.80561588007E+01  0.00000000000E+00  1.
       -3    1    7    7    0  703  7.41118019360E+00  1.41744162625E+01 -1.06303611476E+01  1.92053181794E+01  1.01152436426E-06  0.00000000000E+00  1.
        4    1    7    7  703    0 -1.53756323105E+02  1.49568776226E+02 -9.06580120939E+00  2.14695166383E+02  2.30231379459E-06  0.00000000000E+00  1.
</event>
<event>
 9 110   1.0000000E+00   7.4550000E+01   7.8125000E-03   1.3429423E-01
        2   -1    0    0  502    0  0.00000000000E+00  0.00000000000E+00  4.47065187322E+03  4.47065187322E+03  0.00000000000E+00  0.00000000000E+00  1.
        5   -1    0    0  501    0  0.00000000000E+00  0.00000000000E+00 -3.57341905052E+01  3.57341905052E+01  0.00000000000E+00  0.00000000000E+00  1.
       25    1    1    2    0    0  1.33721315329E+01 -1.83496798303E+02  1.88345170157E+03  1.89654032413E+03  1.25000000000E+02  0.00000000000E+00  1.
        6    2    1    2  501    0  8.01580328816E+01  5.76089606212E+01  3.50701898429E+02  4.03500755898E+02  1.73427033271E+02  0.00000000000E+00  1.
        1    1    1    2  502    0 -9.35301644145E+01  1.25887837682E+02  2.20076408272E+03  2.20634498370E+03  4.31583728752E-05  0.00000000000E+00  1.
        5    1    4    4  501    0  7.32909043081E+01 -3.02599569671E+01  1.20192117433E+02  1.44069182142E+02  4.75000000000E+00  0.00000000000E+00  1.
       24    2    4    4    0    0  6.86712857350E+00  8.78689175883E+01  2.30509780996E+02  2.59431573756E+02  8.00117378504E+01  0.00000000000E+00  1.
       -3    1    7    7    0  703 -9.09710321484E+00  4.09246450815E+01  2.67622581542E+01  4.97373332966E+01  2.92001931999E-06  0.00000000000E+00  1.
        4    1    7    7  703    0  1.59642317883E+01  4.69442725068E+01  2.03747522842E+02  2.09694240459E+02  2.69739830470E-06  0.00000000000E+00  1.
</event>
<event>
 9 110   1.0000000E+00   7.4550000E+01   7.8125000E-03   1.3429423E-01
        5   -1    0    0  501    0  0.00000000000E+00  0.00000000000E+00  1.96573125539E+02  1.96573125539E+02  0.00000000000E+00  0.00000000000E+00  1.
        2   -1    0    0  502    0  0.00000000000E+00  0.00000000000E+00 -1.71629198367E+03  1.71629198367E+03  0.00000000000E+00  0.00000000000E+00  1.
       25    1    1    2    0    0  1.77148666130E+02  1.02157959931E+02 -8.06242179928E+02  8.41111973155E+02  1.25000000000E+02  0.00000000000E+00  1.
        6    2    1    2  501    0 -1.05644007122E+02 -1.35456527395E+02  9.27571160065E+01  2.61670028108E+02  1.74236029528E+02  0.00000000000E+00  1.
        1    1    1    2  502    0 -7.15046590081E+01  3.32985674640E+01 -8.06233794214E+02  8.10083107951E+02  1.52587890625E-05  0.00000000000E+00  1.
        5    1    4    4  501    0 -2.33699796460E+01  3.29016269445E+01  1.08956123020E+01  4.20707721784E+01  4.75000000000E+00  0.00000000000E+00  1.
       24    2    4    4    0    0 -8.22740274758E+01 -1.68358154339E+02  8.18615037044E+01  2.19599255930E+02  8.00565030868E+01  0.00000000000E+00  1.
       -3    1    7    7    0  703 -1.57909970582E+01 -7.60083591964E+01 -2.93620460097E+00  7.76868557305E+01  1.00624221660E-06  0.00000000000E+00  1.
        4    1    7    7  703    0 -6.64830304177E+01 -9.23497951427E+01  8.47977083054E+01  1.41912400199E+02  2.69739830470E-06  0.00000000000E+00  1.
</event>
<event>
 9 110   1.0000000E+00   7.4550000E+01   7.8125000E-03   1.3429423E-01
        5   -1    0    0  501    0  0.00000000000E+00  0.00000000000E+00  4.60747947936E+02  4.60747947936E+02  0.00000000000E+00  0.00000000000E+00  1.
        2   -1    0    0  502    0  0.00000000000E+00  0.00000000000E+00 -1.18730248543E+03  1.18730248543E+03  0.00000000000E+00  0.00000000000E+00  1.
       25    1    1    2    0    0 -3.11165525143E+02 -2.85847504632E+02 -5.22977168792E+02  6.83858829745E+02  1.25000000000E+02  0.00000000000E+00  1.
        6    2    1    2  501    0  1.20282412865E+02  5.37702743236E+01  3.05098178463E+02  3.73389593077E+02  1.70222761318E+02  0.00000000000E+00  1.
        1    1    1    2  502    0  1.90883112278E+02  2.32077230308E+02 -5.08675547166E+02  5.90802010546E+02  1.42732902022E-05  0.00000000000E+00  1.
        5    1    4    4  501    0  1.00388863571E+02  7.78665474881E-01  2.26092927403E+02  2.47424947349E+02  4.75000000000E+00  0.00000000000E+00  1.
       24    2    4    4    0    0  1.98935492941E+01  5.29916088488E+01  7.90052510602E+01  1.25964645728E+02  8.01336281863E+01  0.00000000000E+00  1.
      -15    1    7    7    0    0  1.93767208651E+01 -1.65970573164E+01  3.59947748160E+01  4.41554125261E+01  1.77680000000E+00  0.00000000000E+00  1.
       16    1    7    7    0    0  5.16828428985E-01  6.95886661652E+01  4.30104762441E+01  8.18092332015E+01  1.84678237257E-06  0.00000000000E+00  1.
</event>
<event>
 9 110   1.0000000E+00   7.4550000E+01   7.8125000E-03   1.3429423E-01
        5   -1    0    0  501    0  0.00000000000E+00  0.00000000000E+00  3.36587254471E+02  3.36587254471E+02  0.00000000000E+00  0.00000000000E+00  1.
        2   -1    0    0  502    0  0.00000000000E+00  0.00000000000E+00 -4.05498488116E+02  4.05498488116E+02  0.00000000000E+00  0.00000000000E+00  1.
       25    1    1    2    0    0  1.75899402173E+02  5.53244224638E+00 -2.71695179052E+02  3.47007893170E+02  1.25000000000E+02  0.00000000000E+00  1.
        6    2    1    2  501    0 -1.16616962591E+02 -1.67812870606E+01  2.44079080330E+02  3.21959915087E+02  1.73788555172E+02  0.00000000000E+00  1.
        1    1    1    2  502    0 -5.92824395823E+01  1.12488448142E+01 -4.12951349236E+01  7.31179343311E+01  1.78416127528E-06  0.00000000000E+00  1.
        5    1    4    4  501    0 -7.85238886790E+01 -7.10482561687E+01  1.18651754233E+02  1.59105804673E+02  4.75000000000E+00  0.00000000000E+00  1.
       24    2    4    4    0    0 -3.80930739118E+01  5.42669691081E+01  1.25427326096E+02  1.62854110414E+02  7.99591203732E+01  0.00000000000E+00  1.
       -1    1    7    7    0  703  2.17978917143E+01  3.13894532228E+01  6.08605679347E+01  7.18641397788E+01  1.90734863281E-06  0.00000000000E+00  1.
        2    1    7    7  703    0 -5.98909656261E+01  2.28775158853E+01  6.45667581617E+01  9.09899706353E+01  9.53674316406E-07  0.00000000000E+00  1.
</event>
<event>
 9 110   1.0000000E+00   7.4550000E+01   7.8125000E-03   1.3429423E-01
        5   -1    0    0  501    0  0.00000000000E+00  0.00000000000E+00  1.72890876590E+02  1.72890876590E+02  0.00000000000E+00  0.00000000000E+00  1.
        2   -1    0    0  502    0  0.00000000000E+00  0.00000000000E+00 -1.11992907333E+03  1.11992907333E+03  0.00000000000E+00  0.00000000000E+00  1.
       25    1    1    2    0    0  1.11748806575E+01 -1.52755606545E+02 -1.54668068964E+02  2.51010686716E+02  1.25000000000E+02  0.00000000000E+00  1.
        6    2    1    2  501    0 -7.85102193326E+01  4.68355817790E+01  4.06835814715E+01  1.99353577738E+02  1.72421776164E+02  0.00000000000E+00  1.
        1    1    1    2  502    0  6.73353386751E+01  1.05920024766E+02 -8.33053709248E+02  8.42455685465E+02  1.86881236479E-05  0.00000000000E+00  1.
        5    1    4    4  501    0  2.37609323758E+01  2.58018065028E+01 -3.10177940455E+01  4.70635864934E+01  4.75000000000E+00  0.00000000000E+00  1.
       24    2    4    4    0    0 -1.02271151708E+02  2.10337752762E+01  7.17013755170E+01  1.52289991245E+02  8.45538054038E+01  0.00000000000E+00  1.
       -1    1    7    7    0  703  3.59963597519E+00  2.60455516014E+01  2.56376484638E+01  3.67235231987E+01  8.92080637640E-07  0.00000000000E+00  1.
        2    1    7    7  703    0 -1.05870787684E+02 -5.01177632518E+00  4.60637270533E+01  1.15566468046E+02  1.90734863281E-06  0.00000000000E+00  1.
</event>
<event>
 9 110   1.0000000E+00   7.4550000E+01   7.8125000E-03   1.3429423E-01
       -1   -1    0    0    0  502  0.00000000000E+00  0.00000000000E+00  1.53887390102E+03  1.53887390102E+03  0.00000000000E+00  0.00000000000E+00  1.
        5   -1    0    0  501    0  0.00000000000E+00  0.00000000000E+00 -2.99660640679E+02  2.99660640679E+02  0.00000000000E+00  0.00000000000E+00  1.
       25    1    1    2    0    0 -3.24075243486E+01 -3.20354702719E+02  3.78705849824E+02  5.12562682878E+02  1.25000000000E+02  0.00000000000E+00  1.
        6    2    1    2  501    0 -1.14551997324E+01  2.85037961563E+02 -1.10556686679E+02  3.53276278677E+02  1.76645087601E+02  0.00000000000E+00  1.
       -2    1    1    2    0  502  4.38627240811E+01  3.53167411560E+01  9.71064097197E+02  9.72695580146E+02  1.07895932188E-05  0.00000000000E+00  1.
        5    1    4    4  501    0 -6.81302311948E+01  1.48832810095E+02 -4.65848315500E+01  1.70251704232E+02  4.75000000000E+00  0.00000000000E+00  1.
       24    2    4    4    0    0  5.66750314623E+01  1.36205151468E+02 -6.39718551290E+01  1.83024574445E+02  8.74167839974E+01  0.00000000000E+00  1.
      -11    1    7    7    0    0  5.61703513687E+00  2.88452544335E+01  2.16644655871E+01  3.65095721216E+01  5.11002657946E-04  0.00000000000E+00  1.
       12    1    7    7    0    0  5.10579963255E+01  1.07359897034E+02 -8.56363207161E+01  1.46515002323E+02  3.01578298585E-06  0.00000000000E+00  1.
</event>
<event>
 9 110   1.0000000E+00   7.4550000E+01   7.8125000E-03   1.3429423E-01
        5   -1    0    0  501    0  0.00000000000E+00  0.00000000000E+00  7.31554127209E+01  7.31554127209E+01  0.00000000000E+00  0.00000000000E+00  1.
        2   -1    0    0  502    0  0.00000000000E+00  0.00000000000E+00 -1.16698729236E+03  1.16698729236E+03  0.00000000000E+00  0.00000000000E+00  1.
       25    1    1    2    0    0 -2.33607193253E+01  1.76680941204E+02 -4.99276982088E+02  5.44669058268E+02  1.25000000000E+02  0.00000000000E+00  1.
        6    2    1    2  501    0  9.06400975582E+01 -1.41598669047E+02 -2.67789301983E+02  3.60014208129E+02  1.72143281707E+02  0.00000000000E+00  1.
        1    1    1    2  502    0 -6.72793782329E+01 -3.50822721565E+01 -3.26765595571E+02  3.35459438687E+02  3.81469726562E-06  0.00000000000E+00  1.
        5    1    4    4  501    0  8.77166825152E+00 -1.23476418821E+02 -1.47523274641E+02  1.92637086849E+02  4.75000000000E+00  0.00000000000E+00  1.
       24    2    4    4    0    0  8.18684293067E+01 -1.81222502263E+01 -1.20266027341E+02  1.67377121280E+02  8.07485462717E+01  0.00000000000E+00  1.
      -11    1    7    7    0    0  4.72021900519E+01  1.61142502126E+01 -1.61528296971E+01  5.24273756075E+01  5.10992090132E-04  0.00000000000E+00  1.
       12    1    7    7    0    0  3.46662392548E+01 -3.42365004389E+01 -1.04113197644E+02  1.14949745672E+02  2.69739830470E-06  0.00000000000E+00  1.
</event>
</LesHouchesEvents>
