<LesHouchesEvents version="1.0">
<!--
Output from the JHUGenerator v7.5.1 described in arXiv:1001.3396 [hep-ph], arXiv:1208.4018 [hep-ph], arXiv:1309.4819 [hep-ph], arXiv:1606.03107 [hep-ph]
   
   Command line: ./JHUGen Seed=765543533 PDFSet=3 Process=111 VegasNc0=100000 VegasNc2=100 DataFile=compare_to_reference/tqH_111 TopDK=1 DecayMode1=11 ghg2=0.383432074687728,0.918260989345657 ghg3=6294.49296087723,2253.12941717723 ghg4=0.335495485382528,0.17285803562226 ghz1=0.154934976270359,0.453918144016304 ghz2=0.469297059144414,0.745302300947002 ghz3=3947.40921062637,3597.4885961919 ghz4=0.177791270766536,0.920170534486048 ghzgs2=0.0240331049939919,0.232175381101053 ghzgs3=0.331962910170583,0.0450183240308457 ghzgs4=0.808286540247172,0.133184346613754 ghgsgs2=0.530394804029869,0.211218112389125 ghgsgs3=0.914978695198138,0.055650585081425 ghgsgs4=0.694524307167701,0.511424456076726 ghz1_prime=0.143354267833606,0.0910761280837012 ghz1_prime2=7416.7007267243,4861.35525489789 ghz1_prime3=4431.44656075298,4436.48625894176 ghz1_prime4=2441.69123517064,6946.16318931911 ghz1_prime5=78314042.889773,69465359.939181 ghz1_prime6=51233058.8130761,29537873.5850789 ghz1_prime7=47832192.9001564,59559649.9633293 g
   
   Input Parameter:
    Collider: P-P, sqrt(s)=13000.00
    Resonance: spin=0, mass= 125.00 width=   0.00407
    DecayMode1:11
    W boson: mass=80.399, width=2.0850
    Top quark mass=173.2000, width=2.0000
    Top quark decay= 1
    Random seed:   765543533
    To reproduce results using this seed, JHUGen should be compiled with the same compiler:
      GNU Fortran (GCC) 6.3.0
    
    WidthScheme:   2
    PDFSet:   3
    Unweighted: T
    
    
    LHE output: compare_to_reference/tqH_111.lhe
    Histogram output: compare_to_reference/tqH_111.dat
    Log file: compare_to_reference/tqH_111.log
    
-->
<init>
2212 2212   6500.0000000000000000    6500.0000000000000000 0 0  263000  263000  3  1
 2.3948467E+01  7.0476824E-01  1.0000000E+00 111
</init>
<event>
 9 111   1.0000000E+00   7.4550000E+01   7.8125000E-03   1.3429423E-01
       -5   -1    0    0    0  501  0.00000000000E+00  0.00000000000E+00  8.15786343832E+01  8.15786343832E+01  0.00000000000E+00  0.00000000000E+00  1.
        3   -1    0    0  502    0  0.00000000000E+00  0.00000000000E+00 -3.44455678641E+03  3.44455678641E+03  0.00000000000E+00  0.00000000000E+00  1.
       25    1    1    2    0    0  8.10293700176E+01  7.38680866551E+01 -1.92771968580E+02  2.54574713791E+02  1.25000000000E+02  0.00000000000E+00  1.
       -6    2    1    2    0  501  2.32335289211E+01 -9.58604759934E+01 -1.50212175541E+02  2.49687409679E+02  1.73352465076E+02  0.00000000000E+00  1.
        4    1    1    2  502    0 -1.04262898939E+02  2.19923893383E+01 -3.01999400790E+03  3.02187329732E+03  4.31583728752E-05  0.00000000000E+00  1.
       -5    1    4    4    0  501  1.19470682213E+01  2.99359377748E+01 -7.80417873494E+01  8.45693554559E+01  4.75000000000E+00  0.00000000000E+00  1.
      -24    2    4    4    0    0  1.12864606998E+01 -1.25796413768E+02 -7.21703881914E+01  1.65118054223E+02  7.81235239014E+01  0.00000000000E+00  1.
        3    1    7    7  704    0  3.28299454665E+01 -1.10392053052E+02 -7.65278769814E+01  1.38277715672E+02  1.65181236989E-06  0.00000000000E+00  1.
       -4    1    7    7    0  704 -2.15434847668E+01 -1.54043607166E+01  4.35748879002E+00  2.68403385511E+01  1.32075070179E-06  0.00000000000E+00  1.
</event>
<event>
 9 111   1.0000000E+00   7.4550000E+01   7.8125000E-03   1.3429423E-01
        1   -1    0    0  502    0  0.00000000000E+00  0.00000000000E+00  1.05495973103E+03  1.05495973103E+03  0.00000000000E+00  0.00000000000E+00  1.
       -5   -1    0    0    0  501  0.00000000000E+00  0.00000000000E+00 -1.12592432631E+02  1.12592432631E+02  0.00000000000E+00  0.00000000000E+00  1.
       25    1    1    2    0    0  1.13945631942E+02 -1.79841480126E+02  1.93296179797E+02  3.13552193640E+02  1.25000000000E+02  0.00000000000E+00  1.
       -6    2    1    2    0  501 -1.12321814907E+02  8.24803070923E+01  2.16966727045E+02  3.13059198484E+02  1.77517069457E+02  0.00000000000E+00  1.
        2    1    1    2  502    0 -1.62381703488E+00  9.73611730340E+01  5.32104391554E+02  5.40940771533E+02  0.00000000000E+00  0.00000000000E+00  1.
       -5    1    4    4    0  501  1.23925199618E+01 -8.46363045611E+00  1.12170326231E+02  1.13269378820E+02  4.75000000000E+00  0.00000000000E+00  1.
      -24    2    4    4    0    0 -1.24714334869E+02  9.09439375484E+01  1.04796400815E+02  1.99789819664E+02  7.14788172766E+01  0.00000000000E+00  1.
       15    1    7    7    0    0 -1.20495141887E+02  5.60234231213E+01  9.47367313299E+01  1.63205111555E+02  1.77680000000E+00  0.00000000000E+00  1.
      -16    1    7    7    0    0 -4.21919298224E+00  3.49205144272E+01  1.00596694846E+01  3.65847081090E+01  7.99680224955E-07  0.00000000000E+00  1.
</event>
<event>
 9 111   1.0000000E+00   7.4550000E+01   7.8125000E-03   1.3429423E-01
       -4   -1    0    0    0  502  0.00000000000E+00  0.00000000000E+00  2.06585483377E+02  2.06585483377E+02  0.00000000000E+00  0.00000000000E+00  1.
       -5   -1    0    0    0  501  0.00000000000E+00  0.00000000000E+00 -1.10292404400E+03  1.10292404400E+03  0.00000000000E+00  0.00000000000E+00  1.
       25    1    1    2    0    0  2.51554631865E+01  2.75760595160E+01 -3.17428984711E+02  3.43190030043E+02  1.25000000000E+02  0.00000000000E+00  1.
       -6    2    1    2    0  501 -7.61800693569E+01  1.02986192330E+02 -7.30146957316E+02  7.60109028205E+02  1.68052362977E+02  0.00000000000E+00  1.
       -3    1    1    2    0  502  5.10246061704E+01 -1.30562251846E+02  1.51237381407E+02  2.06210469125E+02  1.11216581246E-05  0.00000000000E+00  1.
       -5    1    4    4    0  501 -5.05494093810E+01 -8.28559061649E+00 -3.69748250596E+02  3.73309824568E+02  4.74999999999E+00  0.00000000000E+00  1.
      -24    2    4    4    0    0 -2.56306599759E+01  1.11271782946E+02 -3.60398706721E+02  3.86799203636E+02  8.17805338508E+01  0.00000000000E+00  1.
       15    1    7    7    0    0  2.24905213628E+00  4.67701734676E+01 -4.99142315269E+01  6.84623611108E+01  1.77680000000E+00  0.00000000000E+00  1.
      -16    1    7    7    0    0 -2.78797121122E+01  6.45016094788E+01 -3.10484475194E+02  3.18336842526E+02  5.39479660939E-06  0.00000000000E+00  1.
</event>
<event>
 9 111   1.0000000E+00   7.4550000E+01   7.8125000E-03   1.3429423E-01
       -5   -1    0    0    0  501  0.00000000000E+00  0.00000000000E+00  6.06049965977E+02  6.06049965977E+02  0.00000000000E+00  0.00000000000E+00  1.
        3   -1    0    0  502    0  0.00000000000E+00  0.00000000000E+00 -5.56453475085E+02  5.56453475085E+02  0.00000000000E+00  0.00000000000E+00  1.
       25    1    1    2    0    0 -4.46667315981E+01  1.25009458160E+02 -2.32910053908E+02  2.95794818671E+02  1.25000000000E+02  0.00000000000E+00  1.
       -6    2    1    2    0  501  2.61969618398E+01 -6.17734518693E+01  5.55661000463E+02  5.85722356651E+02  1.72653674969E+02  0.00000000000E+00  1.
        4    1    1    2  502    0  1.84697697583E+01 -6.32360062910E+01 -2.73154455662E+02  2.80986265740E+02  7.62939453125E-06  0.00000000000E+00  1.
       -5    1    4    4    0  501 -3.76500969800E+01 -7.24658461642E+01  2.87843453186E+02  2.99241114663E+02  4.75000000000E+00  0.00000000000E+00  1.
      -24    2    4    4    0    0  6.38470588197E+01  1.06923942950E+01  2.67817547277E+02  2.86481241988E+02  7.84505523618E+01  0.00000000000E+00  1.
        1    1    7    7  704    0  1.12102088008E+01 -2.54571876335E+01  3.31153077211E+01  4.32476680184E+01  4.74446981958E-06  0.00000000000E+00  1.
       -2    1    7    7    0  704  5.26368500189E+01  3.61495819285E+01  2.34702239556E+02  2.43233573969E+02  4.67203091199E-06  0.00000000000E+00  1.
</event>
<event>
 9 111   1.0000000E+00   7.4550000E+01   7.8125000E-03   1.3429423E-01
       -5   -1    0    0    0  501  0.00000000000E+00  0.00000000000E+00  2.52404078310E+02  2.52404078310E+02  0.00000000000E+00  0.00000000000E+00  1.
       -4   -1    0    0    0  502  0.00000000000E+00  0.00000000000E+00 -1.76139678285E+02  1.76139678285E+02  0.00000000000E+00  0.00000000000E+00  1.
       25    1    1    2    0    0 -8.67161519934E+00  3.08433999573E+01  1.28530067978E+02  1.82130421966E+02  1.25000000000E+02  0.00000000000E+00  1.
       -6    2    1    2    0  501 -1.45313676927E+01 -1.74047940878E+01  1.09535948601E+01  1.77742746066E+02  1.75950035620E+02  0.00000000000E+00  1.
       -3    1    1    2    0  502  2.32029828921E+01 -1.34386058695E+01 -6.32192628138E+01  6.86705885625E+01  9.53674316406E-07  0.00000000000E+00  1.
       -5    1    4    4    0  501  2.66620976506E+01  2.06935882389E+01 -5.22298419026E+01  6.23667453897E+01  4.75000000000E+00  0.00000000000E+00  1.
      -24    2    4    4    0    0 -4.11934653433E+01 -3.80983823267E+01  6.31834367627E+01  1.15376000677E+02  7.85562634558E+01  0.00000000000E+00  1.
        3    1    7    7  704    0 -1.69032101431E+01 -6.02921306735E+01  3.32627727586E+01  7.09032551149E+01  1.65181236989E-06  0.00000000000E+00  1.
       -4    1    7    7    0  704 -2.42902552001E+01  2.21937483468E+01  2.99206640041E+01  4.44727455619E+01  1.50789149292E-06  0.00000000000E+00  1.
</event>
<event>
 9 111   1.0000000E+00   7.4550000E+01   7.8125000E-03   1.3429423E-01
       -2   -1    0    0    0  502  0.00000000000E+00  0.00000000000E+00  8.97110089334E+01  8.97110089334E+01  0.00000000000E+00  0.00000000000E+00  1.
       -5   -1    0    0    0  501  0.00000000000E+00  0.00000000000E+00 -5.26759754842E+02  5.26759754842E+02  0.00000000000E+00  0.00000000000E+00  1.
       25    1    1    2    0    0  1.12917593789E+02 -8.50888614487E+01 -1.82563266968E+02  2.62573501663E+02  1.25000000000E+02  0.00000000000E+00  1.
       -6    2    1    2    0  501 -9.99504898329E+01  5.58595056243E+01 -2.44427986811E+02  3.20376310830E+02  1.72584921179E+02  0.00000000000E+00  1.
       -1    1    1    2    0  502 -1.29671039563E+01  2.92293558243E+01 -1.00574921304E+01  3.35209512823E+01  1.04605727045E-06  0.00000000000E+00  1.
       -5    1    4    4    0  501 -6.55487860576E+01  5.86596795561E+01 -2.17482091578E+02  2.34645741526E+02  4.75000000000E+00  0.00000000000E+00  1.
      -24    2    4    4    0    0 -3.44017037753E+01 -2.80017393174E+00 -2.69458952324E+01  8.57305693034E+01  7.37043488983E+01  0.00000000000E+00  1.
        3    1    7    7  704    0 -1.70533539926E+01  1.59419768583E+01 -4.75140292094E+01  5.29390827297E+01  6.74349576174E-07  0.00000000000E+00  1.
       -4    1    7    7    0  704 -1.73483497827E+01 -1.87421507901E+01  2.05681339770E+01  3.27914865738E+01  9.53674316406E-07  0.00000000000E+00  1.
</event>
<event>
 9 111   1.0000000E+00   7.4550000E+01   7.8125000E-03   1.3429423E-01
       -2   -1    0    0    0  502  0.00000000000E+00  0.00000000000E+00  1.29207987025E+03  1.29207987025E+03  0.00000000000E+00  0.00000000000E+00  1.
       -5   -1    0    0    0  501  0.00000000000E+00  0.00000000000E+00 -3.65726202259E+01  3.65726202259E+01  0.00000000000E+00  0.00000000000E+00  1.
       25    1    1    2    0    0 -1.31045162326E+02  6.08638586317E+00  3.77097491562E+02  4.18374708610E+02  1.25000000000E+02  0.00000000000E+00  1.
       -6    2    1    2    0  501  1.29900141580E+02  5.44054520566E+00  7.44791945373E+02  7.76158800409E+02  1.75510100125E+02  0.00000000000E+00  1.
       -1    1    1    2    0  502  1.14502074594E+00 -1.15269310688E+01  1.33617813088E+02  1.34118981456E+02  2.69739830470E-06  0.00000000000E+00  1.
       -5    1    4    4    0  501  2.13561151809E+01  6.15185885846E+01  3.27284637698E+02  3.33734051260E+02  4.75000000000E+00  0.00000000000E+00  1.
      -24    2    4    4    0    0  1.08544026399E+02 -5.60780433789E+01  4.17507307675E+02  4.42424749150E+02  8.06272539658E+01  0.00000000000E+00  1.
        3    1    7    7  704    0  5.72603104844E+01  1.20735902921E+01  2.11815374623E+02  2.19750466816E+02  2.69739830470E-06  0.00000000000E+00  1.
       -4    1    7    7    0  704  5.12837159143E+01 -6.81516336710E+01  2.05691933052E+02  2.22674282334E+02  2.69739830470E-06  0.00000000000E+00  1.
</event>
<event>
 9 111   1.0000000E+00   7.4550000E+01   7.8125000E-03   1.3429423E-01
       -2   -1    0    0    0  502  0.00000000000E+00  0.00000000000E+00  8.70137904633E+02  8.70137904633E+02  0.00000000000E+00  0.00000000000E+00  1.
       -5   -1    0    0    0  501  0.00000000000E+00  0.00000000000E+00 -1.47057974655E+02  1.47057974655E+02  0.00000000000E+00  0.00000000000E+00  1.
       25    1    1    2    0    0  2.43009668950E+02 -9.54158977933E+01  1.63225371145E+02  3.32303196705E+02  1.25000000000E+02  0.00000000000E+00  1.
       -6    2    1    2    0  501 -2.61315539467E+02  5.95043205750E+01  3.59235682865E+02  4.80264532838E+02  1.72560627968E+02  0.00000000000E+00  1.
       -1    1    1    2    0  502  1.83058705165E+01  3.59115772183E+01  2.00618875967E+02  2.04628149745E+02  2.69739830470E-06  0.00000000000E+00  1.
       -5    1    4    4    0  501 -1.90861303409E+01 -3.84098734784E+01  6.96981605386E+01  8.19755746212E+01  4.75000000000E+00  0.00000000000E+00  1.
      -24    2    4    4    0    0 -2.42229409126E+02  9.79141940534E+01  2.89537522326E+02  3.98288958217E+02  8.08692856405E+01  0.00000000000E+00  1.
        1    1    7    7  704    0 -9.10243430606E+01  4.20572501042E+01  1.70901516413E+02  1.98145329564E+02  3.30362473978E-06  0.00000000000E+00  1.
       -2    1    7    7    0  704 -1.51205066065E+02  5.58569439491E+01  1.18636005914E+02  2.00143628653E+02  3.30362473978E-06  0.00000000000E+00  1.
</event>
<event>
 9 111   1.0000000E+00   7.4550000E+01   7.8125000E-03   1.3429423E-01
        3   -1    0    0  502    0  0.00000000000E+00  0.00000000000E+00  2.00568445048E+02  2.00568445048E+02  0.00000000000E+00  0.00000000000E+00  1.
       -5   -1    0    0    0  501  0.00000000000E+00  0.00000000000E+00 -8.51705669102E+02  8.51705669102E+02  0.00000000000E+00  0.00000000000E+00  1.
       25    1    1    2    0    0  1.55639675973E+01  2.40354446295E+01 -2.63918267916E+02  2.93424252280E+02  1.25000000000E+02  0.00000000000E+00  1.
       -6    2    1    2    0  501 -7.30745731911E+01 -1.03604248696E+01 -5.52135423591E+02  5.83658774315E+02  1.74232049865E+02  0.00000000000E+00  1.
        4    1    1    2  502    0  5.75106055939E+01 -1.36750197599E+01  1.64916467454E+02  1.75191087555E+02  1.42732902022E-05  0.00000000000E+00  1.
       -5    1    4    4    0  501 -9.54094433482E+00  5.08430299302E+01 -3.01110343521E+02  3.05558578323E+02  4.75000000001E+00  0.00000000000E+00  1.
      -24    2    4    4    0    0 -6.35336288563E+01 -6.12034547998E+01 -2.51025080070E+02  2.78100195992E+02  8.08934070959E+01  0.00000000000E+00  1.
        3    1    7    7  704    0 -3.69350038194E+01 -7.78259826910E+01 -2.05401962701E+02  2.22735368477E+02  2.69739830470E-06  0.00000000000E+00  1.
       -4    1    7    7    0  704 -2.65986250370E+01  1.66225278912E+01 -4.56231173684E+01  5.53648275150E+01  4.37028474327E-06  0.00000000000E+00  1.
</event>
<event>
 9 111   1.0000000E+00   7.4550000E+01   7.8125000E-03   1.3429423E-01
       -5   -1    0    0    0  501  0.00000000000E+00  0.00000000000E+00  6.61414860744E+02  6.61414860744E+02  0.00000000000E+00  0.00000000000E+00  1.
        3   -1    0    0  502    0  0.00000000000E+00  0.00000000000E+00 -4.93846087195E+02  4.93846087195E+02  0.00000000000E+00  0.00000000000E+00  1.
       25    1    1    2    0    0  3.14401941341E+01  9.85576277080E+01  1.48843734692E+02  2.20185260959E+02  1.25000000000E+02  0.00000000000E+00  1.
       -6    2    1    2    0  501 -2.77221216447E+00  1.03284022722E+02  4.30794492927E+02  4.75333215572E+02  1.72286088179E+02  0.00000000000E+00  1.
        4    1    1    2  502    0 -2.86679819697E+01 -2.01841650430E+02 -4.12069454070E+02  4.59742471408E+02  7.62939453125E-06  0.00000000000E+00  1.
       -5    1    4    4    0  501 -3.84580142052E+01  9.35585238478E+00  2.44024884523E+02  2.47259494452E+02  4.75000000000E+00  0.00000000000E+00  1.
      -24    2    4    4    0    0  3.56858020407E+01  9.39281703369E+01  1.86769608405E+02  2.28073721120E+02  8.38973062251E+01  0.00000000000E+00  1.
       15    1    7    7    0    0 -8.81430121511E+00 -1.04950331494E+01  7.06291107173E+00  1.55202885851E+01  1.77680000000E+00  0.00000000000E+00  1.
      -16    1    7    7    0    0  4.45001032558E+01  1.04423203486E+02  1.79706697333E+02  2.12553432535E+02  2.69739830470E-06  0.00000000000E+00  1.
</event>
<event>
 9 111   1.0000000E+00   7.4550000E+01   7.8125000E-03   1.3429423E-01
        1   -1    0    0  502    0  0.00000000000E+00  0.00000000000E+00  8.88579603981E+02  8.88579603981E+02  0.00000000000E+00  0.00000000000E+00  1.
       -5   -1    0    0    0  501  0.00000000000E+00  0.00000000000E+00 -1.39576803437E+02  1.39576803437E+02  0.00000000000E+00  0.00000000000E+00  1.
       25    1    1    2    0    0 -8.08040496331E+01 -5.42599294493E+01  1.84034272205E+01  1.59490189399E+02  1.25000000000E+02  0.00000000000E+00  1.
       -6    2    1    2    0  501  6.96680038923E+01  6.30562816911E+01  7.26421396965E+01  2.10555962355E+02  1.73859734834E+02  0.00000000000E+00  1.
        2    1    1    2  502    0  1.11360457408E+01 -8.79635224181E+00  6.57957233627E+02  6.58110255664E+02  7.62939453125E-06  0.00000000000E+00  1.
       -5    1    4    4    0  501 -9.36291858979E-01 -3.18747863850E+01 -1.99659146340E+01  3.79220107155E+01  4.75000000000E+00  0.00000000000E+00  1.
      -24    2    4    4    0    0  7.06042957513E+01  9.49310680761E+01  9.26080543305E+01  1.72633951640E+02  8.50256153594E+01  0.00000000000E+00  1.
        3    1    7    7  704    0  4.03781553804E+01  8.62934699240E+00  6.51971993814E+01  7.71721184666E+01  0.00000000000E+00  0.00000000000E+00  1.
       -4    1    7    7    0  704  3.02261403709E+01  8.63017210837E+01  2.74108549491E+01  9.54618331731E+01  1.01152436426E-06  0.00000000000E+00  1.
</event>
<event>
 9 111   1.0000000E+00   7.4550000E+01   7.8125000E-03   1.3429423E-01
        1   -1    0    0  502    0  0.00000000000E+00  0.00000000000E+00  1.91197663476E+02  1.91197663476E+02  0.00000000000E+00  0.00000000000E+00  1.
       -5   -1    0    0    0  501  0.00000000000E+00  0.00000000000E+00 -3.84222609261E+02  3.84222609261E+02  0.00000000000E+00  0.00000000000E+00  1.
       25    1    1    2    0    0 -1.22159003028E+02 -1.02471258973E+02 -9.75420092249E+01  2.24861345055E+02  1.25000000000E+02  0.00000000000E+00  1.
       -6    2    1    2    0  501  1.44915948709E+02  8.24040728681E+01 -1.52817787238E+02  2.85690941455E+02  1.74570829516E+02  0.00000000000E+00  1.
        2    1    1    2  502    0 -2.27569456805E+01  2.00671861050E+01  5.73348506772E+01  6.48679862263E+01  2.52318507296E-06  0.00000000000E+00  1.
       -5    1    4    4    0  501 -2.57755211746E+01 -1.33475881660E+01 -2.10245865475E+01  3.61542714097E+01  4.75000000000E+00  0.00000000000E+00  1.
      -24    2    4    4    0    0  1.70691469883E+02  9.57516610341E+01 -1.31793200690E+02  2.49536670045E+02  8.12104886540E+01  0.00000000000E+00  1.
        1    1    7    7  704    0  1.77572325805E+02  8.10368015662E+01 -1.25828559924E+02  2.32232040409E+02  0.00000000000E+00  0.00000000000E+00  1.
       -2    1    7    7    0  704 -6.88085592197E+00  1.47148594679E+01 -5.96464076607E+00  1.73046296362E+01  3.04392464991E-06  0.00000000000E+00  1.
</event>
<event>
 9 111   1.0000000E+00   7.4550000E+01   7.8125000E-03   1.3429423E-01
        1   -1    0    0  502    0  0.00000000000E+00  0.00000000000E+00  9.86666246893E+02  9.86666246893E+02  0.00000000000E+00  0.00000000000E+00  1.
       -5   -1    0    0    0  501  0.00000000000E+00  0.00000000000E+00 -1.03508653485E+02  1.03508653485E+02  0.00000000000E+00  0.00000000000E+00  1.
       25    1    1    2    0    0 -1.53101946033E+02  3.33714637030E+01  1.24484939924E+02  2.35956268695E+02  1.25000000000E+02  0.00000000000E+00  1.
       -6    2    1    2    0  501  1.47064911666E+01 -1.08286937871E+02  2.49966620333E+02  3.21726886806E+02  1.70536027328E+02  0.00000000000E+00  1.
        2    1    1    2  502    0  1.38395454866E+02  7.49154741677E+01  5.08706033151E+02  5.32491744876E+02  9.34406182397E-06  0.00000000000E+00  1.
       -5    1    4    4    0  501  2.57712911555E+01 -1.73338189000E+01 -1.15750441920E+01  3.34838001655E+01  4.75000000000E+00  0.00000000000E+00  1.
      -24    2    4    4    0    0 -1.10647999889E+01 -9.09531189707E+01  2.61541664525E+02  2.88243086640E+02  7.92788437343E+01  0.00000000000E+00  1.
       13    1    7    7    0    0  3.15794142312E+01 -1.97135791680E+01  9.79931436543E+01  1.04826294288E+02  1.05660000021E-01  0.00000000000E+00  1.
      -14    1    7    7    0    0 -4.26442142201E+01 -7.12395398027E+01  1.63548520871E+02  1.83416792353E+02  2.69739830470E-06  0.00000000000E+00  1.
</event>
<event>
 9 111   1.0000000E+00   7.4550000E+01   7.8125000E-03   1.3429423E-01
        1   -1    0    0  502    0  0.00000000000E+00  0.00000000000E+00  8.14175076377E+02  8.14175076377E+02  0.00000000000E+00  0.00000000000E+00  1.
       -5   -1    0    0    0  501  0.00000000000E+00  0.00000000000E+00 -1.83784938636E+02  1.83784938636E+02  0.00000000000E+00  0.00000000000E+00  1.
       25    1    1    2    0    0 -2.67548245426E+01  9.92048906769E+00 -6.15386279559E+01  1.42218984212E+02  1.25000000000E+02  0.00000000000E+00  1.
       -6    2    1    2    0  501  7.04075156771E-02 -4.54201174508E+01  1.80415288207E+01  1.80392017511E+02  1.73645590768E+02  0.00000000000E+00  1.
        2    1    1    2  502    0  2.66844170270E+01  3.54996283831E+01  6.73887236876E+02  6.75349013290E+02  1.32144989591E-05  0.00000000000E+00  1.
       -5    1    4    4    0  501  3.44904237559E+01 -5.00808071986E+01 -4.41120249086E+01  7.52735665560E+01  4.75000000000E+00  0.00000000000E+00  1.
      -24    2    4    4    0    0 -3.44200162403E+01  4.66068974775E+00  6.21535537293E+01  1.05118450955E+02  7.73328193143E+01  0.00000000000E+00  1.
       13    1    7    7    0    0  1.82434342808E+01 -1.83741784431E+01  1.08569583614E+01  2.80770019182E+01  1.05660000003E-01  0.00000000000E+00  1.
      -14    1    7    7    0    0 -5.26634505211E+01  2.30348681908E+01  5.12965953679E+01  7.70414490368E+01  6.74349576174E-07  0.00000000000E+00  1.
</event>
<event>
 9 111   1.0000000E+00   7.4550000E+01   7.8125000E-03   1.3429423E-01
        3   -1    0    0  502    0  0.00000000000E+00  0.00000000000E+00  3.40481681837E+03  3.40481681837E+03  0.00000000000E+00  0.00000000000E+00  1.
       -5   -1    0    0    0  501  0.00000000000E+00  0.00000000000E+00 -2.96570894143E+01  2.96570894143E+01  0.00000000000E+00  0.00000000000E+00  1.
       25    1    1    2    0    0 -1.09360572993E+02 -6.64081615674E+01  4.07500087902E+02  4.45029325425E+02  1.25000000000E+02  0.00000000000E+00  1.
       -6    2    1    2    0  501  1.23225113770E+02  8.24785897776E+01  1.20258675836E+03  1.22424409364E+03  1.74847198988E+02  0.00000000000E+00  1.
        4    1    1    2  502    0 -1.38645407769E+01 -1.60704282102E+01  1.76507288270E+03  1.76520048872E+03  2.15791864376E-05  0.00000000000E+00  1.
       -5    1    4    4    0  501  4.94470708134E+01 -3.67879459184E+01  4.61872822384E+02  4.65990807134E+02  4.74999999999E+00  0.00000000000E+00  1.
      -24    2    4    4    0    0  7.37780429566E+01  1.19266535696E+02  7.40713935972E+02  7.58253286502E+02  8.13830780185E+01  0.00000000000E+00  1.
        1    1    7    7  704    0  9.52857968220E+00 -3.20745313991E+00  1.95936680620E+02  1.96194455576E+02  4.67203091199E-06  0.00000000000E+00  1.
       -2    1    7    7    0  704  6.42494632744E+01  1.22473988836E+02  5.44777255353E+02  5.62058830926E+02  7.62939453125E-06  0.00000000000E+00  1.
</event>
<event>
 9 111   1.0000000E+00   7.4550000E+01   7.8125000E-03   1.3429423E-01
       -2   -1    0    0    0  502  0.00000000000E+00  0.00000000000E+00  8.16160761526E+02  8.16160761526E+02  0.00000000000E+00  0.00000000000E+00  1.
       -5   -1    0    0    0  501  0.00000000000E+00  0.00000000000E+00 -1.52909107714E+03  1.52909107714E+03  0.00000000000E+00  0.00000000000E+00  1.
       25    1    1    2    0    0 -2.88384852256E+01 -2.86137203240E+01 -1.19380466182E+03  1.20101830703E+03  1.25000000000E+02  0.00000000000E+00  1.
       -6    2    1    2    0  501  6.32331827106E+01 -9.28918231637E+01 -2.93922732317E+02  3.59213082727E+02  1.73251666725E+02  0.00000000000E+00  1.
       -1    1    1    2    0  502 -3.43946974851E+01  1.21505543488E+02  7.74797078528E+02  7.85020448911E+02  0.00000000000E+00  0.00000000000E+00  1.
       -5    1    4    4    0  501 -1.67430694303E+01  2.74838049028E+01 -1.00066926023E+02  1.05221870776E+02  4.75000000000E+00  0.00000000000E+00  1.
      -24    2    4    4    0    0  7.99762521409E+01 -1.20375628067E+02 -1.93855806294E+02  2.53991211951E+02  7.77494011261E+01  0.00000000000E+00  1.
        1    1    7    7  704    0  1.11359343025E+01 -8.65642982937E+01 -1.08311718954E+02  1.39100018816E+02  2.33601545599E-06  0.00000000000E+00  1.
       -2    1    7    7    0  704  6.88403178384E+01 -3.38113297728E+01 -8.55440873400E+01  1.14891193135E+02  1.34869915235E-06  0.00000000000E+00  1.
</event>
<event>
 9 111   1.0000000E+00   7.4550000E+01   7.8125000E-03   1.3429423E-01
        3   -1    0    0  502    0  0.00000000000E+00  0.00000000000E+00  2.94886817287E+02  2.94886817287E+02  0.00000000000E+00  0.00000000000E+00  1.
       -5   -1    0    0    0  501  0.00000000000E+00  0.00000000000E+00 -3.02875064489E+02  3.02875064489E+02  0.00000000000E+00  0.00000000000E+00  1.
       25    1    1    2    0    0 -8.19388189633E+00 -2.55485939527E+01 -8.81800429422E+01  1.55308049781E+02  1.25000000000E+02  0.00000000000E+00  1.
       -6    2    1    2    0  501 -4.81959242792E+01 -4.44832453188E+01 -1.21649996205E+02  2.21491442145E+02  1.73084173556E+02  0.00000000000E+00  1.
        4    1    1    2  502    0  5.63898061755E+01  7.00318392716E+01  2.01841791946E+02  2.20962389850E+02  2.69739830470E-06  0.00000000000E+00  1.
       -5    1    4    4    0  501 -3.42397555685E-01  1.54498455587E+01 -1.08562469087E+02  1.09759679110E+02  4.75000000000E+00  0.00000000000E+00  1.
      -24    2    4    4    0    0 -4.78535267235E+01 -5.99330908775E+01 -1.30875271178E+01  1.11731763035E+02  8.01920700750E+01  0.00000000000E+00  1.
       11    1    7    7    0    0 -2.01001108623E+01 -5.45447694178E+01  2.58451024645E+01  6.36169446703E+01  5.10999710104E-04  0.00000000000E+00  1.
      -12    1    7    7    0    0 -2.77534158612E+01 -5.38832145973E+00 -3.89326295822E+01  4.81148183651E+01  9.53674316406E-07  0.00000000000E+00  1.
</event>
<event>
 9 111   1.0000000E+00   7.4550000E+01   7.8125000E-03   1.3429423E-01
       -2   -1    0    0    0  502  0.00000000000E+00  0.00000000000E+00  7.01535447076E+02  7.01535447076E+02  0.00000000000E+00  0.00000000000E+00  1.
       -5   -1    0    0    0  501  0.00000000000E+00  0.00000000000E+00 -8.54599836298E+01  8.54599836298E+01  0.00000000000E+00  0.00000000000E+00  1.
       25    1    1    2    0    0  5.63168909668E+01 -9.63643847079E+00  3.56388925422E+02  3.81971882889E+02  1.25000000000E+02  0.00000000000E+00  1.
       -6    2    1    2    0  501  1.13497037743E+01 -7.87154370289E+01  1.14312162450E+02  2.21942879745E+02  1.72819083387E+02  0.00000000000E+00  1.
       -1    1    1    2    0  502 -6.76665947410E+01  8.83518754997E+01  1.45374375574E+02  1.83080668072E+02  0.00000000000E+00  0.00000000000E+00  1.
       -5    1    4    4    0  501  2.27820479392E+01 -5.35550159897E+01 -2.04702956453E+01  6.18769500684E+01  4.75000000000E+00  0.00000000000E+00  1.
      -24    2    4    4    0    0 -1.14323441649E+01 -2.51604210392E+01  1.34782458096E+02  1.60065929676E+02  8.17988114388E+01  0.00000000000E+00  1.
        3    1    7    7  704    0  3.02880045557E+01  1.45386140364E+00  2.37903718444E+01  3.85416492309E+01  1.71926082395E-06  0.00000000000E+00  1.
       -4    1    7    7    0  704 -4.17203487205E+01 -2.66142824428E+01  1.10992086251E+02  1.21524280445E+02  2.33601545599E-06  0.00000000000E+00  1.
</event>
<event>
 9 111   1.0000000E+00   7.4550000E+01   7.8125000E-03   1.3429423E-01
       -4   -1    0    0    0  502  0.00000000000E+00  0.00000000000E+00  5.38243321962E+01  5.38243321962E+01  0.00000000000E+00  0.00000000000E+00  1.
       -5   -1    0    0    0  501  0.00000000000E+00  0.00000000000E+00 -8.65310768894E+02  8.65310768894E+02  0.00000000000E+00  0.00000000000E+00  1.
       25    1    1    2    0    0  2.97655272327E+01  3.06903001272E+01 -4.00084544843E+02  4.21331845646E+02  1.25000000000E+02  0.00000000000E+00  1.
       -6    2    1    2    0  501 -6.13109843961E+01 -4.08382821332E+01 -4.23611066290E+02  4.62488083820E+02  1.70358710071E+02  0.00000000000E+00  1.
       -3    1    1    2    0  502  3.15454571633E+01  1.01479820061E+01  1.22091744353E+01  3.53151716240E+01  2.95869675779E-06  0.00000000000E+00  1.
       -5    1    4    4    0  501 -5.62270191371E+01 -7.77005868035E+01 -2.00299944601E+02  2.22129442393E+02  4.75000000000E+00  0.00000000000E+00  1.
      -24    2    4    4    0    0 -5.08396525898E+00  3.68623046703E+01 -2.23311121688E+02  2.40358641427E+02  8.07449269632E+01  0.00000000000E+00  1.
        1    1    7    7  704    0  3.67864907573E+01  1.99985744918E+01 -8.29636835039E+01  9.29309510577E+01  9.53674316406E-07  0.00000000000E+00  1.
       -2    1    7    7    0  704 -4.18704560163E+01  1.68637301784E+01 -1.40347438185E+02  1.47427690369E+02  0.00000000000E+00  0.00000000000E+00  1.
</event>
<event>
 9 111   1.0000000E+00   7.4550000E+01   7.8125000E-03   1.3429423E-01
        1   -1    0    0  502    0  0.00000000000E+00  0.00000000000E+00  9.81973899114E+02  9.81973899114E+02  0.00000000000E+00  0.00000000000E+00  1.
       -5   -1    0    0    0  501  0.00000000000E+00  0.00000000000E+00 -8.70521154966E+01  8.70521154966E+01  0.00000000000E+00  0.00000000000E+00  1.
       25    1    1    2    0    0 -2.78755077273E+01 -1.89144338209E+02  3.88517726081E+02  4.50692409617E+02  1.25000000000E+02  0.00000000000E+00  1.
       -6    2    1    2    0  501  1.98040864094E+01  1.81413110549E+02  2.24612568888E+02  3.36320550689E+02  1.71341145659E+02  0.00000000000E+00  1.
        2    1    1    2  502    0  8.07142131792E+00  7.73122766057E+00  2.81791488649E+02  2.82013054304E+02  3.81469726562E-06  0.00000000000E+00  1.
       -5    1    4    4    0  501 -1.91583617489E+01  1.56172964759E+02  1.42396945965E+02  2.12265141902E+02  4.75000000000E+00  0.00000000000E+00  1.
      -24    2    4    4    0    0  3.89624481583E+01  2.52401457896E+01  8.22156229232E+01  1.24055408787E+02  8.04686179249E+01  0.00000000000E+00  1.
        3    1    7    7  704    0 -6.42632959393E+00  2.16042774931E+01  7.45469718372E+01  7.78799944026E+01  1.90734863281E-06  0.00000000000E+00  1.
       -4    1    7    7    0  704  4.53887777522E+01  3.63586829648E+00  7.66865108598E+00  4.61754143846E+01  1.18011175831E-06  0.00000000000E+00  1.
</event>
<event>
 9 111   1.0000000E+00   7.4550000E+01   7.8125000E-03   1.3429423E-01
        1   -1    0    0  502    0  0.00000000000E+00  0.00000000000E+00  3.42149984982E+02  3.42149984982E+02  0.00000000000E+00  0.00000000000E+00  1.
       -5   -1    0    0    0  501  0.00000000000E+00  0.00000000000E+00 -2.42218169354E+02  2.42218169354E+02  0.00000000000E+00  0.00000000000E+00  1.
       25    1    1    2    0    0  2.72031614222E+01  2.99567043227E+01 -1.60070200110E+01  1.32358002459E+02  1.25000000000E+02  0.00000000000E+00  1.
       -6    2    1    2    0  501 -1.49707354534E+01 -3.79353250799E+01 -1.22642963818E+02  2.12981773506E+02  1.69282980429E+02  0.00000000000E+00  1.
        2    1    1    2  502    0 -1.22324259688E+01  7.97862075718E+00  2.38581799457E+02  2.39028378371E+02  0.00000000000E+00  0.00000000000E+00  1.
       -5    1    4    4    0  501  9.84193437759E-01  3.41188585052E+01 -9.43990326057E+01  1.00492810685E+02  4.75000000000E+00  0.00000000000E+00  1.
      -24    2    4    4    0    0 -1.59549288911E+01 -7.20541835851E+01 -2.82439312123E+01  1.12488962821E+02  8.00604894956E+01  0.00000000000E+00  1.
        1    1    7    7  704    0  2.83277102079E+01 -5.64102319643E+00 -1.03745974356E+01  3.06905943291E+01  1.67742339128E-06  0.00000000000E+00  1.
       -2    1    7    7    0  704 -4.42826390990E+01 -6.64131603887E+01 -1.78693337767E+01  8.17983684923E+01  9.53674316406E-07  0.00000000000E+00  1.
</event>
<event>
 9 111   1.0000000E+00   7.4550000E+01   7.8125000E-03   1.3429423E-01
        1   -1    0    0  502    0  0.00000000000E+00  0.00000000000E+00  3.21241817801E+02  3.21241817801E+02  0.00000000000E+00  0.00000000000E+00  1.
       -5   -1    0    0    0  501  0.00000000000E+00  0.00000000000E+00 -1.57188339106E+02  1.57188339106E+02  0.00000000000E+00  0.00000000000E+00  1.
       25    1    1    2    0    0 -1.09392832141E+02  3.59327659918E+01 -2.77693890865E+01  1.72203642139E+02  1.25000000000E+02  0.00000000000E+00  1.
       -6    2    1    2    0  501  1.02388296585E+02 -2.96681045899E+01  1.36726285138E+02  2.50334270942E+02  1.80581312580E+02  0.00000000000E+00  1.
        2    1    1    2  502    0  7.00453555575E+00 -6.26466140185E+00  5.50965826438E+01  5.58922438255E+01  9.53674316406E-07  0.00000000000E+00  1.
       -5    1    4    4    0  501 -2.05375731828E+01 -5.24754192173E+01  6.05401065806E+01  8.28440012255E+01  4.75000000000E+00  0.00000000000E+00  1.
      -24    2    4    4    0    0  1.22925869768E+02  2.28073146274E+01  7.61861785576E+01  1.67490269717E+02  8.13493305929E+01  0.00000000000E+00  1.
        1    1    7    7  704    0  1.28387522086E+02  1.37104237438E+01  8.42413438011E+01  1.54168529707E+02  1.90734863281E-06  0.00000000000E+00  1.
       -2    1    7    7    0  704 -5.46165231805E+00  9.09689088353E+00 -8.05516524352E+00  1.33217400099E+01  1.41553188408E-06  0.00000000000E+00  1.
</event>
<event>
 9 111   1.0000000E+00   7.4550000E+01   7.8125000E-03   1.3429423E-01
       -2   -1    0    0    0  502  0.00000000000E+00  0.00000000000E+00  3.33136324285E+02  3.33136324285E+02  0.00000000000E+00  0.00000000000E+00  1.
       -5   -1    0    0    0  501  0.00000000000E+00  0.00000000000E+00 -1.27822801524E+02  1.27822801524E+02  0.00000000000E+00  0.00000000000E+00  1.
       25    1    1    2    0    0  3.38748574164E+01  7.01917420603E+00  4.70974441779E+01  1.37985303636E+02  1.25000000000E+02  0.00000000000E+00  1.
       -6    2    1    2    0  501  5.16473231464E+00 -2.66336289883E+01  1.91747749907E+01  1.77229866868E+02  1.74088279506E+02  0.00000000000E+00  1.
       -1    1    1    2    0  502 -3.90395897311E+01  1.96144547823E+01  1.39041303592E+02  1.45743955303E+02  3.81469726562E-06  0.00000000000E+00  1.
       -5    1    4    4    0  501  4.39213605315E+01 -5.95596723281E+01 -1.46857087108E+01  7.55954563390E+01  4.75000000000E+00  0.00000000000E+00  1.
      -24    2    4    4    0    0 -3.87566282169E+01  3.29260433397E+01  3.38604837014E+01  1.01634410529E+02  8.12208131357E+01  0.00000000000E+00  1.
       15    1    7    7    0    0  1.16849008904E+01 -1.47675268287E+01  2.54475678051E+01  3.17072938437E+01  1.77680000000E+00  0.00000000000E+00  1.
      -16    1    7    7    0    0 -5.04415291073E+01  4.76935701685E+01  8.41291589637E+00  6.99271166857E+01  1.10550147241E-06  0.00000000000E+00  1.
</event>
<event>
 9 111   1.0000000E+00   7.4550000E+01   7.8125000E-03   1.3429423E-01
       -2   -1    0    0    0  502  0.00000000000E+00  0.00000000000E+00  2.43098389173E+03  2.43098389173E+03  0.00000000000E+00  0.00000000000E+00  1.
       -5   -1    0    0    0  501  0.00000000000E+00  0.00000000000E+00 -5.66999056358E+01  5.66999056358E+01  0.00000000000E+00  0.00000000000E+00  1.
       25    1    1    2    0    0  4.22081433206E+01 -2.07381624663E+02  1.07170994981E+03  1.09953439334E+03  1.25000000000E+02  0.00000000000E+00  1.
       -6    2    1    2    0  501 -1.85329306008E+02  2.06645721072E+02  1.01790916472E+03  1.06953004199E+03  1.75231382446E+02  0.00000000000E+00  1.
       -1    1    1    2    0  502  1.43121162688E+02  7.35903590668E-01  2.84664871561E+02  3.18619362036E+02  7.62939453125E-06  0.00000000000E+00  1.
       -5    1    4    4    0  501 -1.12717035512E+02  2.69472336812E+01  4.16788827970E+02  4.32627753523E+02  4.74999999999E+00  0.00000000000E+00  1.
      -24    2    4    4    0    0 -7.26122704963E+01  1.79698487391E+02  6.01120336754E+02  6.36902288470E+02  8.20656907743E+01  0.00000000000E+00  1.
       13    1    7    7    0    0 -6.06439010637E+01  1.52601979732E+02  5.72974355119E+02  5.96040828922E+02  1.05660000228E-01  0.00000000000E+00  1.
      -14    1    7    7    0    0 -1.19683694325E+01  2.70965076592E+01  2.81459816350E+01  4.08614595480E+01  4.29153442383E-06  0.00000000000E+00  1.
</event>
<event>
 9 111   1.0000000E+00   7.4550000E+01   7.8125000E-03   1.3429423E-01
       -5   -1    0    0    0  501  0.00000000000E+00  0.00000000000E+00  5.02842844588E+02  5.02842844588E+02  0.00000000000E+00  0.00000000000E+00  1.
        1   -1    0    0  502    0  0.00000000000E+00  0.00000000000E+00 -1.59542316482E+02  1.59542316482E+02  0.00000000000E+00  0.00000000000E+00  1.
       25    1    1    2    0    0 -1.05649173765E+02 -5.75428270132E+00  2.80147761597E+02  3.24503664100E+02  1.25000000000E+02  0.00000000000E+00  1.
       -6    2    1    2    0  501  1.51843654825E+02 -2.91856775358E+01  1.16496966578E+02  2.59139293656E+02  1.72259487434E+02  0.00000000000E+00  1.
        2    1    1    2  502    0 -4.61944810595E+01  3.49399602371E+01 -5.33442000686E+01  7.87422033136E+01  2.13248059988E-06  0.00000000000E+00  1.
       -5    1    4    4    0  501  1.08167218022E+02 -2.21218453815E+01 -1.16509468531E+00  1.10514447216E+02  4.75000000000E+00  0.00000000000E+00  1.
      -24    2    4    4    0    0  4.36764368026E+01 -7.06383215429E+00  1.17662061263E+02  1.48624846440E+02  7.92934767952E+01  0.00000000000E+00  1.
       11    1    7    7    0    0 -5.06423091925E+00  2.87900771052E+01  4.94450900706E+01  5.74398111668E+01  5.10999042666E-04  0.00000000000E+00  1.
      -12    1    7    7    0    0  4.87406677219E+01 -3.58539092595E+01  6.82169711924E+01  9.11850352735E+01  1.34869915235E-06  0.00000000000E+00  1.
</event>
<event>
 9 111   1.0000000E+00   7.4550000E+01   7.8125000E-03   1.3429423E-01
        1   -1    0    0  502    0  0.00000000000E+00  0.00000000000E+00  2.14386695832E+02  2.14386695832E+02  0.00000000000E+00  0.00000000000E+00  1.
       -5   -1    0    0    0  501  0.00000000000E+00  0.00000000000E+00 -4.69560557244E+02  4.69560557244E+02  0.00000000000E+00  0.00000000000E+00  1.
       25    1    1    2    0    0 -2.04018570720E+01 -6.37612964782E+00 -2.51315893199E+02  2.81498790363E+02  1.25000000000E+02  0.00000000000E+00  1.
       -6    2    1    2    0  501  3.64344919555E+01 -3.22893168414E+01 -1.59158778409E+02  2.41605670581E+02  1.75133409509E+02  0.00000000000E+00  1.
        2    1    1    2  502    0 -1.60326348835E+01  3.86654464892E+01  1.55300810195E+02  1.60842792132E+02  1.90734863281E-06  0.00000000000E+00  1.
       -5    1    4    4    0  501 -1.76933120022E+01  4.98032569200E+01 -6.21190561131E+01  8.16991880120E+01  4.75000000000E+00  0.00000000000E+00  1.
      -24    2    4    4    0    0  5.41278039577E+01 -8.20925737614E+01 -9.70397222964E+01  1.59906482569E+02  8.05255589008E+01  0.00000000000E+00  1.
        1    1    7    7  704    0 -2.83339841579E+00 -6.63489804094E+01 -6.38614568397E+01  9.21330614798E+01  1.65181236989E-06  0.00000000000E+00  1.
       -2    1    7    7    0  704  5.69612023735E+01 -1.57435933521E+01 -3.31782654566E+01  6.77734210895E+01  1.90734863281E-06  0.00000000000E+00  1.
</event>
<event>
 9 111   1.0000000E+00   7.4550000E+01   7.8125000E-03   1.3429423E-01
       -2   -1    0    0    0  502  0.00000000000E+00  0.00000000000E+00  8.26856680715E+02  8.26856680715E+02  0.00000000000E+00  0.00000000000E+00  1.
       -5   -1    0    0    0  501  0.00000000000E+00  0.00000000000E+00 -1.52531457190E+02  1.52531457190E+02  0.00000000000E+00  0.00000000000E+00  1.
       25    1    1    2    0    0 -3.04817174559E+01 -3.97441892013E-01 -1.69386615158E+01  1.29773692685E+02  1.25000000000E+02  0.00000000000E+00  1.
       -6    2    1    2    0  501  9.15049884282E+01 -5.35013766670E+01  5.89123551539E+01  2.12042975035E+02  1.73942511939E+02  0.00000000000E+00  1.
       -1    1    1    2    0  502 -6.10232709723E+01  5.38988185590E+01  6.32351529887E+02  6.37571470184E+02  7.62939453125E-06  0.00000000000E+00  1.
       -5    1    4    4    0  501  9.99507370266E+01 -2.87994939298E+01  7.03509729738E+01  1.25663767973E+02  4.75000000000E+00  0.00000000000E+00  1.
      -24    2    4    4    0    0 -8.44574859843E+00 -2.47018827372E+01 -1.14386178198E+01  8.63792070626E+01  8.15414726074E+01  0.00000000000E+00  1.
       13    1    7    7    0    0  3.68622229020E+00 -1.68198242167E+01  3.43148174356E+01  3.83928714884E+01  1.05660000014E-01  0.00000000000E+00  1.
      -14    1    7    7    0    0 -1.21319708886E+01 -7.88205852046E+00 -4.57534352554E+01  4.79863355741E+01  1.34869915235E-06  0.00000000000E+00  1.
</event>
<event>
 9 111   1.0000000E+00   7.4550000E+01   7.8125000E-03   1.3429423E-01
        1   -1    0    0  502    0  0.00000000000E+00  0.00000000000E+00  2.31852193396E+03  2.31852193396E+03  0.00000000000E+00  0.00000000000E+00  1.
       -5   -1    0    0    0  501  0.00000000000E+00  0.00000000000E+00 -3.07591489601E+01  3.07591489601E+01  0.00000000000E+00  0.00000000000E+00  1.
       25    1    1    2    0    0 -4.07781478315E+01  4.46619919698E+01  3.75045162143E+02  3.99926773941E+02  1.25000000000E+02  0.00000000000E+00  1.
       -6    2    1    2    0  501  3.79914982689E+00 -6.29669094794E+01  4.27042729428E+02  4.63106548591E+02  1.67698888968E+02  0.00000000000E+00  1.
        2    1    1    2  502    0  3.69789980046E+01  1.83049175096E+01  1.48567489343E+03  1.48624776039E+03  2.15791864376E-05  0.00000000000E+00  1.
       -5    1    4    4    0  501 -6.60469455668E+00  1.06968638371E+01 -7.34668562080E+00  1.53160430839E+01  4.75000000001E+00  0.00000000000E+00  1.
      -24    2    4    4    0    0  1.04038443836E+01 -7.36637733165E+01  4.34389415049E+02  4.47790505507E+02  7.92942711553E+01  0.00000000000E+00  1.
        3    1    7    7  704    0  3.31549332520E+01 -7.32946795703E+01  3.86331619417E+02  3.94618144304E+02  0.00000000000E+00  0.00000000000E+00  1.
       -4    1    7    7    0  704 -2.27510888685E+01 -3.69093746113E-01  4.80577956322E+01  5.31723612032E+01  2.23656452171E-06  0.00000000000E+00  1.
</event>
<event>
 9 111   1.0000000E+00   7.4550000E+01   7.8125000E-03   1.3429423E-01
       -5   -1    0    0    0  501  0.00000000000E+00  0.00000000000E+00  1.46450922541E+03  1.46450922541E+03  0.00000000000E+00  0.00000000000E+00  1.
       -2   -1    0    0    0  502  0.00000000000E+00  0.00000000000E+00 -1.08664512012E+03  1.08664512012E+03  0.00000000000E+00  0.00000000000E+00  1.
       25    1    1    2    0    0 -5.24733294981E+02 -5.83256486748E+02  1.12538864416E+03  1.37755499367E+03  1.25000000000E+02  0.00000000000E+00  1.
       -6    2    1    2    0  501  5.14499310256E+02  5.65367099337E+02 -5.09216329281E+02  9.34401593962E+02  1.71626255351E+02  0.00000000000E+00  1.
       -1    1    1    2    0  502  1.02339847251E+01  1.78893874109E+01 -2.38308209588E+02  2.39197757896E+02  1.17576866207E-05  0.00000000000E+00  1.
       -5    1    4    4    0  501  1.44705047652E+01  6.90835565405E+01 -7.41272946730E+01  1.02466343782E+02  4.74999999999E+00  0.00000000000E+00  1.
      -24    2    4    4    0    0  5.00028805490E+02  4.96283542796E+02 -4.35089034608E+02  8.31935250180E+02  8.05458334461E+01  0.00000000000E+00  1.
        3    1    7    7  704    0  1.29713310118E+02  8.27381385351E+01 -1.00868331278E+02  1.83971635436E+02  0.00000000000E+00  0.00000000000E+00  1.
       -4    1    7    7    0  704  3.70315495373E+02  4.13545404261E+02 -3.34220703330E+02  6.47963614745E+02  1.00927402918E-05  0.00000000000E+00  1.
</event>
<event>
 9 111   1.0000000E+00   7.4550000E+01   7.8125000E-03   1.3429423E-01
       -5   -1    0    0    0  501  0.00000000000E+00  0.00000000000E+00  8.46259434668E+02  8.46259434668E+02  0.00000000000E+00  0.00000000000E+00  1.
       -2   -1    0    0    0  502  0.00000000000E+00  0.00000000000E+00 -1.21820750679E+02  1.21820750679E+02  0.00000000000E+00  0.00000000000E+00  1.
       25    1    1    2    0    0  5.91140342575E+01 -2.36153325430E+01  1.16544011696E+02  1.82372310507E+02  1.25000000000E+02  0.00000000000E+00  1.
       -6    2    1    2    0  501 -1.03348977508E+01 -9.74250707171E+01  6.23130415696E+02  6.54321759680E+02  1.73916634368E+02  0.00000000000E+00  1.
       -1    1    1    2    0  502 -4.87791365067E+01  1.21040403260E+02 -1.52357434026E+01  1.31386115160E+02  2.72882536465E-06  0.00000000000E+00  1.
       -5    1    4    4    0  501 -5.70465328232E+01  2.61912158156E+00  1.19448478759E+02  1.32482709373E+02  4.75000000001E+00  0.00000000000E+00  1.
      -24    2    4    4    0    0  4.67116350725E+01 -1.00044192299E+02  5.03681936937E+02  5.21839050307E+02  8.01853076633E+01  0.00000000000E+00  1.
       15    1    7    7    0    0 -1.09276660298E+01  3.77559588950E+00  1.10480438628E+02  1.11097944836E+02  1.77680000000E+00  0.00000000000E+00  1.
      -16    1    7    7    0    0  5.76393011023E+01 -1.03819788188E+02  3.93201498309E+02  4.10741105471E+02  0.00000000000E+00  0.00000000000E+00  1.
</event>
<event>
 9 111   1.0000000E+00   7.4550000E+01   7.8125000E-03   1.3429423E-01
        1   -1    0    0  502    0  0.00000000000E+00  0.00000000000E+00  1.49375362174E+03  1.49375362174E+03  0.00000000000E+00  0.00000000000E+00  1.
       -5   -1    0    0    0  501  0.00000000000E+00  0.00000000000E+00 -3.84320601704E+02  3.84320601704E+02  0.00000000000E+00  0.00000000000E+00  1.
       25    1    1    2    0    0  1.05307749570E+02  8.37904504444E+01 -1.95744362035E+02  2.68423950074E+02  1.25000000000E+02  0.00000000000E+00  1.
       -6    2    1    2    0  501 -2.71514954196E+02 -9.38424653478E+00  3.13961394333E+01  3.22918066520E+02  1.71703015928E+02  0.00000000000E+00  1.
        2    1    1    2  502    0  1.66207204626E+02 -7.44062039096E+01  1.27378124264E+03  1.28673220685E+03  2.15791864376E-05  0.00000000000E+00  1.
       -5    1    4    4    0  501 -1.47141855871E+02  3.06660927806E+01 -3.69445344093E+01  1.54850237708E+02  4.75000000000E+00  0.00000000000E+00  1.
      -24    2    4    4    0    0 -1.24373098325E+02 -4.00503393154E+01  6.83406738426E+01  1.68067828812E+02  8.06452113522E+01  0.00000000000E+00  1.
        3    1    7    7  704    0 -4.24035675274E+01 -3.48446368483E+01 -8.56577335251E+00  5.55480308316E+01  9.97376473587E-07  0.00000000000E+00  1.
       -4    1    7    7    0  704 -8.19695307975E+01 -5.20570246707E+00  7.69064471951E+01  1.12519797980E+02  1.34869915235E-06  0.00000000000E+00  1.
</event>
<event>
 9 111   1.0000000E+00   7.4550000E+01   7.8125000E-03   1.3429423E-01
       -4   -1    0    0    0  502  0.00000000000E+00  0.00000000000E+00  2.30447062305E+02  2.30447062305E+02  0.00000000000E+00  0.00000000000E+00  1.
       -5   -1    0    0    0  501  0.00000000000E+00  0.00000000000E+00 -1.20224654530E+03  1.20224654530E+03  0.00000000000E+00  0.00000000000E+00  1.
       25    1    1    2    0    0  1.06149068940E+02 -2.18916924415E+01 -3.96924243985E+02  4.30024099903E+02  1.25000000000E+02  0.00000000000E+00  1.
       -6    2    1    2    0  501 -1.16427454308E+02  6.89061650473E+01 -7.70610610089E+02  8.01104775335E+02  1.72118380730E+02  0.00000000000E+00  1.
       -3    1    1    2    0  502  1.02783853675E+01 -4.70144726059E+01  1.95735371082E+02  2.01564732364E+02  1.47742589806E-05  0.00000000000E+00  1.
       -5    1    4    4    0  501  1.53976992908E+01  4.62430264325E+01 -3.42511284469E+02  3.45994290597E+02  4.75000000000E+00  0.00000000000E+00  1.
      -24    2    4    4    0    0 -1.31825153599E+02  2.26631386149E+01 -4.28099325619E+02  4.55110484738E+02  7.72336179991E+01  0.00000000000E+00  1.
       11    1    7    7    0    0 -8.74677708977E+01  6.91170076680E+00 -1.56103841729E+02  1.79072030077E+02  5.10998597706E-04  0.00000000000E+00  1.
      -12    1    7    7    0    0 -4.43573827010E+01  1.57514378481E+01 -2.71995483891E+02  2.76038454660E+02  5.39479660939E-06  0.00000000000E+00  1.
</event>
<event>
 9 111   1.0000000E+00   7.4550000E+01   7.8125000E-03   1.3429423E-01
        1   -1    0    0  502    0  0.00000000000E+00  0.00000000000E+00  3.09397551175E+02  3.09397551175E+02  0.00000000000E+00  0.00000000000E+00  1.
       -5   -1    0    0    0  501  0.00000000000E+00  0.00000000000E+00 -3.85806905149E+02  3.85806905149E+02  0.00000000000E+00  0.00000000000E+00  1.
       25    1    1    2    0    0  6.21624609709E+01 -1.46781368211E-01 -1.22688468977E+02  1.85853849890E+02  1.25000000000E+02  0.00000000000E+00  1.
       -6    2    1    2    0  501 -6.13610490352E+01 -8.47559281554E+00 -1.95184534643E+02  2.67731729485E+02  1.72471047996E+02  0.00000000000E+00  1.
        2    1    1    2  502    0 -8.01411935642E-01  8.62237418375E+00  2.41463649647E+02  2.41618876950E+02  6.60724947956E-06  0.00000000000E+00  1.
       -5    1    4    4    0  501 -3.20567179658E+01 -5.85224863268E+01 -2.61418954367E+01  7.18225296800E+01  4.75000000000E+00  0.00000000000E+00  1.
      -24    2    4    4    0    0 -2.93043310694E+01  5.00468935113E+01 -1.69042639207E+02  1.95909199805E+02  8.02593628726E+01  0.00000000000E+00  1.
       15    1    7    7    0    0 -2.61275201541E+01  1.18690438725E-01 -8.16404058426E+00  2.74311861523E+01  1.77680000000E+00  0.00000000000E+00  1.
      -16    1    7    7    0    0 -3.17681091535E+00  4.99282030726E+01 -1.60878598622E+02  1.68478013653E+02  2.69739830470E-06  0.00000000000E+00  1.
</event>
<event>
 9 111   1.0000000E+00   7.4550000E+01   7.8125000E-03   1.3429423E-01
       -5   -1    0    0    0  501  0.00000000000E+00  0.00000000000E+00  8.70175824812E+02  8.70175824812E+02  0.00000000000E+00  0.00000000000E+00  1.
        1   -1    0    0  502    0  0.00000000000E+00  0.00000000000E+00 -5.29060085788E+02  5.29060085788E+02  0.00000000000E+00  0.00000000000E+00  1.
       25    1    1    2    0    0 -2.00431962095E+00 -1.40010336555E+02  1.03744420506E+02  2.14464021284E+02  1.25000000000E+02  0.00000000000E+00  1.
       -6    2    1    2    0  501  1.36982249945E+02  2.12171374653E+02  6.63911065621E+02  7.31602590982E+02  1.75167402949E+02  0.00000000000E+00  1.
        2    1    1    2  502    0 -1.34977930324E+02 -7.21610380981E+01 -4.26539747102E+02  4.53169298333E+02  1.52587890625E-05  0.00000000000E+00  1.
       -5    1    4    4    0  501  5.92036883746E+01  1.02130611002E+01  2.51623881655E+02  2.58740262915E+02  4.74999999999E+00  0.00000000000E+00  1.
      -24    2    4    4    0    0  7.77785615704E+01  2.01958313553E+02  4.12287183966E+02  4.72862328067E+02  8.23492209403E+01  0.00000000000E+00  1.
        1    1    7    7  704    0  3.01363613678E+01  1.16765653442E+01  8.93932109882E+01  9.50562392771E+01  5.64201334295E-06  0.00000000000E+00  1.
       -2    1    7    7    0  704  4.76422002026E+01  1.90281748209E+02  3.22893972977E+02  3.77806088790E+02  0.00000000000E+00  0.00000000000E+00  1.
</event>
<event>
 9 111   1.0000000E+00   7.4550000E+01   7.8125000E-03   1.3429423E-01
       -5   -1    0    0    0  501  0.00000000000E+00  0.00000000000E+00  3.68230275471E+02  3.68230275471E+02  0.00000000000E+00  0.00000000000E+00  1.
       -2   -1    0    0    0  502  0.00000000000E+00  0.00000000000E+00 -2.66114226420E+02  2.66114226420E+02  0.00000000000E+00  0.00000000000E+00  1.
       25    1    1    2    0    0  6.73111090806E+01  6.71109417804E+00  1.22582760076E+02  1.87689523572E+02  1.25000000000E+02  0.00000000000E+00  1.
       -6    2    1    2    0  501 -8.08781614079E+01  3.04827892053E+01  1.65967560602E+02  2.56063300885E+02  1.74793322118E+02  0.00000000000E+00  1.
       -1    1    1    2    0  502  1.35670523274E+01 -3.71938833834E+01 -1.86434271628E+02  1.90591677435E+02  0.00000000000E+00  0.00000000000E+00  1.
       -5    1    4    4    0  501  3.86766460198E+01 -1.56704766071E+01  5.19962561469E+01  6.68402568646E+01  4.75000000000E+00  0.00000000000E+00  1.
      -24    2    4    4    0    0 -1.19554807428E+02  4.61532658124E+01  1.13971304455E+02  1.89223044020E+02  7.99526498917E+01  0.00000000000E+00  1.
       15    1    7    7    0    0 -6.88989832745E+01  4.80419337602E+00  1.51565991900E+01  7.07320980001E+01  1.77680000000E+00  0.00000000000E+00  1.
      -16    1    7    7    0    0 -5.06558241532E+01  4.13490724364E+01  9.88147052655E+01  1.18490946020E+02  0.00000000000E+00  0.00000000000E+00  1.
</event>
<event>
 9 111   1.0000000E+00   7.4550000E+01   7.8125000E-03   1.3429423E-01
       -5   -1    0    0    0  501  0.00000000000E+00  0.00000000000E+00  1.13240162055E+02  1.13240162055E+02  0.00000000000E+00  0.00000000000E+00  1.
        1   -1    0    0  502    0  0.00000000000E+00  0.00000000000E+00 -9.93099955543E+02  9.93099955543E+02  0.00000000000E+00  0.00000000000E+00  1.
       25    1    1    2    0    0 -8.95072701410E+01 -2.96618221088E+01 -3.56652671681E+01  1.60587628356E+02  1.25000000000E+02  0.00000000000E+00  1.
       -6    2    1    2    0  501  8.21837565277E+01  1.08579445041E+02 -2.05068796217E+02  3.01731275353E+02  1.74484628611E+02  0.00000000000E+00  1.
        2    1    1    2  502    0  7.32351361324E+00 -7.89176229318E+01 -6.39125730103E+02  6.44021213890E+02  1.07895932188E-05  0.00000000000E+00  1.
       -5    1    4    4    0  501 -2.65712982373E+01  7.46525568558E+01 -5.29951849603E+01  9.54467928434E+01  4.75000000000E+00  0.00000000000E+00  1.
      -24    2    4    4    0    0  1.08755054765E+02  3.39268881848E+01 -1.52073611257E+02  2.06284482509E+02  8.03007397508E+01  0.00000000000E+00  1.
        1    1    7    7  704    0  9.55964559555E+01  5.34734054296E+01 -1.44921541571E+02  1.81659958964E+02  2.69739830470E-06  0.00000000000E+00  1.
       -2    1    7    7    0  704  1.31585988096E+01 -1.95465172447E+01 -7.15206968564E+00  2.46245235450E+01  1.85828891613E-06  0.00000000000E+00  1.
</event>
<event>
 9 111   1.0000000E+00   7.4550000E+01   7.8125000E-03   1.3429423E-01
       -5   -1    0    0    0  501  0.00000000000E+00  0.00000000000E+00  5.97830729914E+02  5.97830729914E+02  0.00000000000E+00  0.00000000000E+00  1.
        1   -1    0    0  502    0  0.00000000000E+00  0.00000000000E+00 -1.27883275222E+03  1.27883275222E+03  0.00000000000E+00  0.00000000000E+00  1.
       25    1    1    2    0    0  3.04322618214E+02 -1.36818087267E+01  5.37446028939E+01  3.33635924605E+02  1.25000000000E+02  0.00000000000E+00  1.
       -6    2    1    2    0  501  2.18785445276E+02  2.37924989598E+02  2.21947596969E+02  4.29838047614E+02  1.76138126582E+02  0.00000000000E+00  1.
        2    1    1    2  502    0 -5.23108063490E+02 -2.24243180871E+02 -9.56694222166E+02  1.11318950991E+03  2.15791864376E-05  0.00000000000E+00  1.
       -5    1    4    4    0  501 -1.47082884488E+01 -8.83410684016E+00  3.12288532239E+00  1.80745706862E+01  4.75000000000E+00  0.00000000000E+00  1.
      -24    2    4    4    0    0  2.33493733725E+02  2.46759096438E+02  2.18824711647E+02  4.11763476927E+02  7.90919157701E+01  0.00000000000E+00  1.
        1    1    7    7  704    0  2.09869873970E+02  2.03463073508E+02  1.54251884037E+02  3.30509046791E+02  2.69739830470E-06  0.00000000000E+00  1.
       -2    1    7    7    0  704  2.36238597546E+01  4.32960229302E+01  6.45728276099E+01  8.12544301365E+01  9.53674316406E-07  0.00000000000E+00  1.
</event>
<event>
 9 111   1.0000000E+00   7.4550000E+01   7.8125000E-03   1.3429423E-01
       -5   -1    0    0    0  501  0.00000000000E+00  0.00000000000E+00  2.64596909599E+02  2.64596909599E+02  0.00000000000E+00  0.00000000000E+00  1.
        1   -1    0    0  502    0  0.00000000000E+00  0.00000000000E+00 -1.13879511753E+03  1.13879511753E+03  0.00000000000E+00  0.00000000000E+00  1.
       25    1    1    2    0    0 -4.62398833865E+01  1.18060266355E+02  1.42734156674E+02  2.28198143701E+02  1.25000000000E+02  0.00000000000E+00  1.
       -6    2    1    2    0  501  6.21382071625E+01  3.80560200986E+01 -4.93871370744E+01  1.95005728576E+02  1.74007837220E+02  0.00000000000E+00  1.
        2    1    1    2  502    0 -1.58983237760E+01 -1.56116286454E+02 -9.67545227526E+02  9.80188154847E+02  0.00000000000E+00  0.00000000000E+00  1.
       -5    1    4    4    0  501  7.04228785042E+01  9.71960865136E+00  2.82971023750E+01  7.66625143859E+01  4.75000000000E+00  0.00000000000E+00  1.
      -24    2    4    4    0    0 -8.28467134169E+00  2.83364114472E+01 -7.76842394494E+01  1.18343214190E+02  8.42537078888E+01  0.00000000000E+00  1.
       15    1    7    7    0    0  1.99346473486E+01  2.68243505518E+01 -8.30846377606E+01  8.95720380336E+01  1.77680000000E+00  0.00000000000E+00  1.
      -16    1    7    7    0    0 -2.82193186903E+01  1.51206089543E+00  5.40039831119E+00  2.87711761563E+01  7.02728397998E-07  0.00000000000E+00  1.
</event>
<event>
 9 111   1.0000000E+00   7.4550000E+01   7.8125000E-03   1.3429423E-01
       -5   -1    0    0    0  501  0.00000000000E+00  0.00000000000E+00  9.84801548886E+02  9.84801548886E+02  0.00000000000E+00  0.00000000000E+00  1.
        1   -1    0    0  502    0  0.00000000000E+00  0.00000000000E+00 -5.49610849341E+01  5.49610849341E+01  0.00000000000E+00  0.00000000000E+00  1.
       25    1    1    2    0    0 -1.92841601726E+00  3.87633888677E+01  3.18226447768E+02  3.44092125983E+02  1.25000000000E+02  0.00000000000E+00  1.
       -6    2    1    2    0  501  8.44099504243E+01 -8.07072739838E+01  5.37650723108E+02  5.77209283212E+02  1.74538112640E+02  0.00000000000E+00  1.
        2    1    1    2  502    0 -8.24815344070E+01  4.19438851161E+01  7.39632930764E+01  1.18461224624E+02  1.90734863281E-06  0.00000000000E+00  1.
       -5    1    4    4    0  501  9.43245965878E+01 -6.04550508410E+01  3.95267807069E+02  4.10866334102E+02  4.75000000000E+00  0.00000000000E+00  1.
      -24    2    4    4    0    0 -9.91464616353E+00 -2.02522231427E+01  1.42382916039E+02  1.66342949110E+02  8.29977661638E+01  0.00000000000E+00  1.
        1    1    7    7  704    0 -1.91019282772E+01 -3.48128276710E+01  1.43690672507E+02  1.49076577637E+02  1.90734863281E-06  0.00000000000E+00  1.
       -2    1    7    7    0  704  9.18728211368E+00  1.45606045282E+01 -1.30775646862E+00  1.72663714731E+01  3.44664856977E-07  0.00000000000E+00  1.
</event>
<event>
 9 111   1.0000000E+00   7.4550000E+01   7.8125000E-03   1.3429423E-01
       -5   -1    0    0    0  501  0.00000000000E+00  0.00000000000E+00  5.22261859640E+01  5.22261859640E+01  0.00000000000E+00  0.00000000000E+00  1.
        1   -1    0    0  502    0  0.00000000000E+00  0.00000000000E+00 -1.72922703750E+03  1.72922703750E+03  0.00000000000E+00  0.00000000000E+00  1.
       25    1    1    2    0    0  2.20711659170E+01  9.38213506626E+01 -3.30799827349E+02  3.66528454529E+02  1.25000000000E+02  0.00000000000E+00  1.
       -6    2    1    2    0  501 -1.72090286734E+01 -3.88997671005E+01 -2.02388777491E+02  2.69784394828E+02  1.73242777310E+02  0.00000000000E+00  1.
        2    1    1    2  502    0 -4.86213724358E+00 -5.49215835621E+01 -1.14381224670E+03  1.14514037411E+03  0.00000000000E+00  0.00000000000E+00  1.
       -5    1    4    4    0  501 -6.65978095983E+01 -6.37246115302E-01 -3.85345628660E+01  7.70918242175E+01  4.75000000000E+00  0.00000000000E+00  1.
      -24    2    4    4    0    0  4.93887809249E+01 -3.82625209852E+01 -1.63854214625E+02  1.92692570611E+02  7.98683349309E+01  0.00000000000E+00  1.
        1    1    7    7  704    0  1.18459106384E+01 -5.75579351876E+01 -8.65424981046E+01  1.04608056478E+02  1.65181236989E-06  0.00000000000E+00  1.
       -2    1    7    7    0  704  3.75428702865E+01  1.92954142024E+01 -7.73117165207E+01  8.80845141326E+01  9.53674316406E-07  0.00000000000E+00  1.
</event>
<event>
 9 111   1.0000000E+00   7.4550000E+01   7.8125000E-03   1.3429423E-01
        1   -1    0    0  502    0  0.00000000000E+00  0.00000000000E+00  1.17774150667E+03  1.17774150667E+03  0.00000000000E+00  0.00000000000E+00  1.
       -5   -1    0    0    0  501  0.00000000000E+00  0.00000000000E+00 -8.80152550135E+02  8.80152550135E+02  0.00000000000E+00  0.00000000000E+00  1.
       25    1    1    2    0    0 -9.71258391704E+01 -1.11056154851E+02 -5.98154116814E+02  6.28633633865E+02  1.25000000000E+02  0.00000000000E+00  1.
       -6    2    1    2    0  501 -1.22385499541E+02  1.55772291403E+02 -1.88375605443E+02  3.22238259478E+02  1.70613334409E+02  0.00000000000E+00  1.
        2    1    1    2  502    0  2.19511338711E+02 -4.47161365520E+01  1.08411867880E+03  1.10702216347E+03  2.15791864376E-05  0.00000000000E+00  1.
       -5    1    4    4    0  501 -3.86541261939E+01  2.95295157005E+01 -1.33365088537E+02  1.42038526851E+02  4.75000000000E+00  0.00000000000E+00  1.
      -24    2    4    4    0    0 -8.37313733468E+01  1.26242775703E+02 -5.50105169057E+01  1.80199732627E+02  8.06077252431E+01  0.00000000000E+00  1.
        1    1    7    7  704    0 -2.16745469102E+01  5.34471910298E+01 -6.15127881362E+01  8.43220689798E+01  0.00000000000E+00  0.00000000000E+00  1.
       -2    1    7    7    0  704 -6.20568264366E+01  7.27955846731E+01  6.50227123053E+00  9.58776636471E+01  2.19163612257E-06  0.00000000000E+00  1.
</event>
<event>
 9 111   1.0000000E+00   7.4550000E+01   7.8125000E-03   1.3429423E-01
       -5   -1    0    0    0  501  0.00000000000E+00  0.00000000000E+00  1.20462924481E+03  1.20462924481E+03  0.00000000000E+00  0.00000000000E+00  1.
        1   -1    0    0  502    0  0.00000000000E+00  0.00000000000E+00 -1.76218479818E+02  1.76218479818E+02  0.00000000000E+00  0.00000000000E+00  1.
       25    1    1    2    0    0  6.05264630832E+01 -9.87806249762E+01  3.22336463473E+02  3.64618787624E+02  1.25000000000E+02  0.00000000000E+00  1.
       -6    2    1    2    0  501 -5.71405955995E+01  1.15764805993E+02  8.47113956385E+02  8.74129989967E+02  1.72727086141E+02  0.00000000000E+00  1.
        2    1    1    2  502    0 -3.38586748372E+00 -1.69841810172E+01 -1.41039654867E+02  1.42098947035E+02  7.38712949029E-06  0.00000000000E+00  1.
       -5    1    4    4    0  501  7.89422113560E+00  9.23743594773E+01  2.30407456483E+02  2.48405916836E+02  4.74999999999E+00  0.00000000000E+00  1.
      -24    2    4    4    0    0 -6.50348167351E+01  2.33904465161E+01  6.16706499902E+02  6.25724073131E+02  8.01689983672E+01  0.00000000000E+00  1.
        3    1    7    7  704    0  1.45468841524E+01 -1.06499202383E+01  7.43817804801E+01  7.65354944259E+01  4.86280394897E-06  0.00000000000E+00  1.
       -4    1    7    7    0  704 -7.95817008875E+01  3.40403667543E+01  5.42324719422E+02  5.49188578706E+02  1.07895932188E-05  0.00000000000E+00  1.
</event>
<event>
 9 111   1.0000000E+00   7.4550000E+01   7.8125000E-03   1.3429423E-01
       -5   -1    0    0    0  501  0.00000000000E+00  0.00000000000E+00  9.83933785622E+02  9.83933785622E+02  0.00000000000E+00  0.00000000000E+00  1.
        1   -1    0    0  502    0  0.00000000000E+00  0.00000000000E+00 -3.79959712523E+02  3.79959712523E+02  0.00000000000E+00  0.00000000000E+00  1.
       25    1    1    2    0    0 -1.27360241450E+02 -2.98189815988E+02  6.27776762764E+02  7.17541957886E+02  1.25000000000E+02  0.00000000000E+00  1.
       -6    2    1    2    0  501  3.02642575240E+02  3.08158267558E+02 -5.35706354527E+01  4.68280214207E+02  1.72807696076E+02  0.00000000000E+00  1.
        2    1    1    2  502    0 -1.75282333790E+02 -9.96845157021E+00  2.97679457878E+01  1.78071326052E+02  4.03202403195E-06  0.00000000000E+00  1.
       -5    1    4    4    0  501  1.04214479934E+02  1.67849387307E+02  2.87353814997E+01  1.99705681685E+02  4.75000000000E+00  0.00000000000E+00  1.
      -24    2    4    4    0    0  1.98428095306E+02  1.40308880251E+02 -8.23060169524E+01  2.68574532523E+02  7.93581010935E+01  0.00000000000E+00  1.
        1    1    7    7  704    0  1.26333402949E+02  1.32581772147E+02 -5.78618884176E+01  1.92057421459E+02  4.04609745705E-06  0.00000000000E+00  1.
       -2    1    7    7    0  704  7.20946923574E+01  7.72710810449E+00 -2.44441285348E+01  7.65171110641E+01  3.37174788087E-07  0.00000000000E+00  1.
</event>
<event>
 9 111   1.0000000E+00   7.4550000E+01   7.8125000E-03   1.3429423E-01
       -5   -1    0    0    0  501  0.00000000000E+00  0.00000000000E+00  6.05492087225E+02  6.05492087225E+02  0.00000000000E+00  0.00000000000E+00  1.
        3   -1    0    0  502    0  0.00000000000E+00  0.00000000000E+00 -1.21295601866E+02  1.21295601866E+02  0.00000000000E+00  0.00000000000E+00  1.
       25    1    1    2    0    0  3.94453646798E+01  1.31548582031E+02  3.27227245728E+02  3.76249433988E+02  1.25000000000E+02  0.00000000000E+00  1.
       -6    2    1    2    0  501 -4.45059110594E+01 -1.10073869345E+02  2.08135975011E+02  2.94817458052E+02  1.71754815497E+02  0.00000000000E+00  1.
        4    1    1    2  502    0  5.06054637967E+00 -2.14747126860E+01 -5.11667353801E+01  5.57207970516E+01  1.50789149292E-06  0.00000000000E+00  1.
       -5    1    4    4    0  501 -7.41591243658E+01 -1.53391466077E+01  1.13649058685E+02  1.36651147764E+02  4.75000000000E+00  0.00000000000E+00  1.
      -24    2    4    4    0    0  2.96532133064E+01 -9.47347227377E+01  9.44869163264E+01  1.58166310287E+02  7.89608991936E+01  0.00000000000E+00  1.
        3    1    7    7  704    0  2.23076016479E+01 -2.13860040730E+01  7.61830632865E+01  8.22122216778E+01  2.13248059988E-06  0.00000000000E+00  1.
       -4    1    7    7    0  704  7.34561165848E+00 -7.33487186647E+01  1.83038530399E+01  7.59540886095E+01  6.30796268240E-07  0.00000000000E+00  1.
</event>
<event>
 9 111   1.0000000E+00   7.4550000E+01   7.8125000E-03   1.3429423E-01
       -2   -1    0    0    0  502  0.00000000000E+00  0.00000000000E+00  5.35544570105E+02  5.35544570105E+02  0.00000000000E+00  0.00000000000E+00  1.
       -5   -1    0    0    0  501  0.00000000000E+00  0.00000000000E+00 -5.06977003073E+02  5.06977003073E+02  0.00000000000E+00  0.00000000000E+00  1.
       25    1    1    2    0    0 -7.13372070346E+01 -5.73566642694E+01  2.28182575855E+02  2.75809847481E+02  1.25000000000E+02  0.00000000000E+00  1.
       -6    2    1    2    0  501  8.03158697108E+01  5.60836814783E+01 -4.62551579710E+02  5.03618819714E+02  1.73441440901E+02  0.00000000000E+00  1.
       -1    1    1    2    0  502 -8.97866267626E+00  1.27298279108E+00  2.62936570887E+02  2.63092905983E+02  3.81469726562E-06  0.00000000000E+00  1.
       -5    1    4    4    0  501  6.89487380000E+01  6.51410879816E+01 -3.58557350436E+02  3.70922129115E+02  4.75000000001E+00  0.00000000000E+00  1.
      -24    2    4    4    0    0  1.13671317108E+01 -9.05740650336E+00 -1.03994229274E+02  1.32696690599E+02  8.11317673771E+01  0.00000000000E+00  1.
        3    1    7    7  704    0 -2.03693223272E+01 -3.37271138211E+01 -6.87345826039E+01  7.92267022190E+01  1.90734863281E-06  0.00000000000E+00  1.
       -4    1    7    7    0  704  3.17364540380E+01  2.46697073177E+01 -3.52596466698E+01  5.34699883798E+01  1.06624029994E-06  0.00000000000E+00  1.
</event>
<event>
 9 111   1.0000000E+00   7.4550000E+01   7.8125000E-03   1.3429423E-01
        1   -1    0    0  502    0  0.00000000000E+00  0.00000000000E+00  1.00743187596E+03  1.00743187596E+03  0.00000000000E+00  0.00000000000E+00  1.
       -5   -1    0    0    0  501  0.00000000000E+00  0.00000000000E+00 -1.19695493958E+02  1.19695493958E+02  0.00000000000E+00  0.00000000000E+00  1.
       25    1    1    2    0    0  1.50312252647E+01  3.66241075125E+01  3.25122649298E+02  3.50566684199E+02  1.25000000000E+02  0.00000000000E+00  1.
       -6    2    1    2    0  501 -5.52477723716E+01 -5.55483439774E+01 -2.27412390652E+01  1.89520703808E+02  1.71064310559E+02  0.00000000000E+00  1.
        2    1    1    2  502    0  4.02165471068E+01  1.89242364649E+01  5.85354971771E+02  5.87039981913E+02  1.07895932188E-05  0.00000000000E+00  1.
       -5    1    4    4    0  501  4.03529540817E+01 -4.53422497570E+01 -2.01422588523E+01  6.41291946606E+01  4.75000000000E+00  0.00000000000E+00  1.
      -24    2    4    4    0    0 -9.56007264532E+01 -1.02060942204E+01 -2.59898021293E+00  1.25391509147E+02  8.04525488129E+01  0.00000000000E+00  1.
        1    1    7    7  704    0 -1.01864524674E+01  3.06215050370E+00  3.09069658055E+01  3.26860997196E+01  9.53674316406E-07  0.00000000000E+00  1.
       -2    1    7    7    0  704 -8.54142739859E+01 -1.32682447241E+01 -3.35059460184E+01  9.27054094278E+01  0.00000000000E+00  0.00000000000E+00  1.
</event>
<event>
 9 111   1.0000000E+00   7.4550000E+01   7.8125000E-03   1.3429423E-01
       -5   -1    0    0    0  501  0.00000000000E+00  0.00000000000E+00  4.34748058468E+02  4.34748058468E+02  0.00000000000E+00  0.00000000000E+00  1.
        1   -1    0    0  502    0  0.00000000000E+00  0.00000000000E+00 -1.41703157773E+03  1.41703157773E+03  0.00000000000E+00  0.00000000000E+00  1.
       25    1    1    2    0    0  1.37823224149E+02  1.51945909459E+02  3.51968287741E+02  4.26133167086E+02  1.25000000000E+02  0.00000000000E+00  1.
       -6    2    1    2    0  501 -5.17296756008E+01 -1.46307566106E+02 -2.62409448188E+02  3.50337242811E+02  1.72614025978E+02  0.00000000000E+00  1.
        2    1    1    2  502    0 -8.60935485477E+01 -5.63834335313E+00 -1.07184235882E+03  1.07530922631E+03  0.00000000000E+00  0.00000000000E+00  1.
       -5    1    4    4    0  501 -4.08645575319E+01 -2.72655869456E+01  2.25507100223E+00  4.94061953503E+01  4.75000000000E+00  0.00000000000E+00  1.
      -24    2    4    4    0    0 -1.08651180689E+01 -1.19041979160E+02 -2.64664519190E+02  3.00931047460E+02  7.88869064836E+01  0.00000000000E+00  1.
        3    1    7    7  704    0 -3.94685279768E+01 -3.25516047816E+01 -7.89503529126E+01  9.40772549532E+01  3.30362473978E-06  0.00000000000E+00  1.
       -2    1    7    7    0  704  2.86034099079E+01 -8.64903743788E+01 -1.85714166277E+02  2.06853792507E+02  2.69739830470E-06  0.00000000000E+00  1.
</event>
<event>
 9 111   1.0000000E+00   7.4550000E+01   7.8125000E-03   1.3429423E-01
        1   -1    0    0  502    0  0.00000000000E+00  0.00000000000E+00  1.07449819152E+03  1.07449819152E+03  0.00000000000E+00  0.00000000000E+00  1.
       -5   -1    0    0    0  501  0.00000000000E+00  0.00000000000E+00 -3.85982824727E+02  3.85982824727E+02  0.00000000000E+00  0.00000000000E+00  1.
       25    1    1    2    0    0  6.27292952312E+01  4.50395851080E+00 -1.69741461867E+01  1.40955211898E+02  1.25000000000E+02  0.00000000000E+00  1.
       -6    2    1    2    0  501  6.49139997190E+00 -4.57442017586E+00 -2.84237833209E+02  3.27380790048E+02  1.62246640246E+02  0.00000000000E+00  1.
        2    1    1    2  502    0 -6.92206952031E+01  7.04616650646E-02  9.89727346192E+02  9.92145014305E+02  0.00000000000E+00  0.00000000000E+00  1.
       -5    1    4    4    0  501  4.61855046639E+01  4.11331592354E+01 -1.02671654947E+02  1.19954444933E+02  4.75000000000E+00  0.00000000000E+00  1.
      -24    2    4    4    0    0 -3.96941046920E+01 -4.57075794113E+01 -1.81566178262E+02  2.07426345114E+02  7.99662853695E+01  0.00000000000E+00  1.
       15    1    7    7    0    0 -6.44456118778E+01 -3.45829906907E+01 -1.32308964324E+02  1.51188753530E+02  1.77680000000E+00  0.00000000000E+00  1.
      -16    1    7    7    0    0  2.47515071859E+01 -1.11245887205E+01 -4.92572139389E+01  5.62375915842E+01  1.34869915235E-06  0.00000000000E+00  1.
</event>
<event>
 9 111   1.0000000E+00   7.4550000E+01   7.8125000E-03   1.3429423E-01
       -2   -1    0    0    0  502  0.00000000000E+00  0.00000000000E+00  7.83080657759E+02  7.83080657759E+02  0.00000000000E+00  0.00000000000E+00  1.
       -5   -1    0    0    0  501  0.00000000000E+00  0.00000000000E+00 -9.49852444998E+01  9.49852444998E+01  0.00000000000E+00  0.00000000000E+00  1.
       25    1    1    2    0    0  3.87661720382E+01  1.99007372365E+01  1.25600912944E+02  1.82481354580E+02  1.25000000000E+02  0.00000000000E+00  1.
       -6    2    1    2    0  501 -3.28533528557E+01 -2.61141080623E+01  5.31382181828E+01  1.86156054605E+02  1.73404489563E+02  0.00000000000E+00  1.
       -1    1    1    2    0  502 -5.91281918253E+00  6.21337082574E+00  5.09356282132E+02  5.09428493073E+02  9.34406182397E-06  0.00000000000E+00  1.
       -5    1    4    4    0  501  4.20951218565E+01 -1.59159567065E+01 -2.43138325659E+01  5.13716061268E+01  4.75000000000E+00  0.00000000000E+00  1.
      -24    2    4    4    0    0 -7.49484747122E+01 -1.01981513558E+01  7.74520507487E+01  1.34784448478E+02  8.02916635373E+01  0.00000000000E+00  1.
        3    1    7    7  704    0 -4.40683703266E+01 -4.01564502177E+01  1.97463677784E+01  6.28051016858E+01  1.46971082758E-06  0.00000000000E+00  1.
       -4    1    7    7    0  704 -3.08801043856E+01  2.99582988619E+01  5.77056829703E+01  7.19793467922E+01  1.65181236989E-06  0.00000000000E+00  1.
</event>
<event>
 9 111   1.0000000E+00   7.4550000E+01   7.8125000E-03   1.3429423E-01
       -5   -1    0    0    0  501  0.00000000000E+00  0.00000000000E+00  3.54320491306E+01  3.54320491306E+01  0.00000000000E+00  0.00000000000E+00  1.
        3   -1    0    0  502    0  0.00000000000E+00  0.00000000000E+00 -3.17528814193E+03  3.17528814193E+03  0.00000000000E+00  0.00000000000E+00  1.
       25    1    1    2    0    0 -9.68862007374E+01 -4.64931667639E+01 -3.43358434839E+02  3.80878675203E+02  1.25000000000E+02  0.00000000000E+00  1.
       -6    2    1    2    0  501  7.78663927181E+01  1.12194850128E+02 -7.48714517939E+02  7.80916370117E+02  1.74945958038E+02  0.00000000000E+00  1.
        4    1    1    2  502    0  1.90198080193E+01 -6.57016833646E+01 -2.04778314002E+03  2.04892514574E+03  3.73762472959E-05  0.00000000000E+00  1.
       -5    1    4    4    0  501 -1.98718394977E+01 -1.82599000440E+01 -3.51848723932E+01  4.45965435877E+01  4.75000000003E+00  0.00000000000E+00  1.
      -24    2    4    4    0    0  9.77382322158E+01  1.30454750172E+02 -7.13529645546E+02  7.36319826530E+02  8.04433215890E+01  0.00000000000E+00  1.
       13    1    7    7    0    0  3.86048339239E+00  4.03771869764E+01 -8.14700872419E+01  9.10088283596E+01  1.05660000129E-01  0.00000000000E+00  1.
      -14    1    7    7    0    0  9.38777488234E+01  9.00775631960E+01 -6.32059558304E+02  6.45310998170E+02  0.00000000000E+00  0.00000000000E+00  1.
</event>
<event>
 9 111   1.0000000E+00   7.4550000E+01   7.8125000E-03   1.3429423E-01
        1   -1    0    0  502    0  0.00000000000E+00  0.00000000000E+00  2.41400982023E+02  2.41400982023E+02  0.00000000000E+00  0.00000000000E+00  1.
       -5   -1    0    0    0  501  0.00000000000E+00  0.00000000000E+00 -3.48328075728E+02  3.48328075728E+02  0.00000000000E+00  0.00000000000E+00  1.
       25    1    1    2    0    0  3.72049831230E+01  1.35954252532E+02  1.27163808329E+02  2.27295850599E+02  1.25000000000E+02  0.00000000000E+00  1.
       -6    2    1    2    0  501 -2.13381236907E+01 -1.49349528467E+02 -2.47413133834E+02  3.37761918054E+02  1.73520192824E+02  0.00000000000E+00  1.
        2    1    1    2  502    0 -1.58668594322E+01  1.33952759350E+01  1.33222318005E+01  2.46712890981E+01  5.84003863998E-07  0.00000000000E+00  1.
       -5    1    4    4    0  501  4.23566252426E+01 -8.42226360928E+01 -1.68564539750E+02  1.93194468589E+02  4.75000000000E+00  0.00000000000E+00  1.
      -24    2    4    4    0    0 -6.36947489333E+01 -6.51268923743E+01 -7.88485940841E+01  1.44567449464E+02  7.99006477044E+01  0.00000000000E+00  1.
       11    1    7    7    0    0 -4.27904522253E+01 -5.80979862332E+00 -6.82849730316E+01  8.07936513835E+01  5.10998597706E-04  0.00000000000E+00  1.
      -12    1    7    7    0    0 -2.09042967080E+01 -5.93170937510E+01 -1.05636210525E+01  6.37737980809E+01  1.34869915235E-06  0.00000000000E+00  1.
</event>
<event>
 9 111   1.0000000E+00   7.4550000E+01   7.8125000E-03   1.3429423E-01
       -5   -1    0    0    0  501  0.00000000000E+00  0.00000000000E+00  1.91813644571E+02  1.91813644571E+02  0.00000000000E+00  0.00000000000E+00  1.
        1   -1    0    0  502    0  0.00000000000E+00  0.00000000000E+00 -6.11707744743E+02  6.11707744743E+02  0.00000000000E+00  0.00000000000E+00  1.
       25    1    1    2    0    0  7.82941419040E+01 -1.56718025734E+02  4.43184797997E+01  2.19726284041E+02  1.25000000000E+02  0.00000000000E+00  1.
       -6    2    1    2    0  501 -4.00653178320E+01  1.32487011789E+02 -1.53842149220E+02  2.70141810517E+02  1.73640873435E+02  0.00000000000E+00  1.
        2    1    1    2  502    0 -3.82288240720E+01  2.42310139448E+01 -3.10370430751E+02  3.13653294756E+02  3.81469726562E-06  0.00000000000E+00  1.
       -5    1    4    4    0  501 -4.68224195175E+01  9.79662258884E+01 -1.43620858906E+02  1.80108950353E+02  4.75000000000E+00  0.00000000000E+00  1.
      -24    2    4    4    0    0  6.75710168549E+00  3.45207859010E+01 -1.02212903134E+01  9.00328601642E+01  8.22441368808E+01  0.00000000000E+00  1.
        3    1    7    7  704    0 -3.30903194455E+01  5.26049618661E+00 -2.08541952596E+01  3.94656752262E+01  1.19209289551E-06  0.00000000000E+00  1.
       -4    1    7    7    0  704  3.98474211310E+01  2.92602897144E+01  1.06329049462E+01  5.05671849380E+01  8.42936970218E-07  0.00000000000E+00  1.
</event>
<event>
 9 111   1.0000000E+00   7.4550000E+01   7.8125000E-03   1.3429423E-01
        1   -1    0    0  502    0  0.00000000000E+00  0.00000000000E+00  3.71438706448E+03  3.71438706448E+03  0.00000000000E+00  0.00000000000E+00  1.
       -5   -1    0    0    0  501  0.00000000000E+00  0.00000000000E+00 -8.40988233481E+01  8.40988233481E+01  0.00000000000E+00  0.00000000000E+00  1.
       25    1    1    2    0    0 -1.47210635086E+02 -1.61706233721E+02  1.41185612331E+02  2.88752929398E+02  1.25000000000E+02  0.00000000000E+00  1.
       -6    2    1    2    0  501  1.37825277567E+02  7.20030786722E+01  1.44712005414E+03  1.46575948107E+03  1.73534304263E+02  0.00000000000E+00  1.
        2    1    1    2  502    0  9.38535751861E+00  8.97031550490E+01  2.04198257466E+03  2.04397347737E+03  3.05175781250E-05  0.00000000000E+00  1.
       -5    1    4    4    0  501 -1.70282571819E+01  5.45868904230E+01  3.59268697330E+02  3.63821727677E+02  4.75000000002E+00  0.00000000000E+00  1.
      -24    2    4    4    0    0  1.54853534749E+02  1.74161882492E+01  1.08785135681E+03  1.10193775339E+03  8.10141776827E+01  0.00000000000E+00  1.
        3    1    7    7  704    0  4.83373288688E+01 -3.04948357582E+01  4.32550398679E+02  4.36309843766E+02  5.39479660939E-06  0.00000000000E+00  1.
       -4    1    7    7    0  704  1.06516205880E+02  4.79110240074E+01  6.55300958134E+02  6.65627909622E+02  0.00000000000E+00  0.00000000000E+00  1.
</event>
<event>
 9 111   1.0000000E+00   7.4550000E+01   7.8125000E-03   1.3429423E-01
        1   -1    0    0  502    0  0.00000000000E+00  0.00000000000E+00  2.86936742614E+02  2.86936742614E+02  0.00000000000E+00  0.00000000000E+00  1.
       -5   -1    0    0    0  501  0.00000000000E+00  0.00000000000E+00 -4.17186828413E+02  4.17186828413E+02  0.00000000000E+00  0.00000000000E+00  1.
       25    1    1    2    0    0 -4.09099597364E+01  2.38454540545E+01 -9.17277432898E+01  1.62114803068E+02  1.25000000000E+02  0.00000000000E+00  1.
       -6    2    1    2    0  501 -9.55495824880E+01 -1.22673830757E+02 -2.01523100709E+02  3.07578603775E+02  1.72668601415E+02  0.00000000000E+00  1.
        2    1    1    2  502    0  1.36459542224E+02  9.88283767021E+01  1.63000758200E+02  2.34430164184E+02  8.74056948653E-06  0.00000000000E+00  1.
       -5    1    4    4    0  501 -5.72025453455E+01 -6.81421394845E+01 -1.02467994705E+01  8.96830071246E+01  4.75000000000E+00  0.00000000000E+00  1.
      -24    2    4    4    0    0 -3.83470371425E+01 -5.45316912721E+01 -1.91276301238E+02  2.17895596650E+02  8.02973661686E+01  0.00000000000E+00  1.
       13    1    7    7    0    0  1.39053510777E+01 -1.41927864177E+01 -5.31899074949E+00  2.05693169921E+01  1.05660000090E-01  0.00000000000E+00  1.
      -14    1    7    7    0    0 -5.22523882202E+01 -4.03389048544E+01 -1.85957310489E+02  1.97326279658E+02  2.69739830470E-06  0.00000000000E+00  1.
</event>
<event>
 9 111   1.0000000E+00   7.4550000E+01   7.8125000E-03   1.3429423E-01
       -5   -1    0    0    0  501  0.00000000000E+00  0.00000000000E+00  4.02113623674E+02  4.02113623674E+02  0.00000000000E+00  0.00000000000E+00  1.
        1   -1    0    0  502    0  0.00000000000E+00  0.00000000000E+00 -4.15602347374E+02  4.15602347374E+02  0.00000000000E+00  0.00000000000E+00  1.
       25    1    1    2    0    0  2.04434119621E+02  8.21975798281E+01  1.83831730694E+02  3.12999770934E+02  1.25000000000E+02  0.00000000000E+00  1.
       -6    2    1    2    0  501 -1.69498704331E+02 -7.43083730999E+01  4.70027451516E+01  2.57781899821E+02  1.73178245576E+02  0.00000000000E+00  1.
        2    1    1    2  502    0 -3.49354152899E+01 -7.88920672823E+00 -2.44323199546E+02  2.46934300292E+02  4.67203091199E-06  0.00000000000E+00  1.
       -5    1    4    4    0  501 -1.13227543435E+02 -1.30473590726E+01  7.77232859225E+01  1.38036885816E+02  4.75000000000E+00  0.00000000000E+00  1.
      -24    2    4    4    0    0 -5.62711608961E+01 -6.12610140273E+01 -3.07205407710E+01  1.19745014005E+02  8.04721154538E+01  0.00000000000E+00  1.
        1    1    7    7  704    0 -5.24096111483E+01 -6.58844510757E+01  4.21598101460E+00  8.42929577733E+01  1.27559510225E-06  0.00000000000E+00  1.
       -2    1    7    7    0  704 -3.86154974784E+00  4.62343704844E+00 -3.49365217856E+01  3.54520562319E+01  8.25906184945E-07  0.00000000000E+00  1.
</event>
<event>
 9 111   1.0000000E+00   7.4550000E+01   7.8125000E-03   1.3429423E-01
        1   -1    0    0  502    0  0.00000000000E+00  0.00000000000E+00  3.89094894324E+02  3.89094894324E+02  0.00000000000E+00  0.00000000000E+00  1.
       -5   -1    0    0    0  501  0.00000000000E+00  0.00000000000E+00 -6.56059256415E+02  6.56059256415E+02  0.00000000000E+00  0.00000000000E+00  1.
       25    1    1    2    0    0 -4.42050200273E+01 -1.96342805452E+02 -5.25365825775E+02  5.76314872219E+02  1.25000000000E+02  0.00000000000E+00  1.
       -6    2    1    2    0  501 -6.07960441603E+01  1.87203980448E+02  1.02188836038E+02  2.80395316986E+02  1.71573559430E+02  0.00000000000E+00  1.
        2    1    1    2  502    0  1.05001064188E+02  9.13882500416E+00  1.56212627645E+02  1.88443961535E+02  2.69739830470E-06  0.00000000000E+00  1.
       -5    1    4    4    0  501 -5.76909482953E+01  1.42113194611E+02  2.07293449381E+01  1.54844030687E+02  4.75000000000E+00  0.00000000000E+00  1.
      -24    2    4    4    0    0 -3.10509586496E+00  4.50907858362E+01  8.14594911004E+01  1.25551286299E+02  8.41703998638E+01  0.00000000000E+00  1.
        1    1    7    7  704    0  1.07420525296E+01  6.07175568476E+01  8.43381893546E+01  1.04474607373E+02  1.34869915235E-06  0.00000000000E+00  1.
       -2    1    7    7    0  704 -1.38471483945E+01 -1.56267710114E+01 -2.87869825419E+00  2.10766789258E+01  1.48174797233E-06  0.00000000000E+00  1.
</event>
<event>
 9 111   1.0000000E+00   7.4550000E+01   7.8125000E-03   1.3429423E-01
       -5   -1    0    0    0  501  0.00000000000E+00  0.00000000000E+00  4.20155467999E+02  4.20155467999E+02  0.00000000000E+00  0.00000000000E+00  1.
       -2   -1    0    0    0  502  0.00000000000E+00  0.00000000000E+00 -6.01290629356E+02  6.01290629356E+02  0.00000000000E+00  0.00000000000E+00  1.
       25    1    1    2    0    0  4.53823392501E+01  1.09513723946E+02  2.38204258540E+02  2.93971225181E+02  1.25000000000E+02  0.00000000000E+00  1.
       -6    2    1    2    0  501 -5.96639204099E+01 -2.95933171676E+01  9.27605977079E+01  2.08979295519E+02  1.75020769193E+02  0.00000000000E+00  1.
       -1    1    1    2    0  502  1.42815811598E+01 -7.99204067783E+01 -5.12100017604E+02  5.18495576655E+02  0.00000000000E+00  0.00000000000E+00  1.
       -5    1    4    4    0  501 -7.09432225077E+01 -5.88379073294E+01  6.26224335538E+01  1.11530138720E+02  4.75000000000E+00  0.00000000000E+00  1.
      -24    2    4    4    0    0  1.12793020978E+01  2.92445901618E+01  3.01381641541E+01  9.74491567992E+01  8.72098647674E+01  0.00000000000E+00  1.
       11    1    7    7    0    0  4.88158236411E+01  1.85870808592E+01  8.78441485864E+00  5.29681994908E+01  5.11000516591E-04  0.00000000000E+00  1.
      -12    1    7    7    0    0 -3.75365215432E+01  1.06575093026E+01  2.13537492954E+01  4.44809573084E+01  5.33120149970E-07  0.00000000000E+00  1.
</event>
<event>
 9 111   1.0000000E+00   7.4550000E+01   7.8125000E-03   1.3429423E-01
        1   -1    0    0  502    0  0.00000000000E+00  0.00000000000E+00  1.04635675028E+03  1.04635675028E+03  0.00000000000E+00  0.00000000000E+00  1.
       -5   -1    0    0    0  501  0.00000000000E+00  0.00000000000E+00 -7.88606049707E+02  7.88606049707E+02  0.00000000000E+00  0.00000000000E+00  1.
       25    1    1    2    0    0 -3.37640573269E+02 -1.50201360574E+02 -5.62666046414E+02  6.84674875560E+02  1.25000000000E+02  0.00000000000E+00  1.
       -6    2    1    2    0  501  2.97952035968E+02  1.02750643435E+02  3.43156536005E+01  3.61756580996E+02  1.74233031737E+02  0.00000000000E+00  1.
        2    1    1    2  502    0  3.96885373015E+01  4.74507171397E+01  7.86101093384E+02  7.88531343429E+02  0.00000000000E+00  0.00000000000E+00  1.
       -5    1    4    4    0  501  2.08019795315E+02  5.29957205141E+01  7.21406736918E+01  2.26511856062E+02  4.75000000000E+00  0.00000000000E+00  1.
      -24    2    4    4    0    0  8.99322406526E+01  4.97549229206E+01 -3.78250200913E+01  1.35244724934E+02  7.93539111449E+01  0.00000000000E+00  1.
        1    1    7    7  704    0  7.37234807595E+01  2.21295226035E+01 -5.88831976705E+01  9.69128389527E+01  0.00000000000E+00  0.00000000000E+00  1.
       -2    1    7    7    0  704  1.62087598931E+01  2.76254003171E+01  2.10581775792E+01  3.83318859816E+01  8.92080637640E-07  0.00000000000E+00  1.
</event>
<event>
 9 111   1.0000000E+00   7.4550000E+01   7.8125000E-03   1.3429423E-01
       -5   -1    0    0    0  501  0.00000000000E+00  0.00000000000E+00  1.93597880567E+02  1.93597880567E+02  0.00000000000E+00  0.00000000000E+00  1.
        1   -1    0    0  502    0  0.00000000000E+00  0.00000000000E+00 -4.24274610448E+02  4.24274610448E+02  0.00000000000E+00  0.00000000000E+00  1.
       25    1    1    2    0    0 -3.36993138978E+01 -6.41221661444E+00 -4.84147392291E+01  1.38368158381E+02  1.25000000000E+02  0.00000000000E+00  1.
       -6    2    1    2    0  501  5.57907805204E+01  2.91386109457E+01  9.07123701488E+01  2.04696174911E+02  1.72366238243E+02  0.00000000000E+00  1.
        2    1    1    2  502    0 -2.20914666226E+01 -2.27263943313E+01 -2.72974360801E+02  2.74808157723E+02  7.62939453125E-06  0.00000000000E+00  1.
       -5    1    4    4    0  501  1.22098793953E+01  4.37667063186E+01  1.01102136126E+02  1.10945077251E+02  4.75000000000E+00  0.00000000000E+00  1.
      -24    2    4    4    0    0  4.35809011251E+01 -1.46280953728E+01 -1.03897659776E+01  9.37510976602E+01  8.10434757295E+01  0.00000000000E+00  1.
        1    1    7    7  704    0  1.84694423949E+01 -1.10165028363E+01 -4.55629056073E+01  5.03831519905E+01  2.13248059988E-06  0.00000000000E+00  1.
       -2    1    7    7    0  704  2.51114587301E+01 -3.61159253650E+00  3.51731396297E+01  4.33679456697E+01  1.78416127528E-06  0.00000000000E+00  1.
</event>
<event>
 9 111   1.0000000E+00   7.4550000E+01   7.8125000E-03   1.3429423E-01
        1   -1    0    0  502    0  0.00000000000E+00  0.00000000000E+00  3.83108930376E+02  3.83108930376E+02  0.00000000000E+00  0.00000000000E+00  1.
       -5   -1    0    0    0  501  0.00000000000E+00  0.00000000000E+00 -2.94861913938E+02  2.94861913938E+02  0.00000000000E+00  0.00000000000E+00  1.
       25    1    1    2    0    0 -9.86774052852E+01  5.82342743997E+01  5.89078721859E+00  1.69670747045E+02  1.25000000000E+02  0.00000000000E+00  1.
       -6    2    1    2    0  501 -1.16238428018E+02 -5.57133133115E+01 -9.09928781530E+01  2.32174974044E+02  1.70323719045E+02  0.00000000000E+00  1.
        2    1    1    2  502    0  2.14915833304E+02 -2.52096108820E+00  1.73349107372E+02  2.76125123225E+02  5.04637014592E-06  0.00000000000E+00  1.
       -5    1    4    4    0  501  1.28355801056E+01 -7.46643905197E+00  2.85897829939E+01  3.25643673422E+01  4.75000000000E+00  0.00000000000E+00  1.
      -24    2    4    4    0    0 -1.29074008124E+02 -4.82468742596E+01 -1.19582661147E+02  1.99610606702E+02  8.09723472043E+01  0.00000000000E+00  1.
        3    1    7    7  704    0  6.39513053061E+00  6.55392105775E+00  2.16183060745E+00  9.40877714212E+00  1.96130077645E-06  0.00000000000E+00  1.
       -4    1    7    7    0  704 -1.35469138655E+02 -5.48007953173E+01 -1.21744491754E+02  1.90201829559E+02  3.01578298585E-06  0.00000000000E+00  1.
</event>
<event>
 9 111   1.0000000E+00   7.4550000E+01   7.8125000E-03   1.3429423E-01
       -5   -1    0    0    0  501  0.00000000000E+00  0.00000000000E+00  4.97566081191E+02  4.97566081191E+02  0.00000000000E+00  0.00000000000E+00  1.
        1   -1    0    0  502    0  0.00000000000E+00  0.00000000000E+00 -9.56663630579E+02  9.56663630579E+02  0.00000000000E+00  0.00000000000E+00  1.
       25    1    1    2    0    0  8.82699684507E+01 -3.95259668595E+01  9.03258985514E+01  1.82037516286E+02  1.25000000000E+02  0.00000000000E+00  1.
       -6    2    1    2    0  501 -4.57933257202E+01  2.93341022599E+01  3.37798581509E+02  3.83895472076E+02  1.74098631744E+02  0.00000000000E+00  1.
        2    1    1    2  502    0 -4.24766427305E+01  1.01918645996E+01 -8.87222029448E+02  8.88296723409E+02  1.86881236479E-05  0.00000000000E+00  1.
       -5    1    4    4    0  501  3.68920150573E+01  2.87067203189E+01  1.89767276532E+02  1.95497514840E+02  4.75000000000E+00  0.00000000000E+00  1.
      -24    2    4    4    0    0 -8.26853407775E+01  6.27381941000E-01  1.48031304977E+02  1.88397957235E+02  8.21173784876E+01  0.00000000000E+00  1.
        1    1    7    7  704    0 -1.33826872323E+01 -9.71534298932E+00 -7.23660401801E+00  1.80513889956E+01  3.53028604864E-06  0.00000000000E+00  1.
       -4    1    7    7    0  704 -6.93026535452E+01  1.03427249303E+01  1.55267908995E+02  1.70346568240E+02  4.26496119976E-06  0.00000000000E+00  1.
</event>
<event>
 9 111   1.0000000E+00   7.4550000E+01   7.8125000E-03   1.3429423E-01
       -5   -1    0    0    0  501  0.00000000000E+00  0.00000000000E+00  4.27136806970E+02  4.27136806970E+02  0.00000000000E+00  0.00000000000E+00  1.
        3   -1    0    0  502    0  0.00000000000E+00  0.00000000000E+00 -1.63331330272E+02  1.63331330272E+02  0.00000000000E+00  0.00000000000E+00  1.
       25    1    1    2    0    0  1.01766466854E+02 -5.82478353345E+01  2.81659000014E+02  3.29705954429E+02  1.25000000000E+02  0.00000000000E+00  1.
       -6    2    1    2    0  501 -1.18056550771E+02  7.33547535880E+01  1.39599340503E+01  2.21959065893E+02  1.72489646413E+02  0.00000000000E+00  1.
        4    1    1    2  502    0  1.62900839164E+01 -1.51069182535E+01 -3.18134573663E+01  3.88031169201E+01  5.84003863998E-07  0.00000000000E+00  1.
       -5    1    4    4    0  501 -6.09218256263E+01  8.83723538301E+01 -3.24351354836E+01  1.12230754577E+02  4.75000000000E+00  0.00000000000E+00  1.
      -24    2    4    4    0    0 -5.71347251443E+01 -1.50176002421E+01  4.63950695339E+01  1.09728311316E+02  7.99868407478E+01  0.00000000000E+00  1.
        3    1    7    7  704    0  7.55368156650E-01 -1.24709372960E+01 -1.87561668564E+01  2.25363850970E+01  8.59630411974E-07  0.00000000000E+00  1.
       -4    1    7    7    0  704 -5.78900933010E+01 -2.54666294606E+00  6.51512363903E+01  8.71919262188E+01  9.53674316406E-07  0.00000000000E+00  1.
</event>
<event>
 9 111   1.0000000E+00   7.4550000E+01   7.8125000E-03   1.3429423E-01
        1   -1    0    0  502    0  0.00000000000E+00  0.00000000000E+00  9.10962598764E+02  9.10962598764E+02  0.00000000000E+00  0.00000000000E+00  1.
       -5   -1    0    0    0  501  0.00000000000E+00  0.00000000000E+00 -5.46494572216E+01  5.46494572216E+01  0.00000000000E+00  0.00000000000E+00  1.
       25    1    1    2    0    0  8.58276596258E+01  2.30689156889E+01  1.52266319876E+02  2.16121711534E+02  1.25000000000E+02  0.00000000000E+00  1.
       -6    2    1    2    0  501 -7.97675317040E+01  9.64903882375E+00  3.99872245305E+02  4.43501190064E+02  1.74182461685E+02  0.00000000000E+00  1.
        2    1    1    2  502    0 -6.06012792179E+00 -3.27179545126E+01  3.04174576362E+02  3.05989154388E+02  6.60724947956E-06  0.00000000000E+00  1.
       -5    1    4    4    0  501 -2.51630707051E+01 -6.40180286986E+01  1.21189916893E+02  1.39431153557E+02  4.75000000000E+00  0.00000000000E+00  1.
      -24    2    4    4    0    0 -5.46044609989E+01  7.36670675224E+01  2.78682328412E+02  3.04070036507E+02  7.99140972160E+01  0.00000000000E+00  1.
        1    1    7    7  704    0 -4.07853104651E+01  9.05248834327E+00  1.83532654150E+02  1.88227586273E+02  3.81469726562E-06  0.00000000000E+00  1.
       -2    1    7    7    0  704 -1.38191505339E+01  6.46145791791E+01  9.51496742626E+01  1.15842450234E+02  3.56832255056E-06  0.00000000000E+00  1.
</event>
<event>
 9 111   1.0000000E+00   7.4550000E+01   7.8125000E-03   1.3429423E-01
        1   -1    0    0  502    0  0.00000000000E+00  0.00000000000E+00  1.17054550757E+03  1.17054550757E+03  0.00000000000E+00  0.00000000000E+00  1.
       -5   -1    0    0    0  501  0.00000000000E+00  0.00000000000E+00 -6.93082179919E+01  6.93082179919E+01  0.00000000000E+00  0.00000000000E+00  1.
       25    1    1    2    0    0  5.67479064500E+01 -1.75899945058E+00  4.19751867205E+01  1.43563001034E+02  1.25000000000E+02  0.00000000000E+00  1.
       -6    2    1    2    0  501 -1.68669738137E+01  2.51462858282E+01  4.18254987342E+02  4.53618509403E+02  1.72961519247E+02  0.00000000000E+00  1.
        2    1    1    2  502    0 -3.98809326363E+01 -2.33872863776E+01  6.41007115520E+02  6.42672215129E+02  7.62939453125E-06  0.00000000000E+00  1.
       -5    1    4    4    0  501  2.94079032162E+01  6.54819495044E+01  2.04633735813E+02  2.16910670127E+02  4.75000000000E+00  0.00000000000E+00  1.
      -24    2    4    4    0    0 -4.62748770299E+01 -4.03356636762E+01  2.13621251529E+02  2.36707839276E+02  8.14139549547E+01  0.00000000000E+00  1.
        1    1    7    7  704    0 -9.84709561907E+00  1.86551808726E+00  1.56748042545E+02  1.57068119909E+02  3.81469726562E-06  0.00000000000E+00  1.
       -2    1    7    7    0  704 -3.64277814109E+01 -4.22011817634E+01  5.68732089841E+01  7.96397193672E+01  2.13248059988E-06  0.00000000000E+00  1.
</event>
<event>
 9 111   1.0000000E+00   7.4550000E+01   7.8125000E-03   1.3429423E-01
       -5   -1    0    0    0  501  0.00000000000E+00  0.00000000000E+00  1.18137015994E+03  1.18137015994E+03  0.00000000000E+00  0.00000000000E+00  1.
       -2   -1    0    0    0  502  0.00000000000E+00  0.00000000000E+00 -8.11417714800E+01  8.11417714800E+01  0.00000000000E+00  0.00000000000E+00  1.
       25    1    1    2    0    0  1.61830829705E+01 -6.45490606945E+01  3.58928691046E+02  3.85853960284E+02  1.25000000000E+02  0.00000000000E+00  1.
       -6    2    1    2    0  501  1.04590704488E+01  1.38104322651E+02  7.63708852523E+02  7.95280141641E+02  1.73312135115E+02  0.00000000000E+00  1.
       -1    1    1    2    0  502 -2.66421534193E+01 -7.35552619561E+01 -2.24091551103E+01  8.13778294931E+01  9.31664642457E-06  0.00000000000E+00  1.
       -5    1    4    4    0  501 -5.69372213722E+01  1.98814496905E+01  1.52158365715E+02  1.63743244064E+02  4.75000000001E+00  0.00000000000E+00  1.
      -24    2    4    4    0    0  6.73962918209E+01  1.18222872960E+02  6.11550486807E+02  6.31536897577E+02  7.95358236605E+01  0.00000000000E+00  1.
        3    1    7    7  704    0  7.12212258017E+01  4.71920095802E+01  3.69597825050E+02  3.79344304102E+02  7.62939453125E-06  0.00000000000E+00  1.
       -4    1    7    7    0  704 -3.82493398071E+00  7.10308633799E+01  2.41952661757E+02  2.52192593475E+02  2.69739830470E-06  0.00000000000E+00  1.
</event>
<event>
 9 111   1.0000000E+00   7.4550000E+01   7.8125000E-03   1.3429423E-01
       -5   -1    0    0    0  501  0.00000000000E+00  0.00000000000E+00  2.94854528611E+02  2.94854528611E+02  0.00000000000E+00  0.00000000000E+00  1.
       -2   -1    0    0    0  502  0.00000000000E+00  0.00000000000E+00 -2.37820541175E+02  2.37820541175E+02  0.00000000000E+00  0.00000000000E+00  1.
       25    1    1    2    0    0  1.27129229598E+01  2.24960593784E+01 -7.30833818479E+01  1.47084573631E+02  1.25000000000E+02  0.00000000000E+00  1.
       -6    2    1    2    0  501 -8.19057979805E+01  1.40081113784E+01  2.01191353238E+02  2.79894140347E+02  1.75948805780E+02  0.00000000000E+00  1.
       -1    1    1    2    0  502  6.91928750207E+01 -3.65041707568E+01 -7.10739839542E+01  1.05696355809E+02  1.34869915235E-06  0.00000000000E+00  1.
       -5    1    4    4    0  501  1.05168159370E+01 -3.09794300958E+01 -7.51514387586E+00  3.39023361141E+01  4.75000000000E+00  0.00000000000E+00  1.
      -24    2    4    4    0    0 -9.24226139175E+01  4.49875414742E+01  2.08706497114E+02  2.45991804232E+02  7.99233843170E+01  0.00000000000E+00  1.
        3    1    7    7  704    0 -2.58161219952E+01 -1.98097235043E+01  8.68537300171E+01  9.27494890448E+01  0.00000000000E+00  0.00000000000E+00  1.
       -4    1    7    7    0  704 -6.66064919223E+01  6.47972649785E+01  1.21852767097E+02  1.53242315188E+02  2.33601545599E-06  0.00000000000E+00  1.
</event>
<event>
 9 111   1.0000000E+00   7.4550000E+01   7.8125000E-03   1.3429423E-01
       -5   -1    0    0    0  501  0.00000000000E+00  0.00000000000E+00  1.55037972109E+02  1.55037972109E+02  0.00000000000E+00  0.00000000000E+00  1.
        1   -1    0    0  502    0  0.00000000000E+00  0.00000000000E+00 -9.82953013643E+02  9.82953013643E+02  0.00000000000E+00  0.00000000000E+00  1.
       25    1    1    2    0    0  1.30441013906E+02 -6.42959091209E+01  8.58018413773E+00  1.91956874319E+02  1.25000000000E+02  0.00000000000E+00  1.
       -6    2    1    2    0  501 -1.39829221620E+02  4.35696170111E+01 -1.87947553591E+02  2.97087425957E+02  1.77443323390E+02  0.00000000000E+00  1.
        2    1    1    2  502    0  9.38820771406E+00  2.07262921098E+01 -6.48547672081E+02  6.48946685476E+02  0.00000000000E+00  0.00000000000E+00  1.
       -5    1    4    4    0  501  2.44321087233E+01  2.97445301498E+01 -6.55129552381E+01  7.61326133436E+01  4.75000000000E+00  0.00000000000E+00  1.
      -24    2    4    4    0    0 -1.64261330343E+02  1.38250868613E+01 -1.22434598352E+02  2.20954812613E+02  8.15958373345E+01  0.00000000000E+00  1.
       13    1    7    7    0    0 -5.19959282957E+01  2.44417191801E+01 -8.40978799703E+01  1.01850079899E+02  1.05659999995E-01  0.00000000000E+00  1.
      -14    1    7    7    0    0 -1.12265402048E+02 -1.06166323187E+01 -3.83367183822E+01  1.19104732715E+02  6.74349576174E-07  0.00000000000E+00  1.
</event>
<event>
 9 111   1.0000000E+00   7.4550000E+01   7.8125000E-03   1.3429423E-01
        1   -1    0    0  502    0  0.00000000000E+00  0.00000000000E+00  1.17793609793E+03  1.17793609793E+03  0.00000000000E+00  0.00000000000E+00  1.
       -5   -1    0    0    0  501  0.00000000000E+00  0.00000000000E+00 -2.46918622525E+02  2.46918622525E+02  0.00000000000E+00  0.00000000000E+00  1.
       25    1    1    2    0    0 -8.27425936463E+01  1.38331838854E+02  1.78000012799E+02  2.70723177804E+02  1.25000000000E+02  0.00000000000E+00  1.
       -6    2    1    2    0  501 -4.14209034643E+01  2.87084107112E+02  5.94037198810E+02  6.83313079363E+02  1.72926559726E+02  0.00000000000E+00  1.
        2    1    1    2  502    0  1.24163497111E+02 -4.25415945966E+02  1.58980263798E+02  4.70818463289E+02  1.30761234291E-05  0.00000000000E+00  1.
       -5    1    4    4    0  501  1.76217969424E+01  1.23859328294E+02  1.24688402348E+02  1.76695843508E+02  4.74999999999E+00  0.00000000000E+00  1.
      -24    2    4    4    0    0 -5.90427004067E+01  1.63224778818E+02  4.69348796462E+02  5.06617235855E+02  7.90212758281E+01  0.00000000000E+00  1.
        3    1    7    7  704    0  1.68473671433E+01  5.70440307963E+01  1.68057074700E+02  1.78272363494E+02  1.90734863281E-06  0.00000000000E+00  1.
       -4    1    7    7    0  704 -7.58900675500E+01  1.06180748021E+02  3.01291721762E+02  3.28344872361E+02  3.81469726562E-06  0.00000000000E+00  1.
</event>
<event>
 9 111   1.0000000E+00   7.4550000E+01   7.8125000E-03   1.3429423E-01
       -5   -1    0    0    0  501  0.00000000000E+00  0.00000000000E+00  2.12120022568E+02  2.12120022568E+02  0.00000000000E+00  0.00000000000E+00  1.
        1   -1    0    0  502    0  0.00000000000E+00  0.00000000000E+00 -3.29261338675E+02  3.29261338675E+02  0.00000000000E+00  0.00000000000E+00  1.
       25    1    1    2    0    0  5.21299974656E+01 -9.62797094833E+01  5.00813327829E+01  1.73552467534E+02  1.25000000000E+02  0.00000000000E+00  1.
       -6    2    1    2    0  501 -1.09475038501E+02  1.04864659976E+02 -4.84320941505E+01  2.35642090276E+02  1.73781892035E+02  0.00000000000E+00  1.
        2    1    1    2  502    0  5.73450410353E+01 -8.58495049287E+00 -1.18790554740E+02  1.32186803432E+02  3.56832255056E-06  0.00000000000E+00  1.
       -5    1    4    4    0  501  2.57437779513E+01  3.07207000903E+01 -4.68070274176E+01  6.18058559759E+01  4.75000000000E+00  0.00000000000E+00  1.
      -24    2    4    4    0    0 -1.35218816452E+02  7.41439598859E+01 -1.62506673287E+00  1.73836234300E+02  8.02180802776E+01  0.00000000000E+00  1.
        3    1    7    7  704    0 -3.89685092851E+01  6.61544091105E+01  5.61690383318E+00  7.69837656219E+01  2.01248443319E-06  0.00000000000E+00  1.
       -4    1    7    7    0  704 -9.62503071671E+01  7.98955077539E+00 -7.24197056605E+00  9.68524686781E+01  1.55658302989E-06  0.00000000000E+00  1.
</event>
<event>
 9 111   1.0000000E+00   7.4550000E+01   7.8125000E-03   1.3429423E-01
        1   -1    0    0  502    0  0.00000000000E+00  0.00000000000E+00  1.63750893734E+03  1.63750893734E+03  0.00000000000E+00  0.00000000000E+00  1.
       -5   -1    0    0    0  501  0.00000000000E+00  0.00000000000E+00 -7.29517325343E+01  7.29517325343E+01  0.00000000000E+00  0.00000000000E+00  1.
       25    1    1    2    0    0  1.83890109625E+02 -4.73708413448E+01  1.97554178201E+02  3.01184698071E+02  1.25000000000E+02  0.00000000000E+00  1.
       -6    2    1    2    0  501 -1.99162653306E+02  2.31722212469E+01  8.34515639525E+02  8.76020272158E+02  1.75477777257E+02  0.00000000000E+00  1.
        2    1    1    2  502    0  1.52725436810E+01  2.41986200978E+01  5.32487387084E+02  5.33255699650E+02  1.07895932188E-05  0.00000000000E+00  1.
       -5    1    4    4    0  501  1.31036705170E+01  3.29644582481E+01  1.76635526615E+02  1.80224952355E+02  4.75000000000E+00  0.00000000000E+00  1.
      -24    2    4    4    0    0 -2.12266323823E+02 -9.79223700116E+00  6.57880112910E+02  6.95795319803E+02  7.85621025913E+01  0.00000000000E+00  1.
        1    1    7    7  704    0 -1.57794274930E+02  2.50203488988E+00  3.65262114380E+02  3.97896601620E+02  0.00000000000E+00  0.00000000000E+00  1.
       -2    1    7    7    0  704 -5.44720488928E+01 -1.22942718910E+01  2.92617998530E+02  2.97898718184E+02  3.81469726562E-06  0.00000000000E+00  1.
</event>
<event>
 9 111   1.0000000E+00   7.4550000E+01   7.8125000E-03   1.3429423E-01
        1   -1    0    0  502    0  0.00000000000E+00  0.00000000000E+00  2.10034411959E+03  2.10034411959E+03  0.00000000000E+00  0.00000000000E+00  1.
       -5   -1    0    0    0  501  0.00000000000E+00  0.00000000000E+00 -3.07151790874E+01  3.07151790874E+01  0.00000000000E+00  0.00000000000E+00  1.
       25    1    1    2    0    0  7.92092741841E+01  6.89582083141E+01  6.57545030240E+02  6.77510007604E+02  1.25000000000E+02  0.00000000000E+00  1.
       -6    2    1    2    0  501 -4.96916756108E+01 -7.59614418987E+01  4.44758728996E+02  4.85748516007E+02  1.72921631107E+02  0.00000000000E+00  1.
        2    1    1    2  502    0 -2.95175985733E+01  7.00323358460E+00  9.67325181264E+02  9.67800775063E+02  1.52587890625E-05  0.00000000000E+00  1.
       -5    1    4    4    0  501 -2.51709297261E+01 -9.11269217770E+01  1.32078489376E+02  1.62496096666E+02  4.75000000000E+00  0.00000000000E+00  1.
      -24    2    4    4    0    0 -2.45207458847E+01  1.51654798784E+01  3.12680239620E+02  3.23252419341E+02  7.67589447708E+01  0.00000000000E+00  1.
        1    1    7    7  704    0  1.22297446329E+01  2.40066723017E+00  2.44005604925E+02  2.44323689175E+02  3.81469726562E-06  0.00000000000E+00  1.
       -2    1    7    7    0  704 -3.67504905177E+01  1.27648126482E+01  6.86746346949E+01  7.89287301666E+01  1.34869915235E-06  0.00000000000E+00  1.
</event>
<event>
 9 111   1.0000000E+00   7.4550000E+01   7.8125000E-03   1.3429423E-01
       -5   -1    0    0    0  501  0.00000000000E+00  0.00000000000E+00  5.28517490956E+02  5.28517490956E+02  0.00000000000E+00  0.00000000000E+00  1.
        1   -1    0    0  502    0  0.00000000000E+00  0.00000000000E+00 -3.12620789346E+02  3.12620789346E+02  0.00000000000E+00  0.00000000000E+00  1.
       25    1    1    2    0    0  1.18596983469E+02 -8.13953829572E+00  3.30612434406E+02  3.72908941104E+02  1.25000000000E+02  0.00000000000E+00  1.
       -6    2    1    2    0  501 -8.40222979564E+01  2.03079761031E+01  1.20551950979E+02  2.30123558534E+02  1.75931574370E+02  0.00000000000E+00  1.
        2    1    1    2  502    0 -3.45746855128E+01 -1.21684378074E+01 -2.35267683775E+02  2.38105780664E+02  3.81469726562E-06  0.00000000000E+00  1.
       -5    1    4    4    0  501 -5.84115098651E+01 -4.56109211398E+00  1.28802884152E+02  1.41581967467E+02  4.75000000000E+00  0.00000000000E+00  1.
      -24    2    4    4    0    0 -2.56107880913E+01  2.48690682171E+01 -8.25093317293E+00  8.85415910669E+01  8.06049156677E+01  0.00000000000E+00  1.
        1    1    7    7  704    0 -4.45371195184E+01  4.17283676061E+01  2.32902290195E+00  6.10756582096E+01  1.75378501175E-06  0.00000000000E+00  1.
       -2    1    7    7    0  704  1.89263314271E+01 -1.68592993890E+01 -1.05799560749E+01  2.74659328573E+01  1.64750515951E-06  0.00000000000E+00  1.
</event>
<event>
 9 111   1.0000000E+00   7.4550000E+01   7.8125000E-03   1.3429423E-01
       -5   -1    0    0    0  501  0.00000000000E+00  0.00000000000E+00  7.50710950546E+01  7.50710950546E+01  0.00000000000E+00  0.00000000000E+00  1.
        1   -1    0    0  502    0  0.00000000000E+00  0.00000000000E+00 -1.04723574786E+03  1.04723574786E+03  0.00000000000E+00  0.00000000000E+00  1.
       25    1    1    2    0    0 -7.74535787332E+01 -3.94144520247E+01 -7.90227309129E+01  1.71528854389E+02  1.25000000000E+02  0.00000000000E+00  1.
       -6    2    1    2    0  501  4.11392765935E+01  1.28382149910E-01 -2.56708683566E+02  3.12100142759E+02  1.72669320760E+02  0.00000000000E+00  1.
        2    1    1    2  502    0  3.63143021397E+01  3.92860698748E+01 -6.36433238322E+02  6.38677845762E+02  1.32144989591E-05  0.00000000000E+00  1.
       -5    1    4    4    0  501  4.59691057122E+01 -2.82228470454E+01 -1.65012653009E+01  5.66086745284E+01  4.75000000000E+00  0.00000000000E+00  1.
      -24    2    4    4    0    0 -4.82982911874E+00  2.83512291954E+01 -2.40207418265E+02  2.55491468231E+02  8.21533146196E+01  0.00000000000E+00  1.
       13    1    7    7    0    0  2.73191444255E+01  4.35615302793E+01 -1.37423822473E+02  1.46728527286E+02  1.05659999987E-01  0.00000000000E+00  1.
      -14    1    7    7    0    0 -3.21489735442E+01 -1.52103010840E+01 -1.02783595792E+02  1.08762940945E+02  1.34869915235E-06  0.00000000000E+00  1.
</event>
<event>
 9 111   1.0000000E+00   7.4550000E+01   7.8125000E-03   1.3429423E-01
        1   -1    0    0  502    0  0.00000000000E+00  0.00000000000E+00  2.61119970543E+03  2.61119970543E+03  0.00000000000E+00  0.00000000000E+00  1.
       -5   -1    0    0    0  501  0.00000000000E+00  0.00000000000E+00 -1.32501746150E+02  1.32501746150E+02  0.00000000000E+00  0.00000000000E+00  1.
       25    1    1    2    0    0  2.01164564829E+02  2.95359286352E+01  1.25013423148E+02  2.69430713153E+02  1.25000000000E+02  0.00000000000E+00  1.
       -6    2    1    2    0  501 -9.79503885489E+01 -3.62729198655E+01  1.11145895599E+02  2.29347998660E+02  1.71280737529E+02  0.00000000000E+00  1.
        2    1    1    2  502    0 -1.03214176280E+02  6.73699123029E+00  2.24253864053E+03  2.24492273977E+03  3.05175781250E-05  0.00000000000E+00  1.
       -5    1    4    4    0  501 -6.14639777992E+01  3.76584444018E+01  4.02170187706E+00  7.23513343875E+01  4.75000000000E+00  0.00000000000E+00  1.
      -24    2    4    4    0    0 -3.64864107497E+01 -7.39313642673E+01  1.07124193722E+02  1.56996664273E+02  7.98451934707E+01  0.00000000000E+00  1.
       15    1    7    7    0    0 -1.60364662707E+01 -2.53668065943E+01  9.92670328501E+01  1.03719544717E+02  1.77680000000E+00  0.00000000000E+00  1.
      -16    1    7    7    0    0 -2.04499444789E+01 -4.85645576730E+01  7.85716087179E+00  5.32771195555E+01  2.56507811443E-06  0.00000000000E+00  1.
</event>
<event>
 9 111   1.0000000E+00   7.4550000E+01   7.8125000E-03   1.3429423E-01
        1   -1    0    0  502    0  0.00000000000E+00  0.00000000000E+00  1.10771936379E+03  1.10771936379E+03  0.00000000000E+00  0.00000000000E+00  1.
       -5   -1    0    0    0  501  0.00000000000E+00  0.00000000000E+00 -4.56427859234E+02  4.56427859234E+02  0.00000000000E+00  0.00000000000E+00  1.
       25    1    1    2    0    0 -7.60172380038E+01 -4.19555291469E+01  5.50414684893E+02  5.71069358524E+02  1.25000000000E+02  0.00000000000E+00  1.
       -6    2    1    2    0  501  8.28456022675E+01  1.16422958894E+01 -4.24708923842E+02  4.66574405400E+02  1.74112230800E+02  0.00000000000E+00  1.
        2    1    1    2  502    0 -6.82836426371E+00  3.03132332575E+01  5.25585743500E+02  5.26503459096E+02  1.07895932188E-05  0.00000000000E+00  1.
       -5    1    4    4    0  501  4.31296282811E+01  5.96938530596E+01 -2.75352592198E+02  2.85070400882E+02  4.75000000000E+00  0.00000000000E+00  1.
      -24    2    4    4    0    0  3.97159739864E+01 -4.80515571702E+01 -1.49356331644E+02  1.81504004518E+02  8.21588651187E+01  0.00000000000E+00  1.
        3    1    7    7  704    0 -4.38341630347E+00 -3.83731763495E+01 -1.23667664721E+02  1.29558505314E+02  1.90734863281E-06  0.00000000000E+00  1.
       -4    1    7    7    0  704  4.40993902899E+01 -9.67838082076E+00 -2.56886669235E+01  5.19454992040E+01  1.26159253648E-06  0.00000000000E+00  1.
</event>
<event>
 9 111   1.0000000E+00   7.4550000E+01   7.8125000E-03   1.3429423E-01
        1   -1    0    0  502    0  0.00000000000E+00  0.00000000000E+00  2.20023091333E+03  2.20023091333E+03  0.00000000000E+00  0.00000000000E+00  1.
       -5   -1    0    0    0  501  0.00000000000E+00  0.00000000000E+00 -9.46073067888E+01  9.46073067888E+01  0.00000000000E+00  0.00000000000E+00  1.
       25    1    1    2    0    0  1.64073602192E+02 -3.21485800291E+01  4.04192457231E+01  2.12632061456E+02  1.25000000000E+02  0.00000000000E+00  1.
       -6    2    1    2    0  501 -1.23054713424E+02  2.64950581120E+01  1.46586698075E+03  1.48144014207E+03  1.73362160471E+02  0.00000000000E+00  1.
        2    1    1    2  502    0 -4.10188887684E+01  5.65352191714E+00  5.99337380069E+02  6.00766016594E+02  0.00000000000E+00  0.00000000000E+00  1.
       -5    1    4    4    0  501  2.51885439477E+01  1.77241952258E+01  4.93626778207E+02  4.94609511135E+02  4.75000000000E+00  0.00000000000E+00  1.
      -24    2    4    4    0    0 -1.48243257371E+02  8.77086288616E+00  9.72240202539E+02  9.86830630931E+02  8.08126928027E+01  0.00000000000E+00  1.
        3    1    7    7  704    0 -7.58218830732E+01  1.70318101412E+01  7.22596167149E+02  7.26762864549E+02  7.62939453125E-06  0.00000000000E+00  1.
       -4    1    7    7    0  704 -7.24213742981E+01 -8.26094725506E+00  2.49644035391E+02  2.60067766382E+02  9.34406182397E-06  0.00000000000E+00  1.
</event>
<event>
 9 111   1.0000000E+00   7.4550000E+01   7.8125000E-03   1.3429423E-01
        3   -1    0    0  502    0  0.00000000000E+00  0.00000000000E+00  3.47845542215E+02  3.47845542215E+02  0.00000000000E+00  0.00000000000E+00  1.
       -5   -1    0    0    0  501  0.00000000000E+00  0.00000000000E+00 -1.88252505156E+02  1.88252505156E+02  0.00000000000E+00  0.00000000000E+00  1.
       25    1    1    2    0    0  3.50472492933E+01  3.39919916979E+01 -3.35564208728E+01  1.38328589107E+02  1.25000000000E+02  0.00000000000E+00  1.
       -6    2    1    2    0  501  2.46654501266E+01  6.49032832812E+01  1.82035368428E+01  1.88122237460E+02  1.73890157463E+02  0.00000000000E+00  1.
        4    1    1    2  502    0 -5.97126994199E+01 -9.88952749791E+01  1.74945921090E+02  2.09647220805E+02  4.26496119976E-06  0.00000000000E+00  1.
       -5    1    4    4    0  501  1.33318707227E+01  9.73092918170E+01  6.36236900637E+00  9.85387197515E+01  4.75000000000E+00  0.00000000000E+00  1.
      -24    2    4    4    0    0  1.13335794039E+01 -3.24060085357E+01  1.18411678364E+01  8.95835177082E+01  8.18925758414E+01  0.00000000000E+00  1.
        1    1    7    7  704    0 -2.96415890670E+01  3.74834852079E+00  1.75337860594E+01  3.46425687938E+01  1.03924249257E-06  0.00000000000E+00  1.
       -2    1    7    7    0  704  4.09751684709E+01 -3.61543570565E+01 -5.69261822305E+00  5.49409489145E+01  7.44461774635E-07  0.00000000000E+00  1.
</event>
<event>
 9 111   1.0000000E+00   7.4550000E+01   7.8125000E-03   1.3429423E-01
        1   -1    0    0  502    0  0.00000000000E+00  0.00000000000E+00  8.55580439732E+02  8.55580439732E+02  0.00000000000E+00  0.00000000000E+00  1.
       -5   -1    0    0    0  501  0.00000000000E+00  0.00000000000E+00 -2.13454139352E+02  2.13454139352E+02  0.00000000000E+00  0.00000000000E+00  1.
       25    1    1    2    0    0  1.24775949510E+01  6.37897341899E+01 -1.26543780946E+02  1.89375682335E+02  1.25000000000E+02  0.00000000000E+00  1.
       -6    2    1    2    0  501 -4.36578942584E+01 -1.18546157082E+02  1.61837495295E+02  2.69563605520E+02  1.74682453175E+02  0.00000000000E+00  1.
        2    1    1    2  502    0  3.11802993074E+01  5.47564228924E+01  6.06832586030E+02  6.10095291230E+02  7.62939453125E-06  0.00000000000E+00  1.
       -5    1    4    4    0  501 -2.90035734495E+01 -9.56203401230E+01  1.54732168542E+02  1.84252715583E+02  4.75000000000E+00  0.00000000000E+00  1.
      -24    2    4    4    0    0 -1.46543208089E+01 -2.29258169594E+01  7.10532675345E+00  8.53108899364E+01  8.05426599502E+01  0.00000000000E+00  1.
       13    1    7    7    0    0  2.58116550953E+01 -3.39187243424E+01  8.00668802012E+00  4.33686478560E+01  1.05660000000E-01  0.00000000000E+00  1.
      -14    1    7    7    0    0 -4.04659759041E+01  1.09929073830E+01 -9.01361266674E-01  4.19422420805E+01  7.02965339302E-07  0.00000000000E+00  1.
</event>
<event>
 9 111   1.0000000E+00   7.4550000E+01   7.8125000E-03   1.3429423E-01
       -5   -1    0    0    0  501  0.00000000000E+00  0.00000000000E+00  2.71671485647E+02  2.71671485647E+02  0.00000000000E+00  0.00000000000E+00  1.
        1   -1    0    0  502    0  0.00000000000E+00  0.00000000000E+00 -1.05661838627E+03  1.05661838627E+03  0.00000000000E+00  0.00000000000E+00  1.
       25    1    1    2    0    0 -2.87291110501E+01  7.57169406742E+01  8.66992331845E+01  1.72337384109E+02  1.25000000000E+02  0.00000000000E+00  1.
       -6    2    1    2    0  501 -1.04953248832E+02 -8.14171303602E+00  5.94793610762E+01  2.12855423898E+02  1.75180378916E+02  0.00000000000E+00  1.
        2    1    1    2  502    0  1.33682359882E+02 -6.75752276381E+01 -9.31125494879E+02  9.43097063906E+02  1.52587890625E-05  0.00000000000E+00  1.
       -5    1    4    4    0  501 -4.76049292041E+01  1.69206919048E+01 -4.41721566873E+01  6.72776413489E+01  4.75000000000E+00  0.00000000000E+00  1.
      -24    2    4    4    0    0 -5.73483196276E+01 -2.50624049408E+01  1.03651517763E+02  1.45577782549E+02  8.08226436814E+01  0.00000000000E+00  1.
       13    1    7    7    0    0 -5.99024522087E+00 -5.38343862276E-01 -1.38052884912E+01  1.50588846294E+01  1.05659999991E-01  0.00000000000E+00  1.
      -14    1    7    7    0    0 -5.13580744068E+01 -2.45240610785E+01  1.17456806255E+02  1.30518897919E+02  0.00000000000E+00  0.00000000000E+00  1.
</event>
<event>
 9 111   1.0000000E+00   7.4550000E+01   7.8125000E-03   1.3429423E-01
        1   -1    0    0  502    0  0.00000000000E+00  0.00000000000E+00  1.58912891269E+03  1.58912891269E+03  0.00000000000E+00  0.00000000000E+00  1.
       -5   -1    0    0    0  501  0.00000000000E+00  0.00000000000E+00 -7.49404570410E+01  7.49404570410E+01  0.00000000000E+00  0.00000000000E+00  1.
       25    1    1    2    0    0 -1.54684051382E+00 -9.75246517527E-01  1.45180966962E+02  1.91587726615E+02  1.25000000000E+02  0.00000000000E+00  1.
       -6    2    1    2    0  501 -1.39391802034E+01 -6.64887305519E+01  1.16493538296E+02  2.18056515433E+02  1.71355908631E+02  0.00000000000E+00  1.
        2    1    1    2  502    0  1.54860207172E+01  6.74639770694E+01  1.25251395040E+03  1.25442512769E+03  0.00000000000E+00  0.00000000000E+00  1.
       -5    1    4    4    0  501 -2.42863324540E+01  3.76667207229E+01  4.19913244326E+00  4.52637051882E+01  4.75000000000E+00  0.00000000000E+00  1.
      -24    2    4    4    0    0  1.03471522506E+01 -1.04155451275E+02  1.12294405853E+02  1.72792810245E+02  7.93214983249E+01  0.00000000000E+00  1.
        3    1    7    7  704    0  3.94856696891E+01 -5.06469962044E+01  3.13036645339E+01  7.14433744204E+01  2.26183723939E-06  0.00000000000E+00  1.
       -4    1    7    7    0  704 -2.91385174385E+01 -5.35084550704E+01  8.09907413187E+01  1.01349435824E+02  1.90734863281E-06  0.00000000000E+00  1.
</event>
<event>
 9 111   1.0000000E+00   7.4550000E+01   7.8125000E-03   1.3429423E-01
        1   -1    0    0  502    0  0.00000000000E+00  0.00000000000E+00  9.76887239781E+02  9.76887239781E+02  0.00000000000E+00  0.00000000000E+00  1.
       -5   -1    0    0    0  501  0.00000000000E+00  0.00000000000E+00 -6.62876772253E+01  6.62876772253E+01  0.00000000000E+00  0.00000000000E+00  1.
       25    1    1    2    0    0  5.38450539350E+01  1.55872850217E+02  2.08933420734E+02  2.94064294955E+02  1.25000000000E+02  0.00000000000E+00  1.
       -6    2    1    2    0  501 -5.99077569267E+01 -1.46017817793E+02  5.59301528154E+02  6.06276588094E+02  1.72751148831E+02  0.00000000000E+00  1.
        2    1    1    2  502    0  6.06270299175E+00 -9.85503242424E+00  1.42364613668E+02  1.42834033957E+02  0.00000000000E+00  0.00000000000E+00  1.
       -5    1    4    4    0  501 -2.20399439002E+01 -1.29871640973E+02  2.34156123618E+02  2.68708122289E+02  4.75000000000E+00  0.00000000000E+00  1.
      -24    2    4    4    0    0 -3.78678130266E+01 -1.61461768196E+01  3.25145404536E+02  3.37568465805E+02  8.08595370118E+01  0.00000000000E+00  1.
       13    1    7    7    0    0 -6.24940162426E+01 -1.64557445878E+01  2.05783808625E+02  2.15692560494E+02  1.05659999987E-01  0.00000000000E+00  1.
      -14    1    7    7    0    0  2.46262032160E+01  3.09567768225E-01  1.19361595911E+02  1.21875905312E+02  3.01578298585E-06  0.00000000000E+00  1.
</event>
<event>
 9 111   1.0000000E+00   7.4550000E+01   7.8125000E-03   1.3429423E-01
        1   -1    0    0  502    0  0.00000000000E+00  0.00000000000E+00  7.49423629376E+02  7.49423629376E+02  0.00000000000E+00  0.00000000000E+00  1.
       -5   -1    0    0    0  501  0.00000000000E+00  0.00000000000E+00 -2.61651630747E+02  2.61651630747E+02  0.00000000000E+00  0.00000000000E+00  1.
       25    1    1    2    0    0  2.09265251773E+01 -7.59094567008E+01 -1.37555443407E+02  2.01858032002E+02  1.25000000000E+02  0.00000000000E+00  1.
       -6    2    1    2    0  501  1.28094853650E+01  1.55875498137E+01 -7.09575253913E+00  1.73028617806E+02  1.71701771252E+02  0.00000000000E+00  1.
        2    1    1    2  502    0 -3.37360105423E+01  6.03219068870E+01  6.32423194575E+02  6.36188610315E+02  1.07895932188E-05  0.00000000000E+00  1.
       -5    1    4    4    0  501 -8.33897562452E+00  6.74767119348E+01  2.15200007465E+01  7.14724989078E+01  4.75000000000E+00  0.00000000000E+00  1.
      -24    2    4    4    0    0  2.11484609895E+01 -5.18891621210E+01 -2.86157532856E+01  1.01556118898E+02  7.97185135439E+01  0.00000000000E+00  1.
        1    1    7    7  704    0  1.84153205517E+01 -2.45923922296E+01  2.61230435326E+01  4.03276975540E+01  1.01152436426E-06  0.00000000000E+00  1.
       -2    1    7    7    0  704  2.73314043776E+00 -2.72967698914E+01 -5.47387968182E+01  6.12284213439E+01  6.74349576174E-07  0.00000000000E+00  1.
</event>
<event>
 9 111   1.0000000E+00   7.4550000E+01   7.8125000E-03   1.3429423E-01
       -5   -1    0    0    0  501  0.00000000000E+00  0.00000000000E+00  4.05285689217E+01  4.05285689217E+01  0.00000000000E+00  0.00000000000E+00  1.
        1   -1    0    0  502    0  0.00000000000E+00  0.00000000000E+00 -1.33773132355E+03  1.33773132355E+03  0.00000000000E+00  0.00000000000E+00  1.
       25    1    1    2    0    0 -2.93455613920E+01  4.83816694732E+01 -1.83004069127E+02  2.28730053188E+02  1.25000000000E+02  0.00000000000E+00  1.
       -6    2    1    2    0  501  8.67487709396E+01 -1.49981585771E+01 -5.86923331969E+02  6.18089451555E+02  1.72642053087E+02  0.00000000000E+00  1.
        2    1    1    2  502    0 -5.74032095476E+01 -3.33835108961E+01 -5.27275353535E+02  5.31440387731E+02  0.00000000000E+00  0.00000000000E+00  1.
       -5    1    4    4    0  501  6.62693116386E+01 -6.77808822383E+01 -2.82404770123E+02  2.97927652879E+02  4.75000000000E+00  0.00000000000E+00  1.
      -24    2    4    4    0    0  2.04794593009E+01  5.27827236612E+01 -3.04518561846E+02  3.20161798676E+02  8.10345522118E+01  0.00000000000E+00  1.
        1    1    7    7  704    0 -2.48379804995E+01  1.06957983964E+01 -3.85007334269E+01  4.70492492293E+01  2.69739830470E-06  0.00000000000E+00  1.
       -4    1    7    7    0  704  4.53174398004E+01  4.20869252648E+01 -2.66017828420E+02  2.73112549447E+02  3.81469726562E-06  0.00000000000E+00  1.
</event>
<event>
 9 111   1.0000000E+00   7.4550000E+01   7.8125000E-03   1.3429423E-01
       -5   -1    0    0    0  501  0.00000000000E+00  0.00000000000E+00  8.66103015033E+01  8.66103015033E+01  0.00000000000E+00  0.00000000000E+00  1.
        1   -1    0    0  502    0  0.00000000000E+00  0.00000000000E+00 -7.45014159552E+02  7.45014159552E+02  0.00000000000E+00  0.00000000000E+00  1.
       25    1    1    2    0    0  4.08422919572E+01 -7.02636614853E+01 -1.32171069251E+02  1.99246747739E+02  1.25000000000E+02  0.00000000000E+00  1.
       -6    2    1    2    0  501 -1.73904038349E+01 -4.01418803772E+00 -1.01998025068E+02  2.01051473976E+02  1.72335597655E+02  0.00000000000E+00  1.
        2    1    1    2  502    0 -2.34518881223E+01  7.42778495230E+01 -4.24234763730E+02  4.31326239340E+02  7.62939453125E-06  0.00000000000E+00  1.
       -5    1    4    4    0  501 -6.30069667739E+01 -1.38214476769E+01 -3.60156980309E+00  6.47799666794E+01  4.75000000000E+00  0.00000000000E+00  1.
      -24    2    4    4    0    0  4.56165629390E+01  9.80725963922E+00 -9.83964552646E+01  1.36271507297E+02  8.19207430158E+01  0.00000000000E+00  1.
        1    1    7    7  704    0  3.74212219996E+01  4.41340573339E+01 -5.06628403463E+01  7.69082977620E+01  0.00000000000E+00  0.00000000000E+00  1.
       -2    1    7    7    0  704  8.19534093941E+00 -3.43267976947E+01 -4.77336149183E+01  5.93632095346E+01  0.00000000000E+00  0.00000000000E+00  1.
</event>
<event>
 9 111   1.0000000E+00   7.4550000E+01   7.8125000E-03   1.3429423E-01
       -5   -1    0    0    0  501  0.00000000000E+00  0.00000000000E+00  6.28236328277E+02  6.28236328277E+02  0.00000000000E+00  0.00000000000E+00  1.
       -2   -1    0    0    0  502  0.00000000000E+00  0.00000000000E+00 -1.14524862987E+03  1.14524862987E+03  0.00000000000E+00  0.00000000000E+00  1.
       25    1    1    2    0    0  3.70659446673E+02 -6.24505032005E+02 -2.51202963383E+02  7.78538945217E+02  1.25000000000E+02  0.00000000000E+00  1.
       -6    2    1    2    0  501 -3.48475525765E+02  6.21452727169E+02 -4.88223066974E+00  7.33059781217E+02  1.72377848047E+02  0.00000000000E+00  1.
       -1    1    1    2    0  502 -2.21839209072E+01  3.05230483563E+00 -2.60927107538E+02  2.61886231711E+02  3.81469726562E-06  0.00000000000E+00  1.
       -5    1    4    4    0  501 -8.18319145169E+01  2.74275153053E+02  2.12179877237E+01  2.87047186572E+02  4.75000000000E+00  0.00000000000E+00  1.
      -24    2    4    4    0    0 -2.66643611248E+02  3.47177574116E+02 -2.61002183934E+01  4.46012594645E+02  8.13322186628E+01  0.00000000000E+00  1.
        1    1    7    7  704    0 -9.40611424803E+01  1.04823125211E+02 -4.50993040908E+01  1.47882836507E+02  3.12683035102E-06  0.00000000000E+00  1.
       -2    1    7    7    0  704 -1.72582468768E+02  2.42354448905E+02  1.89990856974E+01  2.98129758138E+02  4.84523807356E-06  0.00000000000E+00  1.
</event>
<event>
 9 111   1.0000000E+00   7.4550000E+01   7.8125000E-03   1.3429423E-01
       -5   -1    0    0    0  501  0.00000000000E+00  0.00000000000E+00  2.30028737918E+02  2.30028737918E+02  0.00000000000E+00  0.00000000000E+00  1.
        3   -1    0    0  502    0  0.00000000000E+00  0.00000000000E+00 -1.78575925913E+02  1.78575925913E+02  0.00000000000E+00  0.00000000000E+00  1.
       25    1    1    2    0    0  7.25825146489E+01 -5.19726488698E+01  9.84498490513E+01  1.82446568730E+02  1.25000000000E+02  0.00000000000E+00  1.
       -6    2    1    2    0  501 -3.70846495014E+01  3.77466812553E+01 -3.82840516122E+01  1.86935745607E+02  1.75154849215E+02  0.00000000000E+00  1.
        4    1    1    2  502    0 -3.54978651475E+01  1.42259676145E+01 -8.71298543460E+00  3.92223494934E+01  6.52936169511E-07  0.00000000000E+00  1.
       -5    1    4    4    0  501  4.46118577871E+01  4.98172470066E+01 -2.12939154156E+01  7.03418032770E+01  4.75000000000E+00  0.00000000000E+00  1.
      -24    2    4    4    0    0 -8.16965072885E+01 -1.20705657513E+01 -1.69901361967E+01  1.16593942330E+02  8.05323835447E+01  0.00000000000E+00  1.
        1    1    7    7  704    0 -5.38166142937E+01 -5.04344797900E+00  2.97648928283E+01  6.17058602292E+01  7.53945746462E-07  0.00000000000E+00  1.
       -2    1    7    7    0  704 -2.78798929948E+01 -7.02711777234E+00 -4.67550290249E+01  5.48880821008E+01  9.53674316406E-07  0.00000000000E+00  1.
</event>
<event>
 9 111   1.0000000E+00   7.4550000E+01   7.8125000E-03   1.3429423E-01
       -5   -1    0    0    0  501  0.00000000000E+00  0.00000000000E+00  4.99507938259E+01  4.99507938259E+01  0.00000000000E+00  0.00000000000E+00  1.
        1   -1    0    0  502    0  0.00000000000E+00  0.00000000000E+00 -2.12013279784E+03  2.12013279784E+03  0.00000000000E+00  0.00000000000E+00  1.
       25    1    1    2    0    0 -4.12580316948E+01 -8.20240270272E+00 -2.15570025092E+02  2.52715136680E+02  1.25000000000E+02  0.00000000000E+00  1.
       -6    2    1    2    0  501  3.75595869401E+01 -2.14274396437E+00 -2.19285746941E+02  2.82005319299E+02  1.73278525441E+02  0.00000000000E+00  1.
        2    1    1    2  502    0  3.69844475467E+00  1.03451466671E+01 -1.63532623199E+03  1.63536313569E+03  2.15791864376E-05  0.00000000000E+00  1.
       -5    1    4    4    0  501  1.32938563823E+00  6.44245986398E+01 -6.39198819397E+01  9.08878978921E+01  4.75000000000E+00  0.00000000000E+00  1.
      -24    2    4    4    0    0  3.62302013019E+01 -6.65673426042E+01 -1.55365865001E+02  1.91117421407E+02  8.15075344375E+01  0.00000000000E+00  1.
       11    1    7    7    0    0 -1.44106120781E+01  3.65869433673E+00 -6.21165993935E+01  6.38711492396E+01  5.11003937192E-04  0.00000000000E+00  1.
      -12    1    7    7    0    0  5.06408133800E+01 -7.02260369409E+01 -9.32492656074E+01  1.27246272168E+02  1.34869915235E-06  0.00000000000E+00  1.
</event>
<event>
 9 111   1.0000000E+00   7.4550000E+01   7.8125000E-03   1.3429423E-01
       -5   -1    0    0    0  501  0.00000000000E+00  0.00000000000E+00  5.56513881871E+01  5.56513881871E+01  0.00000000000E+00  0.00000000000E+00  1.
       -2   -1    0    0    0  502  0.00000000000E+00  0.00000000000E+00 -9.06408440866E+02  9.06408440866E+02  0.00000000000E+00  0.00000000000E+00  1.
       25    1    1    2    0    0 -3.41795954948E+01  3.12545214012E+01 -1.38945475813E+02  1.92551123354E+02  1.25000000000E+02  0.00000000000E+00  1.
       -6    2    1    2    0  501 -5.86596149864E+01  9.58631492838E+00 -3.69668518600E+02  4.12648837915E+02  1.73468734717E+02  0.00000000000E+00  1.
       -1    1    1    2    0  502  9.28392104812E+01 -4.08408363296E+01 -3.42143058267E+02  3.56859867784E+02  5.39479660939E-06  0.00000000000E+00  1.
       -5    1    4    4    0  501  3.75583383958E+00  5.82717122334E+01 -2.00871281116E+02  2.09240370894E+02  4.75000000000E+00  0.00000000000E+00  1.
      -24    2    4    4    0    0 -6.24154488259E+01 -4.86853973050E+01 -1.68797237483E+02  2.03408467021E+02  8.13421226114E+01  0.00000000000E+00  1.
        1    1    7    7  704    0  1.32755826366E+01 -1.86160709163E+01 -7.87062685447E+01  8.19602092416E+01  1.65181236989E-06  0.00000000000E+00  1.
       -2    1    7    7    0  704 -7.56910314625E+01 -3.00693263886E+01 -9.00909689385E+01  1.21448257779E+02  1.65181236989E-06  0.00000000000E+00  1.
</event>
<event>
 9 111   1.0000000E+00   7.4550000E+01   7.8125000E-03   1.3429423E-01
       -5   -1    0    0    0  501  0.00000000000E+00  0.00000000000E+00  6.56655819280E+01  6.56655819280E+01  0.00000000000E+00  0.00000000000E+00  1.
       -2   -1    0    0    0  502  0.00000000000E+00  0.00000000000E+00 -8.77739923429E+02  8.77739923429E+02  0.00000000000E+00  0.00000000000E+00  1.
       25    1    1    2    0    0 -1.78946087743E+01  1.81606802443E+01 -5.39596358021E+01  1.38515954410E+02  1.25000000000E+02  0.00000000000E+00  1.
       -6    2    1    2    0  501 -4.23465216770E+01 -2.05056456342E+01 -3.65068758117E+02  4.07246985857E+02  1.74244655401E+02  0.00000000000E+00  1.
       -1    1    1    2    0  502  6.02411304513E+01  2.34496538992E+00 -3.93045947582E+02  3.97642565090E+02  5.39479660939E-06  0.00000000000E+00  1.
       -5    1    4    4    0  501 -4.43784858512E+01 -5.56826154881E+01 -7.19926350763E+01  1.01368168965E+02  4.75000000000E+00  0.00000000000E+00  1.
      -24    2    4    4    0    0  2.03196417424E+00  3.51769698539E+01 -2.93076123041E+02  3.05878816893E+02  8.01666304679E+01  0.00000000000E+00  1.
        1    1    7    7  704    0 -5.99337176086E+00 -2.40344269001E+01 -5.33809871343E+01  5.88481432920E+01  2.43140197448E-06  0.00000000000E+00  1.
       -2    1    7    7    0  704  8.02533593510E+00  5.92113967539E+01 -2.39695135906E+02  2.47030673601E+02  4.67203091199E-06  0.00000000000E+00  1.
</event>
<event>
 9 111   1.0000000E+00   7.4550000E+01   7.8125000E-03   1.3429423E-01
       -5   -1    0    0    0  501  0.00000000000E+00  0.00000000000E+00  2.01739346303E+02  2.01739346303E+02  0.00000000000E+00  0.00000000000E+00  1.
        1   -1    0    0  502    0  0.00000000000E+00  0.00000000000E+00 -6.93020916601E+02  6.93020916601E+02  0.00000000000E+00  0.00000000000E+00  1.
       25    1    1    2    0    0 -3.35709112495E+01 -1.75242304191E+01  5.02808754096E+01  1.39954532495E+02  1.25000000000E+02  0.00000000000E+00  1.
       -6    2    1    2    0  501 -7.18269058423E+01 -6.68263472870E+01  5.92182211158E+00  1.90923878141E+02  1.63682601925E+02  0.00000000000E+00  1.
        2    1    1    2  502    0  1.05397817092E+02  8.43505777060E+01 -5.47484267820E+02  5.63881852268E+02  7.62939453125E-06  0.00000000000E+00  1.
       -5    1    4    4    0  501 -6.56356307173E+01 -6.70335395489E+01 -3.49370823649E+01  1.00223219207E+02  4.75000000000E+00  0.00000000000E+00  1.
      -24    2    4    4    0    0 -6.19127512495E+00  2.07192261915E-01  4.08589044765E+01  9.07006589339E+01  8.07389908267E+01  0.00000000000E+00  1.
        3    1    7    7  704    0  5.64522035854E+00  2.62008277119E+01 -1.29610891341E+01  2.97714916863E+01  1.22733475458E-06  0.00000000000E+00  1.
       -2    1    7    7    0  704 -1.18364954835E+01 -2.59936354500E+01  5.38199936106E+01  6.09291672476E+01  1.34869915235E-06  0.00000000000E+00  1.
</event>
<event>
 9 111   1.0000000E+00   7.4550000E+01   7.8125000E-03   1.3429423E-01
       -5   -1    0    0    0  501  0.00000000000E+00  0.00000000000E+00  1.19377824403E+03  1.19377824403E+03  0.00000000000E+00  0.00000000000E+00  1.
       -2   -1    0    0    0  502  0.00000000000E+00  0.00000000000E+00 -1.35754193003E+03  1.35754193003E+03  0.00000000000E+00  0.00000000000E+00  1.
       25    1    1    2    0    0  6.41073574436E+01  1.54836550366E+02  5.31354640558E+02  5.71005135397E+02  1.25000000000E+02  0.00000000000E+00  1.
       -6    2    1    2    0  501 -9.68749344472E+01 -7.32881803530E+01  6.23565854728E+02  6.58705481820E+02  1.74076495523E+02  0.00000000000E+00  1.
       -1    1    1    2    0  502  3.27675770036E+01 -8.15483700127E+01 -1.31868418129E+03  1.32160955684E+03  4.03709611674E-05  0.00000000000E+00  1.
       -5    1    4    4    0  501  1.23680612303E+01  3.31269620680E+01  1.64326655635E+02  1.68155216412E+02  4.75000000000E+00  0.00000000000E+00  1.
      -24    2    4    4    0    0 -1.09242995678E+02 -1.06415142421E+02  4.59239199093E+02  4.90550265408E+02  8.05028339072E+01  0.00000000000E+00  1.
        3    1    7    7  704    0 -3.51081115162E+01 -3.12607309179E+01  5.31126897028E+01  7.09279253836E+01  6.97552625576E-06  0.00000000000E+00  1.
       -4    1    7    7    0  704 -7.41348841613E+01 -7.51544115030E+01  4.06126509390E+02  4.19622340024E+02  5.39479660939E-06  0.00000000000E+00  1.
</event>
<event>
 9 111   1.0000000E+00   7.4550000E+01   7.8125000E-03   1.3429423E-01
        3   -1    0    0  502    0  0.00000000000E+00  0.00000000000E+00  4.65949255903E+02  4.65949255903E+02  0.00000000000E+00  0.00000000000E+00  1.
       -5   -1    0    0    0  501  0.00000000000E+00  0.00000000000E+00 -1.35211637006E+02  1.35211637006E+02  0.00000000000E+00  0.00000000000E+00  1.
       25    1    1    2    0    0 -4.47170519296E+01 -6.75471723309E+01  4.68098223972E+01  1.56135821310E+02  1.25000000000E+02  0.00000000000E+00  1.
       -6    2    1    2    0  501  7.03408120896E+01  9.91028759710E+01  6.54552700698E+01  2.22803145765E+02  1.74893223172E+02  0.00000000000E+00  1.
        4    1    1    2  502    0 -2.56237601600E+01 -3.15557036400E+01  2.18472526430E+02  2.22221925835E+02  2.69739830470E-06  0.00000000000E+00  1.
       -5    1    4    4    0  501  5.91943831493E+01  9.90307937184E+01 -8.98970939233E+00  1.15820768759E+02  4.75000000000E+00  0.00000000000E+00  1.
      -24    2    4    4    0    0  1.11464289404E+01  7.20822525836E-02  7.44449794622E+01  1.06982377006E+02  7.60192472256E+01  0.00000000000E+00  1.
        3    1    7    7  704    0 -2.48838466944E+00  2.87605229292E+01  6.89466949571E+01  7.47462807297E+01  0.00000000000E+00  0.00000000000E+00  1.
       -4    1    7    7    0  704  1.36348136098E+01 -2.86884406766E+01  5.49828450507E+00  3.22360962762E+01  3.31864617040E-07  0.00000000000E+00  1.
</event>
<event>
 9 111   1.0000000E+00   7.4550000E+01   7.8125000E-03   1.3429423E-01
       -5   -1    0    0    0  501  0.00000000000E+00  0.00000000000E+00  3.94875248840E+02  3.94875248840E+02  0.00000000000E+00  0.00000000000E+00  1.
       -2   -1    0    0    0  502  0.00000000000E+00  0.00000000000E+00 -9.67577643080E+01  9.67577643080E+01  0.00000000000E+00  0.00000000000E+00  1.
       25    1    1    2    0    0  5.58015461067E+00 -5.15147647535E+01  2.04329951272E+02  2.45072720024E+02  1.25000000000E+02  0.00000000000E+00  1.
       -6    2    1    2    0  501 -4.14789847135E+01  2.14309525104E+01  6.15810094071E+01  1.89718214164E+02  1.73265657784E+02  0.00000000000E+00  1.
       -1    1    1    2    0  502  3.58988301029E+01  3.00838122431E+01  3.22065238523E+01  5.68420789598E+01  6.74349576174E-07  0.00000000000E+00  1.
       -5    1    4    4    0  501  5.04303145561E+01  2.33841429692E+01  2.31351561877E+01  6.03972906715E+01  4.75000000000E+00  0.00000000000E+00  1.
      -24    2    4    4    0    0 -9.19092992696E+01 -1.95319045883E+00  3.84458532193E+01  1.29320923492E+02  8.24298694521E+01  0.00000000000E+00  1.
       15    1    7    7    0    0 -2.70591553047E+01  3.22106558677E+01  3.69302772268E+01  5.60064874057E+01  1.77680000000E+00  0.00000000000E+00  1.
      -16    1    7    7    0    0 -6.48501439649E+01 -3.41638463265E+01  1.51557599251E+00  7.33144360865E+01  9.89104913192E-07  0.00000000000E+00  1.
</event>
<event>
 9 111   1.0000000E+00   7.4550000E+01   7.8125000E-03   1.3429423E-01
       -5   -1    0    0    0  501  0.00000000000E+00  0.00000000000E+00  2.47215624990E+01  2.47215624990E+01  0.00000000000E+00  0.00000000000E+00  1.
        3   -1    0    0  502    0  0.00000000000E+00  0.00000000000E+00 -3.22778501554E+03  3.22778501554E+03  0.00000000000E+00  0.00000000000E+00  1.
       25    1    1    2    0    0  9.32020286323E+01 -1.26040906152E+01 -5.33469264492E+02  5.55931594173E+02  1.25000000000E+02  0.00000000000E+00  1.
       -6    2    1    2    0  501 -7.72531229885E+01 -3.92353863678E+01 -6.97915563678E+02  7.24150511615E+02  1.72627833482E+02  0.00000000000E+00  1.
        4    1    1    2  502    0 -1.59489056439E+01  5.18394769830E+01 -1.97167862488E+03  1.97242447226E+03  3.73762472959E-05  0.00000000000E+00  1.
       -5    1    4    4    0  501 -8.80851382999E+01 -5.60947985292E+01 -4.72736895841E+02  4.84157364088E+02  4.74999999998E+00  0.00000000000E+00  1.
      -24    2    4    4    0    0  1.08320153114E+01  1.68594121614E+01 -2.25178667837E+02  2.39993147527E+02  8.05587119852E+01  0.00000000000E+00  1.
        1    1    7    7  704    0  1.31534823406E+01 -3.10355815961E+01 -1.14855838203E+02  1.19699979081E+02  1.90734863281E-06  0.00000000000E+00  1.
       -2    1    7    7    0  704 -2.32146702917E+00  4.78949937575E+01 -1.10322829634E+02  1.20293168445E+02  2.69739830470E-06  0.00000000000E+00  1.
</event>
<event>
 9 111   1.0000000E+00   7.4550000E+01   7.8125000E-03   1.3429423E-01
       -5   -1    0    0    0  501  0.00000000000E+00  0.00000000000E+00  3.96331469235E+02  3.96331469235E+02  0.00000000000E+00  0.00000000000E+00  1.
        1   -1    0    0  502    0  0.00000000000E+00  0.00000000000E+00 -9.13340345194E+02  9.13340345194E+02  0.00000000000E+00  0.00000000000E+00  1.
       25    1    1    2    0    0  2.82332094347E+01 -1.60710443896E+02  2.91175256882E+02  3.56416878266E+02  1.25000000000E+02  0.00000000000E+00  1.
       -6    2    1    2    0  501  4.00070479244E+01 -7.77935626308E+00 -7.02088122879E+01  1.93219990106E+02  1.75338543926E+02  0.00000000000E+00  1.
        2    1    1    2  502    0 -6.82402573592E+01  1.68489800159E+02 -7.37975320554E+02  7.60034946058E+02  1.86881236479E-05  0.00000000000E+00  1.
       -5    1    4    4    0  501 -5.95072498723E-01 -3.54485717773E+01  3.69150980118E+01  5.14027461674E+01  4.75000000000E+00  0.00000000000E+00  1.
      -24    2    4    4    0    0  4.06021204232E+01  2.76692155142E+01 -1.07123910300E+02  1.41817243939E+02  7.88827031128E+01  0.00000000000E+00  1.
       15    1    7    7    0    0  4.57882367862E+01  3.99511816534E+01 -3.86087397572E+01  7.20170212337E+01  1.77680000000E+00  0.00000000000E+00  1.
      -16    1    7    7    0    0 -5.18611636305E+00 -1.22819661392E+01 -6.85151705426E+01  6.98002227049E+01  1.34869915235E-06  0.00000000000E+00  1.
</event>
<event>
 9 111   1.0000000E+00   7.4550000E+01   7.8125000E-03   1.3429423E-01
       -5   -1    0    0    0  501  0.00000000000E+00  0.00000000000E+00  1.00268274413E+02  1.00268274413E+02  0.00000000000E+00  0.00000000000E+00  1.
        1   -1    0    0  502    0  0.00000000000E+00  0.00000000000E+00 -1.61504755260E+03  1.61504755260E+03  0.00000000000E+00  0.00000000000E+00  1.
       25    1    1    2    0    0  6.79380938384E+01 -5.06751577109E+00  4.24749999238E+00  1.42422981175E+02  1.25000000000E+02  0.00000000000E+00  1.
       -6    2    1    2    0  501 -7.32075497282E+01 -1.03004750878E+02 -4.54173547482E+02  5.02556550598E+02  1.74126825261E+02  0.00000000000E+00  1.
        2    1    1    2  502    0  5.26945588983E+00  1.08072266649E+02 -1.06485323070E+03  1.07033629524E+03  0.00000000000E+00  0.00000000000E+00  1.
       -5    1    4    4    0  501 -2.31711646767E+01  2.22824283837E+01 -2.13415089473E+02  2.15874899888E+02  4.75000000000E+00  0.00000000000E+00  1.
      -24    2    4    4    0    0 -5.00363850515E+01 -1.25287179262E+02 -2.40758458010E+02  2.86681650710E+02  7.75964988515E+01  0.00000000000E+00  1.
        3    1    7    7  704    0 -4.96591080137E+01 -6.18923587129E+01 -1.88507236916E+02  2.04527918499E+02  2.69739830470E-06  0.00000000000E+00  1.
       -4    1    7    7    0  704 -3.77277037757E-01 -6.33948205486E+01 -5.22512210935E+01  8.21537322105E+01  3.30362473978E-06  0.00000000000E+00  1.
</event>
<event>
 9 111   1.0000000E+00   7.4550000E+01   7.8125000E-03   1.3429423E-01
       -5   -1    0    0    0  501  0.00000000000E+00  0.00000000000E+00  4.71790514128E+02  4.71790514128E+02  0.00000000000E+00  0.00000000000E+00  1.
        3   -1    0    0  502    0  0.00000000000E+00  0.00000000000E+00 -1.29650477018E+02  1.29650477018E+02  0.00000000000E+00  0.00000000000E+00  1.
       25    1    1    2    0    0 -7.91456358731E+01  6.64064906761E+01  1.60927794600E+02  2.28465771521E+02  1.25000000000E+02  0.00000000000E+00  1.
       -6    2    1    2    0  501  1.39740485750E+02 -8.99321459242E+01  1.91450143656E+02  3.07172431642E+02  1.73454752102E+02  0.00000000000E+00  1.
        4    1    1    2  502    0 -6.05948498766E+01  2.35256552481E+01 -1.02379011463E+01  6.58027879827E+01  2.39310978650E-06  0.00000000000E+00  1.
       -5    1    4    4    0  501 -1.71516002276E+01 -6.19793254607E+00  8.15838696976E+01  8.37322043962E+01  4.75000000000E+00  0.00000000000E+00  1.
      -24    2    4    4    0    0  1.56892085977E+02 -8.37342133781E+01  1.09866273958E+02  2.23440227246E+02  7.89201613392E+01  0.00000000000E+00  1.
        3    1    7    7  704    0  1.05367952782E+02 -8.63920851284E+01  5.18166202292E+01  1.45777090032E+02  2.02304872852E-06  0.00000000000E+00  1.
       -4    1    7    7    0  704  5.15241331957E+01  2.65787175033E+00  5.80496537292E+01  7.76631372138E+01  1.78416127528E-06  0.00000000000E+00  1.
</event>
<event>
 9 111   1.0000000E+00   7.4550000E+01   7.8125000E-03   1.3429423E-01
       -5   -1    0    0    0  501  0.00000000000E+00  0.00000000000E+00  5.91917804312E+01  5.91917804312E+01  0.00000000000E+00  0.00000000000E+00  1.
        3   -1    0    0  502    0  0.00000000000E+00  0.00000000000E+00 -1.79591724521E+03  1.79591724521E+03  0.00000000000E+00  0.00000000000E+00  1.
       25    1    1    2    0    0 -2.56071523720E+01  3.68781726960E+01 -8.95683176059E+01  1.60197407572E+02  1.25000000000E+02  0.00000000000E+00  1.
       -6    2    1    2    0  501  2.50688559195E+01 -4.65761108830E+01 -3.26100795901E+02  3.73819561094E+02  1.74932997250E+02  0.00000000000E+00  1.
        4    1    1    2  502    0  5.38296452454E-01  9.69793818705E+00 -1.32105635127E+03  1.32109205698E+03  2.15791864376E-05  0.00000000000E+00  1.
       -5    1    4    4    0  501 -3.64273240160E+01 -5.31599269546E+01 -6.12208838290E+01  8.90139701709E+01  4.75000000000E+00  0.00000000000E+00  1.
      -24    2    4    4    0    0  6.14961799355E+01  6.58381607154E+00 -2.64879912072E+02  2.84805590923E+02  8.44258847805E+01  0.00000000000E+00  1.
        1    1    7    7  704    0  3.63637259056E+01 -3.84722125981E+01 -1.41137089150E+02  1.50738547285E+02  0.00000000000E+00  0.00000000000E+00  1.
       -2    1    7    7    0  704  2.51324540299E+01  4.50560286696E+01 -1.23742822921E+02  1.34067043637E+02  1.34869915235E-06  0.00000000000E+00  1.
</event>
<event>
 9 111   1.0000000E+00   7.4550000E+01   7.8125000E-03   1.3429423E-01
        3   -1    0    0  502    0  0.00000000000E+00  0.00000000000E+00  4.31374370786E+03  4.31374370786E+03  0.00000000000E+00  0.00000000000E+00  1.
       -5   -1    0    0    0  501  0.00000000000E+00  0.00000000000E+00 -1.02614703844E+02  1.02614703844E+02  0.00000000000E+00  0.00000000000E+00  1.
       25    1    1    2    0    0 -2.51950925243E+01 -1.77973881521E+02  5.11146375890E+02  5.56062148304E+02  1.25000000000E+02  0.00000000000E+00  1.
       -6    2    1    2    0  501  8.12693723171E+01  2.17948009146E+02  1.83436545806E+02  3.43075968223E+02  1.73049438216E+02  0.00000000000E+00  1.
        4    1    1    2  502    0 -5.60742797928E+01 -3.99741276256E+01  3.51654608232E+03  3.51722029518E+03  6.10351562500E-05  0.00000000000E+00  1.
       -5    1    4    4    0  501  4.96304725772E+01 -2.58499228705E+00  4.30543734868E+01  6.59250147493E+01  4.75000000000E+00  0.00000000000E+00  1.
      -24    2    4    4    0    0  3.16388997399E+01  2.20533001433E+02  1.40382172320E+02  2.77150953473E+02  8.64272642626E+01  0.00000000000E+00  1.
        3    1    7    7  704    0 -1.08757203007E+01  1.12108361903E+02  1.08524850262E+02  1.56410387204E+02  2.33601545599E-06  0.00000000000E+00  1.
       -4    1    7    7    0  704  4.25146200406E+01  1.08424639530E+02  3.18573220571E+01  1.20740566270E+02  2.58988868980E-06  0.00000000000E+00  1.
</event>
<event>
 9 111   1.0000000E+00   7.4550000E+01   7.8125000E-03   1.3429423E-01
        3   -1    0    0  502    0  0.00000000000E+00  0.00000000000E+00  1.58792858996E+02  1.58792858996E+02  0.00000000000E+00  0.00000000000E+00  1.
       -5   -1    0    0    0  501  0.00000000000E+00  0.00000000000E+00 -8.67749643708E+02  8.67749643708E+02  0.00000000000E+00  0.00000000000E+00  1.
       25    1    1    2    0    0  8.37441817319E+01 -5.93212937479E+01 -6.99716873877E+02  7.18164888764E+02  1.25000000000E+02  0.00000000000E+00  1.
       -6    2    1    2    0  501 -5.24148017044E+01  3.29715695605E+01 -1.00071237691E+02  2.08747458083E+02  1.72414653687E+02  0.00000000000E+00  1.
        4    1    1    2  502    0 -3.13293800275E+01  2.63497241874E+01  9.08313268559E+01  9.96301558568E+01  0.00000000000E+00  0.00000000000E+00  1.
       -5    1    4    4    0  501 -8.65322157337E+01  3.93779546863E+00 -7.08042466837E+01  1.11978276649E+02  4.75000000000E+00  0.00000000000E+00  1.
      -24    2    4    4    0    0  3.41174140292E+01  2.90337740919E+01 -2.92669910070E+01  9.67691814335E+01  8.06272890196E+01  0.00000000000E+00  1.
       11    1    7    7    0    0  2.33882388678E+01  2.36412483584E+01  2.47366548882E+01  4.14465974068E+01  5.11000043823E-04  0.00000000000E+00  1.
      -12    1    7    7    0    0  1.07291751614E+01  5.39252573356E+00 -5.40036458952E+01  5.53225840268E+01  0.00000000000E+00  0.00000000000E+00  1.
</event>
</LesHouchesEvents>
