<LesHouchesEvents version="1.0">
<!--
Output from the JHUGenerator v7.4.0 described in arXiv:1001.3396 [hep-ph], arXiv:1208.4018 [hep-ph], arXiv:1309.4819 [hep-ph], arXiv:1606.03107 [hep-ph]
   
   Command line: ./JHUGen Seed=765543533 PDFSet=3 Process=113 VegasNc0=100000 VegasNc2=100 DataFile=compare_to_reference/tqH_113 TopDK=1 DecayMode1=11 ghg2=0.383432074687728,0.918260989345657 ghg3=6294.49296087723,2253.12941717723 ghg4=0.335495485382528,0.17285803562226 ghz1=0.154934976270359,0.453918144016304 ghz2=0.469297059144414,0.745302300947002 ghz3=3947.40921062637,3597.4885961919 ghz4=0.177791270766536,0.920170534486048 ghzgs2=0.0240331049939919,0.232175381101053 ghzgs3=0.331962910170583,0.0450183240308457 ghzgs4=0.808286540247172,0.133184346613754 ghgsgs2=0.530394804029869,0.211218112389125 ghgsgs3=0.914978695198138,0.055650585081425 ghgsgs4=0.694524307167701,0.511424456076726 ghz1_prime=0.143354267833606,0.0910761280837012 ghz1_prime2=7416.7007267243,4861.35525489789 ghz1_prime3=4431.44656075298,4436.48625894176 ghz1_prime4=2441.69123517064,6946.16318931911 ghz1_prime5=78314042.889773,69465359.939181 ghz1_prime6=51233058.8130761,29537873.5850789 ghz1_prime7=47832192.9001564,59559649.9633293 g
   
   Input Parameter:
    Collider: P-P, sqrt(s)=13000.00
    Resonance: spin=0, mass= 125.00 width=   0.00407
    DecayMode1:11
    W boson: mass=80.399, width=2.0850
    Top quark mass=173.2000, width=2.0000
    Top quark decay= 1
    Random seed:   765543533
    To reproduce results using this seed, JHUGen should be compiled with the same compiler:
      GNU Fortran (GCC) 6.3.0
    
    WidthScheme:   2
    PDFSet:   3
    Unweighted: T
    
    
    LHE output: compare_to_reference/tqH_113.lhe
    Histogram output: compare_to_reference/tqH_113.dat
    Log file: compare_to_reference/tqH_113.log
    
-->
<init>
2212 2212   6500.0000000000000000    6500.0000000000000000 0 0  263000  263000  3  1
 3.5821932E+00  3.9182872E-02  1.0000000E+00 113
</init>
<event>
 9 113   1.0000000E+00   3.1250000E+01   7.8125000E-03   1.5660620E-01
       -2   -1    0    0    0  501  0.00000000000E+00  0.00000000000E+00  3.24449054453E+02  3.24449054453E+02  0.00000000000E+00 0.00000000000E+00  1.
        1   -1    0    0  501    0  0.00000000000E+00  0.00000000000E+00 -1.89010490978E+03  1.89010490978E+03  0.00000000000E+00 0.00000000000E+00  1.
       25    1    1    2    0    0  1.35859385863E+02 -5.05219578643E+01 -9.35898122907E+00  1.91632021027E+02  1.25000000000E+02 0.00000000000E+00  1.
       -6    2    1    2    0  502  1.67872833644E+02  1.10671528925E+02  1.38678661672E+02  2.99897480547E+02  1.74003597793E+02 0.00000000000E+00  1.
        5    1    1    2  502    0 -3.03732219506E+02 -6.01495710609E+01 -1.69497553577E+03  1.72302446266E+03  2.15791864376E-05 0.00000000000E+00  1.
       -5    1    4    4    0  502  6.67592641954E+01  4.11348706756E+01  1.30888748751E+02  1.52654197423E+02  4.75000000000E+00 0.00000000000E+00  1.
      -24    2    4    4    0    0  1.01113569448E+02  6.95366582496E+01  7.78991292103E+00  1.47243283123E+02  8.09975364719E+01 0.00000000000E+00  1.
        3    1    7    7  704    0  6.31333098831E+01  3.56875189506E+00  2.69677508770E+01  6.87445299224E+01  5.84003863998E-07 0.00000000000E+00  1.
       -4    1    7    7    0  704  3.79802595653E+01  6.59679063546E+01 -1.91778379560E+01  7.84987532010E+01  6.74349576174E-07 0.00000000000E+00  1.
</event>
<event>
 9 113   1.0000000E+00   3.1250000E+01   7.8125000E-03   1.5660620E-01
       -2   -1    0    0    0  501  0.00000000000E+00  0.00000000000E+00  7.96625322635E+01  7.96625322635E+01  0.00000000000E+00 0.00000000000E+00  1.
        1   -1    0    0  501    0  0.00000000000E+00  0.00000000000E+00 -2.14032558749E+03  2.14032558749E+03  0.00000000000E+00 0.00000000000E+00  1.
       25    1    1    2    0    0 -5.58847305253E+01 -7.48411900905E+01 -1.40042040783E+02  2.09668977263E+02  1.25000000000E+02 0.00000000000E+00  1.
       -6    2    1    2    0  502 -8.40600772398E+01 -1.62456100964E+02 -4.64171072734E+02  5.28043531726E+02  1.72965618861E+02 0.00000000000E+00  1.
        5    1    1    2  502    0  1.39944807765E+02  2.37297291054E+02 -1.45644994171E+03  1.48227561076E+03  0.00000000000E+00 0.00000000000E+00  1.
       -5    1    4    4    0  502  4.07612746317E+01 -2.54231176281E+01 -1.06251451084E+02  1.16703683648E+02  4.75000000000E+00 0.00000000000E+00  1.
      -24    2    4    4    0    0 -1.24821351872E+02 -1.37032983336E+02 -3.57919621650E+02  4.11339848078E+02  8.20707417379E+01 0.00000000000E+00  1.
        3    1    7    7  704    0 -1.58143398069E+01  8.99203497421E+00 -5.39451389868E+01  5.69300277254E+01  2.86102294922E-06 0.00000000000E+00  1.
       -4    1    7    7    0  704 -1.09007012065E+02 -1.46025018310E+02 -3.03974482663E+02  3.54409820352E+02  5.39479660939E-06 0.00000000000E+00  1.
</event>
<event>
 9 113   1.0000000E+00   3.1250000E+01   7.8125000E-03   1.5660620E-01
        1   -1    0    0  501    0  0.00000000000E+00  0.00000000000E+00  6.24416271113E+02  6.24416271113E+02  0.00000000000E+00 0.00000000000E+00  1.
       -2   -1    0    0    0  501  0.00000000000E+00  0.00000000000E+00 -2.12177908930E+02  2.12177908930E+02  0.00000000000E+00 0.00000000000E+00  1.
       25    1    1    2    0    0  2.22005601232E+01 -2.10133720531E+02  2.18952416431E+02  3.28959277168E+02  1.25000000000E+02 0.00000000000E+00  1.
       -6    2    1    2    0  502 -6.47212426171E+01 -4.51940865044E+01  8.85944947942E+00  1.89808802605E+02  1.72387780890E+02 0.00000000000E+00  1.
        5    1    1    2  502    0  4.25206824939E+01  2.55327807035E+02  1.84426496273E+02  3.17826100270E+02  2.69739830470E-06 0.00000000000E+00  1.
       -5    1    4    4    0  502 -3.49264271360E+01  2.01974536249E+01  5.89432541587E+01  7.15867456743E+01  4.75000000000E+00 0.00000000000E+00  1.
      -24    2    4    4    0    0 -2.97948154811E+01 -6.53915401294E+01 -5.00838046793E+01  1.18222056930E+02  7.93995132456E+01 0.00000000000E+00  1.
        3    1    7    7  704    0 -3.19682568014E+01 -1.69175159717E+01  1.31777918351E+01  3.84944929467E+01  1.10550147241E-06 0.00000000000E+00  1.
       -4    1    7    7    0  704  2.17344132028E+00 -4.84740241577E+01 -6.32615965144E+01  7.97275639836E+01  1.16800772800E-06 0.00000000000E+00  1.
</event>
<event>
 9 113   1.0000000E+00   3.1250000E+01   7.8125000E-03   1.5660620E-01
        1   -1    0    0  501    0  0.00000000000E+00  0.00000000000E+00  1.10865671130E+03  1.10865671130E+03  0.00000000000E+00 0.00000000000E+00  1.
       -2   -1    0    0    0  501  0.00000000000E+00  0.00000000000E+00 -5.31727360319E+01  5.31727360319E+01  0.00000000000E+00 0.00000000000E+00  1.
       25    1    1    2    0    0  2.32540723006E+01  1.41200120667E+02  3.66055236724E+02  4.12431403130E+02  1.25000000000E+02 0.00000000000E+00  1.
       -6    2    1    2    0  502 -8.48655664181E+01 -1.04530091703E+02  4.67207302815E+02  5.15896365987E+02  1.72446200887E+02 0.00000000000E+00  1.
        5    1    1    2  502    0  6.16114941175E+01 -3.66700289641E+01  2.22221435734E+02  2.33501678219E+02  3.81469726562E-06 0.00000000000E+00  1.
       -5    1    4    4    0  502 -6.37045854025E+01 -7.07469883211E+01  1.03131789830E+02  1.40435533721E+02  4.75000000000E+00 0.00000000000E+00  1.
      -24    2    4    4    0    0 -2.11609810156E+01 -3.37831033814E+01  3.64075512984E+02  3.75460832266E+02  8.26484858883E+01 0.00000000000E+00  1.
        1    1    7    7  704    0 -3.14037413720E+01 -4.94496322031E+01  3.39772972741E+02  3.44785635000E+02  7.62939453125E-06 0.00000000000E+00  1.
       -2    1    7    7    0  704  1.02427603564E+01  1.56665288217E+01  2.43025402437E+01  3.06751972665E+01  4.11574280301E-06 0.00000000000E+00  1.
</event>
<event>
 9 113   1.0000000E+00   3.1250000E+01   7.8125000E-03   1.5660620E-01
       -2   -1    0    0    0  501  0.00000000000E+00  0.00000000000E+00  8.44222404506E+01  8.44222404506E+01  0.00000000000E+00 0.00000000000E+00  1.
        1   -1    0    0  501    0  0.00000000000E+00  0.00000000000E+00 -1.11133787276E+03  1.11133787276E+03  0.00000000000E+00 0.00000000000E+00  1.
       25    1    1    2    0    0 -4.27142113070E+00 -1.22917432561E+01 -6.78553969973E+01  1.42823971701E+02  1.25000000000E+02 0.00000000000E+00  1.
       -6    2    1    2    0  502  4.94665981382E+01 -1.56550954243E+02 -3.79493734910E+02  4.47586830027E+02  1.71357316658E+02 0.00000000000E+00  1.
        5    1    1    2  502    0 -4.51951770075E+01  1.68842697499E+02 -5.79566500400E+02  6.05349311480E+02  7.62939453125E-06 0.00000000000E+00  1.
       -5    1    4    4    0  502  2.63804786443E+01 -1.41454740401E+02 -2.94667680390E+02  3.27958804733E+02  4.75000000000E+00 0.00000000000E+00  1.
      -24    2    4    4    0    0  2.30861194940E+01 -1.50962138423E+01 -8.48260545201E+01  1.19628025295E+02  7.97153706934E+01 0.00000000000E+00  1.
        1    1    7    7  704    0  3.13637437068E+01  2.68226496121E+01 -4.71666901297E+01  6.26724469708E+01  1.34869915235E-06 0.00000000000E+00  1.
       -2    1    7    7    0  704 -8.27762421279E+00 -4.19188634544E+01 -3.76593643904E+01  5.69555783238E+01  1.16800772800E-06 0.00000000000E+00  1.
</event>
<event>
 9 113   1.0000000E+00   3.1250000E+01   7.8125000E-03   1.5660620E-01
       -2   -1    0    0    0  501  0.00000000000E+00  0.00000000000E+00  9.18745992012E+02  9.18745992012E+02  0.00000000000E+00 0.00000000000E+00  1.
        1   -1    0    0  501    0  0.00000000000E+00  0.00000000000E+00 -8.43054123075E+01  8.43054123075E+01  0.00000000000E+00 0.00000000000E+00  1.
       25    1    1    2    0    0 -3.90612427544E+01 -5.24249985382E+01  1.18931193870E+02  1.84509593335E+02  1.25000000000E+02 0.00000000000E+00  1.
       -6    2    1    2    0  502 -3.38828974585E+01 -9.78721211484E+01  2.33737627786E+02  3.08626034968E+02  1.72886517632E+02 0.00000000000E+00  1.
        5    1    1    2  502    0  7.29441402129E+01  1.50297119687E+02  4.81771758047E+02  5.09915776016E+02  7.62939453125E-06 0.00000000000E+00  1.
       -5    1    4    4    0  502 -5.91442522219E+01 -5.41634196594E+01  3.36966250203E+01  8.71191347400E+01  4.75000000000E+00 0.00000000000E+00  1.
      -24    2    4    4    0    0  2.52613547634E+01 -4.37087014890E+01  2.00041002766E+02  2.21506900228E+02  8.06245460811E+01 0.00000000000E+00  1.
        3    1    7    7  704    0  3.19140720686E+01 -4.99791104745E+01  7.26069160759E+01  9.37453131728E+01  1.65181236989E-06 0.00000000000E+00  1.
       -4    1    7    7    0  704 -6.65271730519E+00  6.27040898547E+00  1.27434086690E+02  1.27761587056E+02  1.90734863281E-06 0.00000000000E+00  1.
</event>
<event>
 9 113   1.0000000E+00   3.1250000E+01   7.8125000E-03   1.5660620E-01
       -2   -1    0    0    0  501  0.00000000000E+00  0.00000000000E+00  3.53453043095E+02  3.53453043095E+02  0.00000000000E+00 0.00000000000E+00  1.
        1   -1    0    0  501    0  0.00000000000E+00  0.00000000000E+00 -2.14523644415E+02  2.14523644415E+02  0.00000000000E+00 0.00000000000E+00  1.
       25    1    1    2    0    0 -5.56696164277E+01 -5.25243539581E+01  1.23101792211E+02  1.91407850407E+02  1.25000000000E+02 0.00000000000E+00  1.
       -6    2    1    2    0  502  1.73481556814E+02 -4.54540026798E+00  1.60637530846E+00  2.44891756482E+02  1.72779862060E+02 0.00000000000E+00  1.
        5    1    1    2  502    0 -1.17811940386E+02  5.70697542261E+01  1.42212311595E+01  1.31677080620E+02  4.23486701687E-06 0.00000000000E+00  1.
       -5    1    4    4    0  502 -2.23681197650E+01 -2.70391353439E+01  3.72498087385E+00  3.56073813201E+01  4.75000000000E+00 0.00000000000E+00  1.
      -24    2    4    4    0    0  1.95849676579E+02  2.24937350759E+01 -2.11860556539E+00  2.09284375162E+02  7.02310277867E+01 0.00000000000E+00  1.
        3    1    7    7  704    0  7.68326998571E+01  1.95192446624E+01 -3.36590520191E+01  8.61231470764E+01  1.50789149292E-06 0.00000000000E+00  1.
       -4    1    7    7    0  704  1.19016976721E+02  2.97449041350E+00  3.15404464537E+01  1.23161228086E+02  1.01152436426E-06 0.00000000000E+00  1.
</event>
<event>
 9 113   1.0000000E+00   3.1250000E+01   7.8125000E-03   1.5660620E-01
       -4   -1    0    0    0  501  0.00000000000E+00  0.00000000000E+00  5.25234939689E+02  5.25234939689E+02  0.00000000000E+00 0.00000000000E+00  1.
        3   -1    0    0  501    0  0.00000000000E+00  0.00000000000E+00 -5.40668575229E+02  5.40668575229E+02  0.00000000000E+00 0.00000000000E+00  1.
       25    1    1    2    0    0 -9.71284691224E+01 -3.25743678451E+01  3.61532390648E+01  1.65611248560E+02  1.25000000000E+02 0.00000000000E+00  1.
       -6    2    1    2    0  502 -3.50351075290E+02 -1.41405807678E+02  1.72499713468E+01  4.15271075581E+02  1.71496432327E+02 0.00000000000E+00  1.
        5    1    1    2  502    0  4.47479544412E+02  1.73980175523E+02 -6.88368459523E+01  4.85021190777E+02  9.09747315804E-06 0.00000000000E+00  1.
       -5    1    4    4    0  502 -9.09965740158E+00 -1.89200193645E-02  3.55430338011E+01  3.69955926372E+01  4.75000000000E+00 0.00000000000E+00  1.
      -24    2    4    4    0    0 -3.41251417888E+02 -1.41386887659E+02 -1.82930624543E+01  3.78275482944E+02  7.94664875893E+01 0.00000000000E+00  1.
        3    1    7    7  704    0 -1.66585404766E+02 -5.48935938681E+01 -4.62000704598E+01  1.81379299368E+02  2.33601545599E-06 0.00000000000E+00  1.
       -4    1    7    7    0  704 -1.74666013123E+02 -8.64932937909E+01  2.79070080056E+01  1.96896183576E+02  1.39020726558E-06 0.00000000000E+00  1.
</event>
<event>
 9 113   1.0000000E+00   3.1250000E+01   7.8125000E-03   1.5660620E-01
       -2   -1    0    0    0  501  0.00000000000E+00  0.00000000000E+00  1.65145653749E+02  1.65145653749E+02  0.00000000000E+00 0.00000000000E+00  1.
        1   -1    0    0  501    0  0.00000000000E+00  0.00000000000E+00 -2.31820474092E+03  2.31820474092E+03  0.00000000000E+00 0.00000000000E+00  1.
       25    1    1    2    0    0 -1.96775869586E+02  3.79832173848E+02 -4.07294994895E+02  6.03744512197E+02  1.25000000000E+02 0.00000000000E+00  1.
       -6    2    1    2    0  502 -3.36631759896E+01 -5.90068767862E+01 -1.60520453056E+02  2.45889744139E+02  1.73435663857E+02 0.00000000000E+00  1.
        5    1    1    2  502    0  2.30439045575E+02 -3.20825297062E+02 -1.58524363922E+03  1.63371613833E+03  2.15791864376E-05 0.00000000000E+00  1.
       -5    1    4    4    0  502  2.85168277858E+01  3.64891717376E+01 -4.85474243623E+01  6.72613115638E+01  4.75000000000E+00 0.00000000000E+00  1.
      -24    2    4    4    0    0 -6.21800037755E+01 -9.54960485238E+01 -1.11973028694E+02  1.78628432575E+02  7.99018749225E+01 0.00000000000E+00  1.
        1    1    7    7  704    0  1.24199573453E+01 -2.61808883535E+01 -5.44297680993E+01  6.16627432959E+01  1.16800772800E-06 0.00000000000E+00  1.
       -2    1    7    7    0  704 -7.45999611208E+01 -6.93151601702E+01 -5.75432605944E+01  1.16965689279E+02  6.74349576174E-07 0.00000000000E+00  1.
</event>
<event>
 9 113   1.0000000E+00   3.1250000E+01   7.8125000E-03   1.5660620E-01
       -2   -1    0    0    0  501  0.00000000000E+00  0.00000000000E+00  1.92419339052E+02  1.92419339052E+02  0.00000000000E+00 0.00000000000E+00  1.
        1   -1    0    0  501    0  0.00000000000E+00  0.00000000000E+00 -5.46057003786E+02  5.46057003786E+02  0.00000000000E+00 0.00000000000E+00  1.
       25    1    1    2    0    0  2.19405970594E+01  2.35525180431E+01  4.86634300259E+00  1.29169625685E+02  1.25000000000E+02 0.00000000000E+00  1.
       -6    2    1    2    0  502 -2.04492430510E+02  5.92130654144E+01 -2.85801615669E+02  3.96090977787E+02  1.72864565233E+02 0.00000000000E+00  1.
        5    1    1    2  502    0  1.82551833450E+02 -8.27655834575E+01 -7.27023920674E+01  2.13215739366E+02  4.86280394897E-06 0.00000000000E+00  1.
       -5    1    4    4    0  502 -3.89817983099E+01  5.90131975658E+01 -2.08333127336E+01  7.38832017841E+01  4.75000000000E+00 0.00000000000E+00  1.
      -24    2    4    4    0    0 -1.65510632200E+02  1.99867848600E-01 -2.64968302936E+02  3.22207776003E+02  7.88405989169E+01 0.00000000000E+00  1.
        3    1    7    7  704    0 -6.19267493114E+01  3.54466107869E+01 -1.31601163477E+02  1.49700536823E+02  1.90734863281E-06 0.00000000000E+00  1.
       -4    1    7    7    0  704 -1.03583882888E+02 -3.52467429383E+01 -1.33367139458E+02  1.72507239179E+02  2.69739830470E-06 0.00000000000E+00  1.
</event>
<event>
 9 113   1.0000000E+00   3.1250000E+01   7.8125000E-03   1.5660620E-01
       -2   -1    0    0    0  501  0.00000000000E+00  0.00000000000E+00  3.78848277264E+02  3.78848277264E+02  0.00000000000E+00 0.00000000000E+00  1.
        1   -1    0    0  501    0  0.00000000000E+00  0.00000000000E+00 -8.25686684319E+01  8.25686684319E+01  0.00000000000E+00 0.00000000000E+00  1.
       25    1    1    2    0    0  4.73862875127E+00  6.79398926831E+01  1.41898448697E+02  2.00993664982E+02  1.25000000000E+02 0.00000000000E+00  1.
       -6    2    1    2    0  502  8.89333299643E+00 -6.11019082589E+01  1.10035599482E+02  2.13528535148E+02  1.72261625455E+02 0.00000000000E+00  1.
        5    1    1    2  502    0 -1.36319617477E+01 -6.83798442410E+00  4.43455606529E+01  4.68947455660E+01  9.53674316406E-07 0.00000000000E+00  1.
       -5    1    4    4    0  502  4.58311805871E+01  2.52020839752E+01  6.57042214982E+00  5.29280180805E+01  4.75000000000E+00 0.00000000000E+00  1.
      -24    2    4    4    0    0 -3.69378475907E+01 -8.63039922341E+01  1.03465177332E+02  1.60600517067E+02  7.92130008377E+01 0.00000000000E+00  1.
        1    1    7    7  704    0 -4.80607863411E+01 -2.34384094447E+01  7.12730566066E+01  8.91013289411E+01  9.53674316406E-07 0.00000000000E+00  1.
       -4    1    7    7    0  704  1.11229387503E+01 -6.28655827894E+01  3.21921207256E+01  7.14991881262E+01  1.26159253648E-06 0.00000000000E+00  1.
</event>
<event>
 9 113   1.0000000E+00   3.1250000E+01   7.8125000E-03   1.5660620E-01
       -2   -1    0    0    0  501  0.00000000000E+00  0.00000000000E+00  3.04258192061E+02  3.04258192061E+02  0.00000000000E+00 0.00000000000E+00  1.
        1   -1    0    0  501    0  0.00000000000E+00  0.00000000000E+00 -3.76116901220E+02  3.76116901220E+02  0.00000000000E+00 0.00000000000E+00  1.
       25    1    1    2    0    0  1.05773351729E+02 -1.39701612695E+02 -1.09294081335E+02  2.41401612962E+02  1.25000000000E+02 0.00000000000E+00  1.
       -6    2    1    2    0  502  1.01351761328E+02  1.03394197743E+02  7.90073452227E+00  2.26626274872E+02  1.74168043008E+02 0.00000000000E+00  1.
        5    1    1    2  502    0 -2.07125113058E+02  3.63074149527E+01  2.95346376536E+01  2.12347205447E+02  4.82760828288E-06 0.00000000000E+00  1.
       -5    1    4    4    0  502  3.85268025766E+01  7.41815396068E+01  6.35611990863E+01  1.05118047283E+02  4.75000000000E+00 0.00000000000E+00  1.
      -24    2    4    4    0    0  6.28249587518E+01  2.92126581359E+01 -5.56604645640E+01  1.21508227590E+02  8.28601666604E+01 0.00000000000E+00  1.
       11    1    7    7    0    0  2.78868719782E+00  4.46306060158E+01 -3.27400572939E+01  5.54218289259E+01  5.11000377541E-04 0.00000000000E+00  1.
      -12    1    7    7    0    0  6.00362715540E+01 -1.54179478799E+01 -2.29204072701E+01  6.60863986639E+01  6.74349576174E-07 0.00000000000E+00  1.
</event>
<event>
 9 113   1.0000000E+00   3.1250000E+01   7.8125000E-03   1.5660620E-01
        1   -1    0    0  501    0  0.00000000000E+00  0.00000000000E+00  1.96885110534E+01  1.96885110534E+01  0.00000000000E+00 0.00000000000E+00  1.
       -2   -1    0    0    0  501  0.00000000000E+00  0.00000000000E+00 -2.23706576953E+03  2.23706576953E+03  0.00000000000E+00 0.00000000000E+00  1.
       25    1    1    2    0    0  7.69051483953E+01  5.98856922044E+00 -1.07953178693E+03  1.08947884046E+03  1.25000000000E+02 0.00000000000E+00  1.
       -6    2    1    2    0  502 -2.49592302501E+01 -2.92908981361E+01 -1.03467120930E+03  1.04943527153E+03  1.71140170293E+02 0.00000000000E+00  1.
        5    1    1    2  502    0 -5.19459181452E+01  2.33023289157E+01 -1.03174262248E+02  1.17840168599E+02  1.34869915235E-06 0.00000000000E+00  1.
       -5    1    4    4    0  502  5.70857197542E+01  3.85553037207E-01 -3.15591631060E+02  3.20748449951E+02  4.74999999998E+00 0.00000000000E+00  1.
      -24    2    4    4    0    0 -8.20449500044E+01 -2.96764511734E+01 -7.19079578242E+02  7.28686821581E+02  7.93535035446E+01 0.00000000000E+00  1.
        1    1    7    7  704    0 -4.43894757039E+01  2.50943086576E+01 -2.80047462894E+02  2.84651947742E+02  5.39479660939E-06 0.00000000000E+00  1.
       -2    1    7    7    0  704 -3.76554743005E+01 -5.47707598310E+01 -4.39032115348E+02  4.44034873838E+02  7.62939453125E-06 0.00000000000E+00  1.
</event>
<event>
 9 113   1.0000000E+00   3.1250000E+01   7.8125000E-03   1.5660620E-01
       -2   -1    0    0    0  501  0.00000000000E+00  0.00000000000E+00  4.75752783560E+01  4.75752783560E+01  0.00000000000E+00 0.00000000000E+00  1.
        1   -1    0    0  501    0  0.00000000000E+00  0.00000000000E+00 -1.01987889071E+03  1.01987889071E+03  0.00000000000E+00 0.00000000000E+00  1.
       25    1    1    2    0    0  5.34338881659E+01  1.06886255710E+01 -5.33913164625E+02  5.51051444496E+02  1.25000000000E+02 0.00000000000E+00  1.
       -6    2    1    2    0  502 -4.61755134334E+00  5.99295050816E+01 -2.81993327156E+02  3.37993043103E+02  1.76369479405E+02 0.00000000000E+00  1.
        5    1    1    2  502    0 -4.88163368225E+01 -7.06181306526E+01 -1.56397120571E+02  1.78409681466E+02  4.26496119976E-06 0.00000000000E+00  1.
       -5    1    4    4    0  502  5.25769123496E+01  3.36496870172E+01 -1.96268095161E+02  2.06010584259E+02  4.75000000000E+00 0.00000000000E+00  1.
      -24    2    4    4    0    0 -5.71944636930E+01  2.62798180644E+01 -8.57252319946E+01  1.31982458844E+02  7.81582914811E+01 0.00000000000E+00  1.
       15    1    7    7    0    0 -4.85266357028E+01 -1.95383286768E+01 -5.61527284500E+01  7.67650088955E+01  1.77680000000E+00 0.00000000000E+00  1.
      -16    1    7    7    0    0 -8.66782799017E+00  4.58181467412E+01 -2.95725035446E+01  5.52174499480E+01  5.84003863998E-07 0.00000000000E+00  1.
</event>
<event>
 9 113   1.0000000E+00   3.1250000E+01   7.8125000E-03   1.5660620E-01
       -4   -1    0    0    0  501  0.00000000000E+00  0.00000000000E+00  1.32537523787E+02  1.32537523787E+02  0.00000000000E+00 0.00000000000E+00  1.
        3   -1    0    0  501    0  0.00000000000E+00  0.00000000000E+00 -3.45848583053E+02  3.45848583053E+02  0.00000000000E+00 0.00000000000E+00  1.
       25    1    1    2    0    0 -1.97040129522E+01  6.70542829260E+01  4.20800551968E+01  1.49265722892E+02  1.25000000000E+02 0.00000000000E+00  1.
       -6    2    1    2    0  502  2.91158684328E+01 -7.85311841397E+01 -2.41973822295E+02  3.09112235253E+02  1.73159356173E+02 0.00000000000E+00  1.
        5    1    1    2  502    0 -9.41185548065E+00  1.14769012137E+01 -1.34172921686E+01  2.00081486948E+01  7.90744969930E-07 0.00000000000E+00  1.
       -5    1    4    4    0  502  2.09464069627E+01  2.23262108285E+01 -1.44140127079E+02  1.47431849981E+02  4.75000000000E+00 0.00000000000E+00  1.
      -24    2    4    4    0    0  8.16946147015E+00 -1.00857394968E+02 -9.78336952164E+01  1.61680385272E+02  7.95623079197E+01 0.00000000000E+00  1.
        1    1    7    7  704    0  2.62226329424E+01 -2.52758431594E+01 -7.04163528304E+01  7.92777236794E+01  9.53674316406E-07 0.00000000000E+00  1.
       -2    1    7    7    0  704 -1.80531714722E+01 -7.55815518088E+01 -2.74173423860E+01  8.24026615926E+01  8.25906184945E-07 0.00000000000E+00  1.
</event>
<event>
 9 113   1.0000000E+00   3.1250000E+01   7.8125000E-03   1.5660620E-01
        1   -1    0    0  501    0  0.00000000000E+00  0.00000000000E+00  6.44646026049E+02  6.44646026049E+02  0.00000000000E+00 0.00000000000E+00  1.
       -2   -1    0    0    0  501  0.00000000000E+00  0.00000000000E+00 -2.00165023918E+02  2.00165023918E+02  0.00000000000E+00 0.00000000000E+00  1.
       25    1    1    2    0    0 -1.25766475014E+02 -1.11738770222E+02  1.89252933649E+02  2.82390566243E+02  1.25000000000E+02 0.00000000000E+00  1.
       -6    2    1    2    0  502 -9.68340583563E+01  1.56713619354E+02  5.33153669546E+01  2.58541439449E+02  1.73393062750E+02 0.00000000000E+00  1.
        5    1    1    2  502    0  2.22600533371E+02 -4.49748491320E+01  2.01912701527E+02  3.03879044275E+02  6.60724947956E-06 0.00000000000E+00  1.
       -5    1    4    4    0  502 -2.92338218814E+01 -6.20918391336E+00 -3.47848417342E+01  4.61055096614E+01  4.75000000000E+00 0.00000000000E+00  1.
      -24    2    4    4    0    0 -6.76002364749E+01  1.62922803267E+02  8.81002086889E+01  2.12435929787E+02  7.90806278275E+01 0.00000000000E+00  1.
        3    1    7    7  704    0  1.46737556979E+01  6.54037745379E+00  1.19451319706E+01  2.00195359915E+01  3.77726066536E-06 0.00000000000E+00  1.
       -4    1    7    7    0  704 -8.22739921728E+01  1.56382425814E+02  7.61550767182E+01  1.92416393796E+02  4.15696997027E-06 0.00000000000E+00  1.
</event>
<event>
 9 113   1.0000000E+00   3.1250000E+01   7.8125000E-03   1.5660620E-01
       -2   -1    0    0    0  501  0.00000000000E+00  0.00000000000E+00  5.20405649604E+02  5.20405649604E+02  0.00000000000E+00 0.00000000000E+00  1.
        1   -1    0    0  501    0  0.00000000000E+00  0.00000000000E+00 -3.25479198322E+02  3.25479198322E+02  0.00000000000E+00 0.00000000000E+00  1.
       25    1    1    2    0    0 -1.53687153933E+02  4.75549509367E+01  2.33654391836E+02  3.10000950752E+02  1.25000000000E+02 0.00000000000E+00  1.
       -6    2    1    2    0  502  2.63598083721E+02 -4.74201494083E+01  1.21604220171E+02  3.41495542530E+02  1.73490630563E+02 0.00000000000E+00  1.
        5    1    1    2  502    0 -1.09910929787E+02 -1.34801528421E-01 -1.60332160726E+02  1.94388354644E+02  4.67203091199E-06 0.00000000000E+00  1.
       -5    1    4    4    0  502  2.84075602716E+00  7.64663401378E+00 -2.49916332292E+01  2.67148860751E+01  4.75000000000E+00 0.00000000000E+00  1.
      -24    2    4    4    0    0  2.60757327694E+02 -5.50667834220E+01  1.46595853400E+02  3.14780656455E+02  8.10541970637E+01 0.00000000000E+00  1.
        1    1    7    7  704    0  6.20389526597E+01 -4.80977660845E+01  2.84950915359E+01  8.35116578154E+01  3.07180851143E-06 0.00000000000E+00  1.
       -2    1    7    7    0  704  1.98718375034E+02 -6.96901733751E+00  1.18100761864E+02  2.31268998639E+02  4.86280394897E-06 0.00000000000E+00  1.
</event>
<event>
 9 113   1.0000000E+00   3.1250000E+01   7.8125000E-03   1.5660620E-01
        1   -1    0    0  501    0  0.00000000000E+00  0.00000000000E+00  1.69936840957E+02  1.69936840957E+02  0.00000000000E+00 0.00000000000E+00  1.
       -2   -1    0    0    0  501  0.00000000000E+00  0.00000000000E+00 -3.90255752536E+02  3.90255752536E+02  0.00000000000E+00 0.00000000000E+00  1.
       25    1    1    2    0    0  1.16953027870E+02  4.17399296603E+01 -1.54312710819E+02  2.34217089847E+02  1.25000000000E+02 0.00000000000E+00  1.
       -6    2    1    2    0  502  1.41577978183E+00 -3.18811807581E+01 -1.01235848728E+02  2.02082414046E+02  1.71959852524E+02 0.00000000000E+00  1.
        5    1    1    2  502    0 -1.18368807652E+02 -9.85874890216E+00  3.52296479674E+01  1.23893089600E+02  3.16297987972E-06 0.00000000000E+00  1.
       -5    1    4    4    0  502  4.56333320931E+01 -4.66100372246E+01 -2.65324541253E+00  6.54560828282E+01  4.75000000000E+00 0.00000000000E+00  1.
      -24    2    4    4    0    0 -4.42175523112E+01  1.47288564665E+01 -9.85826033152E+01  1.36626331218E+02  8.23170308044E+01 0.00000000000E+00  1.
        3    1    7    7  704    0  7.77073414193E+00  3.13526624998E+01 -1.23710506882E+01  3.45892562808E+01  1.86210863016E-06 0.00000000000E+00  1.
       -4    1    7    7    0  704 -5.19882864532E+01 -1.66238060333E+01 -8.62115526270E+01  1.02037074937E+02  1.65181236989E-06 0.00000000000E+00  1.
</event>
<event>
 9 113   1.0000000E+00   3.1250000E+01   7.8125000E-03   1.5660620E-01
       -2   -1    0    0    0  501  0.00000000000E+00  0.00000000000E+00  6.85438080393E+01  6.85438080393E+01  0.00000000000E+00 0.00000000000E+00  1.
        1   -1    0    0  501    0  0.00000000000E+00  0.00000000000E+00 -7.99419042668E+02  7.99419042668E+02  0.00000000000E+00 0.00000000000E+00  1.
       25    1    1    2    0    0  8.68449155007E+01  1.02311573793E+02 -2.60358646973E+02  3.18467145141E+02  1.25000000000E+02 0.00000000000E+00  1.
       -6    2    1    2    0  502 -4.09566102950E+01 -7.34564258973E+00 -3.03037368765E+02  3.51572605843E+02  1.73321227551E+02 0.00000000000E+00  1.
        5    1    1    2  502    0 -4.58883052057E+01 -9.49659312028E+01 -1.67479218891E+02  1.97923099724E+02  2.69739830470E-06 0.00000000000E+00  1.
       -5    1    4    4    0  502  4.74232118094E+01 -1.02997655010E+01 -1.48976471971E+02  1.56753302641E+02  4.75000000000E+00 0.00000000000E+00  1.
      -24    2    4    4    0    0 -8.83798221044E+01  2.95412291130E+00 -1.54060896793E+02  1.94819303203E+02  8.00005073876E+01 0.00000000000E+00  1.
        3    1    7    7  704    0 -7.14577305357E+01 -3.91131137640E+00 -1.60277152995E+02  1.75528548625E+02  0.00000000000E+00 0.00000000000E+00  1.
       -4    1    7    7    0  704 -1.69220915687E+01  6.86543428770E+00  6.21625620213E+00  1.92907545780E+01  4.76837158203E-07 0.00000000000E+00  1.
</event>
<event>
 9 113   1.0000000E+00   3.1250000E+01   7.8125000E-03   1.5660620E-01
        1   -1    0    0  501    0  0.00000000000E+00  0.00000000000E+00  3.43580383640E+02  3.43580383640E+02  0.00000000000E+00 0.00000000000E+00  1.
       -2   -1    0    0    0  501  0.00000000000E+00  0.00000000000E+00 -2.70924242068E+02  2.70924242068E+02  0.00000000000E+00 0.00000000000E+00  1.
       25    1    1    2    0    0  6.89261152689E+01  6.07848349826E+01 -9.29731111601E+01  1.80871791412E+02  1.25000000000E+02 0.00000000000E+00  1.
       -6    2    1    2    0  502  9.17639873240E+01  5.19270124412E+01  7.30806219518E+01  2.16629335060E+02  1.74557862937E+02 0.00000000000E+00  1.
        5    1    1    2  502    0 -1.60690102593E+02 -1.12711847424E+02  9.25486307800E+01  2.17003499235E+02  3.01578298585E-06 0.00000000000E+00  1.
       -5    1    4    4    0  502 -3.02512040101E+01  8.35233798982E+00  5.37608674121E+01  6.24314845159E+01  4.75000000000E+00 0.00000000000E+00  1.
      -24    2    4    4    0    0  1.22015191334E+02  4.35746744514E+01  1.93197545397E+01  1.54197850544E+02  8.13465735428E+01 0.00000000000E+00  1.
        3    1    7    7  704    0 -4.49764316957E+00  1.77928858980E+01  1.70718124779E+01  2.50651623562E+01  1.66893005371E-06 0.00000000000E+00  1.
       -4    1    7    7    0  704  1.26512834504E+02  2.57817885534E+01  2.24794206178E+00  1.29132688188E+02  2.96259668930E-06 0.00000000000E+00  1.
</event>
<event>
 9 113   1.0000000E+00   3.1250000E+01   7.8125000E-03   1.5660620E-01
       -2   -1    0    0    0  501  0.00000000000E+00  0.00000000000E+00  8.80681916896E+01  8.80681916896E+01  0.00000000000E+00 0.00000000000E+00  1.
        1   -1    0    0  501    0  0.00000000000E+00  0.00000000000E+00 -1.07078950550E+03  1.07078950550E+03  0.00000000000E+00 0.00000000000E+00  1.
       25    1    1    2    0    0  6.86881390932E+01 -2.45336545025E+00 -2.33938545151E+02  2.74000588250E+02  1.25000000000E+02 0.00000000000E+00  1.
       -6    2    1    2    0  502  1.17261846174E+02 -5.90306474009E+00 -1.47140950460E+02  2.55079287519E+02  1.72133078976E+02 0.00000000000E+00  1.
        5    1    1    2  502    0 -1.85949985267E+02  8.35643019034E+00 -6.01641818198E+02  6.29777821419E+02  7.62939453125E-06 0.00000000000E+00  1.
       -5    1    4    4    0  502  2.36683910511E+01  1.44016464764E+01  2.83042180616E+01  3.98909941749E+01  4.75000000000E+00 0.00000000000E+00  1.
      -24    2    4    4    0    0  9.35934551227E+01 -2.03047112165E+01 -1.75445168522E+02  2.15188293344E+02  7.97055725496E+01 0.00000000000E+00  1.
        3    1    7    7  704    0  2.81280892327E+01  3.03380156702E+01 -4.99655817529E+01  6.48702085598E+01  1.65181236989E-06 0.00000000000E+00  1.
       -4    1    7    7    0  704  6.54653658901E+01 -5.06427268867E+01 -1.25479586769E+02  1.50318084785E+02  3.01578298585E-06 0.00000000000E+00  1.
</event>
<event>
 9 113   1.0000000E+00   3.1250000E+01   7.8125000E-03   1.5660620E-01
       -2   -1    0    0    0  501  0.00000000000E+00  0.00000000000E+00  2.39295048694E+02  2.39295048694E+02  0.00000000000E+00 0.00000000000E+00  1.
        1   -1    0    0  501    0  0.00000000000E+00  0.00000000000E+00 -6.03267875388E+02  6.03267875388E+02  0.00000000000E+00 0.00000000000E+00  1.
       25    1    1    2    0    0  1.37801236862E+01 -6.57984365474E+01 -8.05880164706E+01  1.63213830479E+02  1.25000000000E+02 0.00000000000E+00  1.
       -6    2    1    2    0  502 -1.80578864102E+02 -9.60384611605E+01  4.95796119944E+01  2.73296993835E+02  1.74358816041E+02 0.00000000000E+00  1.
        5    1    1    2  502    0  1.66798740416E+02  1.61836897708E+02 -3.32964422217E+02  4.06052099769E+02  6.60724947956E-06 0.00000000000E+00  1.
       -5    1    4    4    0  502 -8.03750088062E+01 -4.65685516869E+01  8.99991275484E+01  1.29426340079E+02  4.75000000000E+00 0.00000000000E+00  1.
      -24    2    4    4    0    0 -1.00203855296E+02 -4.94699094737E+01 -4.04195155540E+01  1.43870653756E+02  8.10983551932E+01 0.00000000000E+00  1.
       11    1    7    7    0    0 -1.08390961223E+02 -3.20423634252E+01 -1.82248428330E+01  1.14487809068E+02  5.11003158521E-04 0.00000000000E+00  1.
      -12    1    7    7    0    0  8.18710592724E+00 -1.74275460485E+01 -2.21946727211E+01  2.93828446875E+01  1.11828226085E-06 0.00000000000E+00  1.
</event>
<event>
 9 113   1.0000000E+00   3.1250000E+01   7.8125000E-03   1.5660620E-01
       -2   -1    0    0    0  501  0.00000000000E+00  0.00000000000E+00  2.14278211111E+02  2.14278211111E+02  0.00000000000E+00 0.00000000000E+00  1.
        1   -1    0    0  501    0  0.00000000000E+00  0.00000000000E+00 -5.64831404206E+02  5.64831404206E+02  0.00000000000E+00 0.00000000000E+00  1.
       25    1    1    2    0    0  2.11197338763E+01  6.16539414547E+01  8.34646557686E+00  1.41215845936E+02  1.25000000000E+02 0.00000000000E+00  1.
       -6    2    1    2    0  502  7.73279801069E+01  8.52317443895E+00  6.19474228630E+01  2.00025015049E+02  1.73551901275E+02 0.00000000000E+00  1.
        5    1    1    2  502    0 -9.84477139832E+01 -7.01771158937E+01 -4.20847081534E+02  4.37868754331E+02  0.00000000000E+00 0.00000000000E+00  1.
       -5    1    4    4    0  502 -3.61636187319E+01 -2.92993391726E+01  1.92804937206E+01  5.06019617588E+01  4.75000000000E+00 0.00000000000E+00  1.
      -24    2    4    4    0    0  1.13491598839E+02  3.78225136115E+01  4.26669291424E+01  1.49423053290E+02  7.87140169811E+01 0.00000000000E+00  1.
        3    1    7    7  704    0  7.39663292190E+01 -1.08092451685E+01  2.12085914327E+00  7.47820545502E+01  6.40576638585E-07 0.00000000000E+00  1.
       -4    1    7    7    0  704  3.95252696198E+01  4.86317587800E+01  4.05460699991E+01  7.46409987402E+01  6.74349576174E-07 0.00000000000E+00  1.
</event>
<event>
 9 113   1.0000000E+00   3.1250000E+01   7.8125000E-03   1.5660620E-01
        1   -1    0    0  501    0  0.00000000000E+00  0.00000000000E+00  1.24021966217E+02  1.24021966217E+02  0.00000000000E+00 0.00000000000E+00  1.
       -2   -1    0    0    0  501  0.00000000000E+00  0.00000000000E+00 -9.68432345312E+02  9.68432345312E+02  0.00000000000E+00 0.00000000000E+00  1.
       25    1    1    2    0    0 -2.60260614942E+01 -4.34351806877E+00 -2.68106206946E+02  2.96988485011E+02  1.25000000000E+02 0.00000000000E+00  1.
       -6    2    1    2    0  502  8.62821732823E+01  2.16340847696E+02 -4.65824293908E+02  5.48930899432E+02  1.73449945945E+02 0.00000000000E+00  1.
        5    1    1    2  502    0 -6.02561117881E+01 -2.11997329628E+02 -1.10479878241E+02  2.46534927086E+02  3.01578298585E-06 0.00000000000E+00  1.
       -5    1    4    4    0  502  7.33621641912E+00  1.67546105578E+02 -2.68408574315E+02  3.16530003051E+02  4.75000000000E+00 0.00000000000E+00  1.
      -24    2    4    4    0    0  7.89459568632E+01  4.87947421184E+01 -1.97415719593E+02  2.32400896381E+02  8.01487325726E+01 0.00000000000E+00  1.
        3    1    7    7  704    0  7.89366919903E+01  3.71667404983E+01 -2.01894351171E+02  2.19940212277E+02  3.81469726562E-06 0.00000000000E+00  1.
       -4    1    7    7    0  704  9.26487290501E-03  1.16280016201E+01  4.47863157881E+00  1.24606841038E+01  2.49486560064E-06 0.00000000000E+00  1.
</event>
<event>
 9 113   1.0000000E+00   3.1250000E+01   7.8125000E-03   1.5660620E-01
       -2   -1    0    0    0  501  0.00000000000E+00  0.00000000000E+00  2.90739077757E+02  2.90739077757E+02  0.00000000000E+00 0.00000000000E+00  1.
        1   -1    0    0  501    0  0.00000000000E+00  0.00000000000E+00 -8.50258866731E+02  8.50258866731E+02  0.00000000000E+00 0.00000000000E+00  1.
       25    1    1    2    0    0  5.72805120566E+01  3.88976657967E+02 -1.16558037712E+02  4.28712810236E+02  1.25000000000E+02 0.00000000000E+00  1.
       -6    2    1    2    0  502  1.33556201183E+01 -3.27477069447E+02 -1.40893468390E+02  3.96030632190E+02  1.71958392047E+02 0.00000000000E+00  1.
        5    1    1    2  502    0 -7.06361321748E+01 -6.14995885202E+01 -3.02068282873E+02  3.16254502062E+02  0.00000000000E+00 0.00000000000E+00  1.
       -5    1    4    4    0  502  6.31857749329E+01 -1.24911020145E+02 -9.02599744238E+01  1.66627220437E+02  4.75000000000E+00 0.00000000000E+00  1.
      -24    2    4    4    0    0 -4.98301548146E+01 -2.02566049302E+02 -5.06334939660E+01  2.29403411753E+02  8.09081328055E+01 0.00000000000E+00  1.
        3    1    7    7  704    0  1.56851472839E+01 -4.02120525998E+01 -3.11897124052E+01  5.32525227527E+01  2.13248059988E-06 0.00000000000E+00  1.
       -4    1    7    7    0  704 -6.55153020985E+01 -1.62353996702E+02 -1.94437815607E+01  1.76150889000E+02  2.72882536465E-06 0.00000000000E+00  1.
</event>
<event>
 9 113   1.0000000E+00   3.1250000E+01   7.8125000E-03   1.5660620E-01
       -2   -1    0    0    0  501  0.00000000000E+00  0.00000000000E+00  1.83078144739E+02  1.83078144739E+02  0.00000000000E+00 0.00000000000E+00  1.
        1   -1    0    0  501    0  0.00000000000E+00  0.00000000000E+00 -1.32161487829E+03  1.32161487829E+03  0.00000000000E+00 0.00000000000E+00  1.
       25    1    1    2    0    0 -4.03261922647E+01 -8.14198943976E+00  1.45888277397E+01  1.32402143749E+02  1.25000000000E+02 0.00000000000E+00  1.
       -6    2    1    2    0  502  1.44932408487E+02 -3.01340482326E+02 -3.93305768597E+02  5.45218948810E+02  1.75393230232E+02 0.00000000000E+00  1.
        5    1    1    2  502    0 -1.04606216223E+02  3.09482471766E+02 -7.59819792691E+02  8.27071930467E+02  1.07895932188E-05 0.00000000000E+00  1.
       -5    1    4    4    0  502 -1.39872565621E+01 -5.99048592803E+00  6.31079862811E+00  1.71440353218E+01  4.75000000000E+00 0.00000000000E+00  1.
      -24    2    4    4    0    0  1.58919665049E+02 -2.95349996398E+02 -3.99616567225E+02  5.28074913488E+02  8.17473739207E+01 0.00000000000E+00  1.
        3    1    7    7  704    0  1.34782543331E+02 -2.15864629266E+02 -2.48836189553E+02  3.55926005493E+02  6.60724947956E-06 0.00000000000E+00  1.
       -4    1    7    7    0  704  2.41371217182E+01 -7.94853671323E+01 -1.50780377672E+02  1.72148907995E+02  3.30362473978E-06 0.00000000000E+00  1.
</event>
<event>
 9 113   1.0000000E+00   3.1250000E+01   7.8125000E-03   1.5660620E-01
        1   -1    0    0  501    0  0.00000000000E+00  0.00000000000E+00  2.19954364102E+02  2.19954364102E+02  0.00000000000E+00 0.00000000000E+00  1.
       -2   -1    0    0    0  501  0.00000000000E+00  0.00000000000E+00 -3.69336595878E+02  3.69336595878E+02  0.00000000000E+00 0.00000000000E+00  1.
       25    1    1    2    0    0 -1.91692763675E+01 -6.81949973605E+01 -1.31054645608E+02  1.94469377941E+02  1.25000000000E+02 0.00000000000E+00  1.
       -6    2    1    2    0  502 -1.03231411858E+00  1.60811855952E+01 -1.63532916091E+02  2.39230639266E+02  1.73863779770E+02 0.00000000000E+00  1.
        5    1    1    2  502    0  2.02015904861E+01  5.21138117653E+01  1.45205329923E+02  1.55590942772E+02  2.69739830470E-06 0.00000000000E+00  1.
       -5    1    4    4    0  502  4.40192690438E+01 -4.40755288205E+01 -7.35474641601E+01  9.64994314612E+01  4.75000000000E+00 0.00000000000E+00  1.
      -24    2    4    4    0    0 -4.50515831624E+01  6.01567144157E+01 -8.99854519308E+01  1.42731207805E+02  8.14023383422E+01 0.00000000000E+00  1.
        1    1    7    7  704    0 -1.54324534485E+01  7.09705850787E+01 -8.32677590881E+01  1.10492100484E+02  2.13248059988E-06 0.00000000000E+00  1.
       -4    1    7    7    0  704 -2.96191297139E+01 -1.08138706630E+01 -6.71769284267E+00  3.22391073209E+01  1.02200676200E-06 0.00000000000E+00  1.
</event>
<event>
 9 113   1.0000000E+00   3.1250000E+01   7.8125000E-03   1.5660620E-01
       -2   -1    0    0    0  501  0.00000000000E+00  0.00000000000E+00  8.28911076518E+01  8.28911076518E+01  0.00000000000E+00 0.00000000000E+00  1.
        1   -1    0    0  501    0  0.00000000000E+00  0.00000000000E+00 -7.22188806187E+02  7.22188806187E+02  0.00000000000E+00 0.00000000000E+00  1.
       25    1    1    2    0    0  7.45457983068E+00 -3.99225389820E+01 -5.51502040943E+01  1.42533942943E+02  1.25000000000E+02 0.00000000000E+00  1.
       -6    2    1    2    0  502 -6.89350799931E+01 -4.53029028262E+01 -2.76458909092E+02  3.37406780109E+02  1.74955447440E+02 0.00000000000E+00  1.
        5    1    1    2  502    0  6.14805001624E+01  8.52254418082E+01 -3.07688585349E+02  3.25139190787E+02  6.60724947956E-06 0.00000000000E+00  1.
       -5    1    4    4    0  502 -9.59479051161E+01 -2.12107768503E+01 -1.92005659223E+02  2.15742052517E+02  4.75000000000E+00 0.00000000000E+00  1.
      -24    2    4    4    0    0  2.70128251230E+01 -2.40921259759E+01 -8.44532498687E+01  1.21664727591E+02  7.97485502769E+01 0.00000000000E+00  1.
       11    1    7    7    0    0 -1.09892817055E+01  2.38934451316E+01 -2.76036068429E+01  3.81263707119E+01  5.10999710104E-04 0.00000000000E+00  1.
      -12    1    7    7    0    0  3.80021068285E+01 -4.79855711075E+01 -5.68496430258E+01  8.35383568792E+01  1.65181236989E-06 0.00000000000E+00  1.
</event>
<event>
 9 113   1.0000000E+00   3.1250000E+01   7.8125000E-03   1.5660620E-01
        1   -1    0    0  501    0  0.00000000000E+00  0.00000000000E+00  9.53724326134E+02  9.53724326134E+02  0.00000000000E+00 0.00000000000E+00  1.
       -2   -1    0    0    0  501  0.00000000000E+00  0.00000000000E+00 -8.59755318984E+01  8.59755318984E+01  0.00000000000E+00 0.00000000000E+00  1.
       25    1    1    2    0    0  4.74806454818E+01 -2.62493762393E+01  2.14624660092E+01  1.37945927434E+02  1.25000000000E+02 0.00000000000E+00  1.
       -6    2    1    2    0  502 -1.02740267195E+02  1.76456947065E+01  3.62095114373E+02  4.14343650957E+02  1.72339363439E+02 0.00000000000E+00  1.
        5    1    1    2  502    0  5.52596217130E+01  8.60368153282E+00  4.84191213854E+02  4.87410279642E+02  7.62939453125E-06 0.00000000000E+00  1.
       -5    1    4    4    0  502 -9.67043723306E+01 -2.19843385485E+01  2.58758660667E+02  2.77152762460E+02  4.75000000000E+00 0.00000000000E+00  1.
      -24    2    4    4    0    0 -6.03589486427E+00  3.96300332550E+01  1.03336453706E+02  1.37190888496E+02  8.08451956475E+01 0.00000000000E+00  1.
        1    1    7    7  704    0 -1.30410355558E+01  2.18488500688E+01  1.12962105358E+02  1.15792392257E+02  1.34869915235E-06 0.00000000000E+00  1.
       -4    1    7    7    0  704  7.00514069155E+00  1.77811831861E+01 -9.62565165151E+00  2.13984962398E+01  2.36623683468E-06 0.00000000000E+00  1.
</event>
<event>
 9 113   1.0000000E+00   3.1250000E+01   7.8125000E-03   1.5660620E-01
        1   -1    0    0  501    0  0.00000000000E+00  0.00000000000E+00  5.08353887323E+02  5.08353887323E+02  0.00000000000E+00 0.00000000000E+00  1.
       -2   -1    0    0    0  501  0.00000000000E+00  0.00000000000E+00 -1.73803873498E+03  1.73803873498E+03  0.00000000000E+00 0.00000000000E+00  1.
       25    1    1    2    0    0 -4.55400995234E+02  3.57561998518E+02 -8.04679955466E+02  9.99187409835E+02  1.25000000000E+02 0.00000000000E+00  1.
       -6    2    1    2    0  502 -1.54826625730E+02  1.77394238921E+02  6.38290516401E+01  2.99832767225E+02  1.74314487153E+02 0.00000000000E+00  1.
        5    1    1    2  502    0  6.10227620964E+02 -5.34956237440E+02 -4.88833943830E+02  9.47372445242E+02  5.39479660939E-06 0.00000000000E+00  1.
       -5    1    4    4    0  502 -9.74576032270E+01  8.98005818179E+00  1.38040108292E+01  9.89532166565E+01  4.75000000000E+00 0.00000000000E+00  1.
      -24    2    4    4    0    0 -5.73690225027E+01  1.68414180739E+02  5.00250408109E+01  2.00879550569E+02  7.87118041434E+01 0.00000000000E+00  1.
        3    1    7    7  704    0 -1.35016206463E+01  1.02210883866E+02  6.23869754088E+01  1.20505158567E+02  2.13248059988E-06 0.00000000000E+00  1.
       -4    1    7    7    0  704 -4.38674018564E+01  6.62032968739E+01 -1.23619345979E+01  8.03743920015E+01  1.03924249257E-06 0.00000000000E+00  1.
</event>
<event>
 9 113   1.0000000E+00   3.1250000E+01   7.8125000E-03   1.5660620E-01
        3   -1    0    0  501    0  0.00000000000E+00  0.00000000000E+00  4.31971934130E+01  4.31971934130E+01  0.00000000000E+00 0.00000000000E+00  1.
       -4   -1    0    0    0  501  0.00000000000E+00  0.00000000000E+00 -1.15787683110E+03  1.15787683110E+03  0.00000000000E+00 0.00000000000E+00  1.
       25    1    1    2    0    0  3.89681830303E+01 -2.36022364856E+01 -5.17283386606E+02  5.34118607535E+02  1.25000000000E+02 0.00000000000E+00  1.
       -6    2    1    2    0  502 -1.21315625360E+00  1.13781654533E+01 -6.02569615981E+02  6.26935001392E+02  1.72703270006E+02 0.00000000000E+00  1.
        5    1    1    2  502    0 -3.77550267767E+01  1.22240710322E+01  5.17336489756E+00  4.00204155885E+01  5.41320445048E-06 0.00000000000E+00  1.
       -5    1    4    4    0  502 -2.71988720620E+01 -3.58131211996E+01 -3.98281712085E+02  4.00840670308E+02  4.75000000000E+00 0.00000000000E+00  1.
      -24    2    4    4    0    0  2.59857158084E+01  4.71912866529E+01 -2.04287903895E+02  2.26094331084E+02  8.05159854217E+01 0.00000000000E+00  1.
        3    1    7    7  704    0  4.65189609738E+01  5.71064546405E+01 -1.46589593168E+02  1.64053862243E+02  1.90734863281E-06 0.00000000000E+00  1.
       -4    1    7    7    0  704 -2.05332451654E+01 -9.91516798759E+00 -5.76983107272E+01  6.20404688410E+01  2.33601545599E-06 0.00000000000E+00  1.
</event>
<event>
 9 113   1.0000000E+00   3.1250000E+01   7.8125000E-03   1.5660620E-01
        1   -1    0    0  501    0  0.00000000000E+00  0.00000000000E+00  2.72893208407E+01  2.72893208407E+01  0.00000000000E+00 0.00000000000E+00  1.
       -2   -1    0    0    0  501  0.00000000000E+00  0.00000000000E+00 -1.68589024322E+03  1.68589024322E+03  0.00000000000E+00 0.00000000000E+00  1.
       25    1    1    2    0    0 -2.85314147202E+01  6.27755444264E+01 -5.85345015277E+02  6.02501948141E+02  1.25000000000E+02 0.00000000000E+00  1.
       -6    2    1    2    0  502  5.93100095904E+01 -5.38613625750E+01 -1.05592012232E+03  1.07424529545E+03  1.80601568305E+02 0.00000000000E+00  1.
        5    1    1    2  502    0 -3.07785948703E+01 -8.91418185139E+00 -1.73357847810E+01  3.64323204620E+01  4.20455743993E-06 0.00000000000E+00  1.
       -5    1    4    4    0  502  2.26610640236E+01  5.31185448616E+01 -3.53786863682E+02  3.58500782488E+02  4.75000000001E+00 0.00000000000E+00  1.
      -24    2    4    4    0    0  3.66489455668E+01 -1.06979907437E+02 -7.02133258637E+02  7.15744512967E+02  8.06923116037E+01 0.00000000000E+00  1.
        1    1    7    7  704    0  4.33475485110E+00 -7.63990529303E+01 -2.50552179971E+02  2.61977098764E+02  6.03156597170E-06 0.00000000000E+00  1.
       -2    1    7    7    0  704  3.23141907158E+01 -3.05808545062E+01 -4.51581078665E+02  4.53767414203E+02  5.39479660939E-06 0.00000000000E+00  1.
</event>
<event>
 9 113   1.0000000E+00   3.1250000E+01   7.8125000E-03   1.5660620E-01
       -2   -1    0    0    0  501  0.00000000000E+00  0.00000000000E+00  1.78154814259E+01  1.78154814259E+01  0.00000000000E+00 0.00000000000E+00  1.
        1   -1    0    0  501    0  0.00000000000E+00  0.00000000000E+00 -2.11145097094E+03  2.11145097094E+03  0.00000000000E+00 0.00000000000E+00  1.
       25    1    1    2    0    0  7.35041741084E+01  2.26380448090E+00 -8.36798562789E+02  8.49273114556E+02  1.25000000000E+02 0.00000000000E+00  1.
       -6    2    1    2    0  502 -1.06323579445E+02  1.44710196321E+00 -9.43921461494E+02  9.65339603406E+02  1.72005891717E+02 0.00000000000E+00  1.
        5    1    1    2  502    0  3.28194053366E+01 -3.71090644411E+00 -3.12915465228E+02  3.14653734401E+02  5.39479660939E-06 0.00000000000E+00  1.
       -5    1    4    4    0  502 -5.41173508388E+01  4.33211348405E+01 -6.46124911917E+02  6.49850269435E+02  4.74999999999E+00 0.00000000000E+00  1.
      -24    2    4    4    0    0 -5.22062286061E+01 -4.18740328773E+01 -2.97796549577E+02  3.15489333971E+02  7.98236178997E+01 0.00000000000E+00  1.
        3    1    7    7  704    0 -5.07412663977E+01 -6.41281269642E+01 -2.39216925239E+02  2.52807891697E+02  2.69739830470E-06 0.00000000000E+00  1.
       -4    1    7    7    0  704 -1.46496220845E+00  2.22540940869E+01 -5.85796243382E+01  6.26814422737E+01  2.23656452171E-06 0.00000000000E+00  1.
</event>
<event>
 9 113   1.0000000E+00   3.1250000E+01   7.8125000E-03   1.5660620E-01
        1   -1    0    0  501    0  0.00000000000E+00  0.00000000000E+00  1.07428843861E+03  1.07428843861E+03  0.00000000000E+00 0.00000000000E+00  1.
       -2   -1    0    0    0  501  0.00000000000E+00  0.00000000000E+00 -4.09459196277E+01  4.09459196277E+01  0.00000000000E+00 0.00000000000E+00  1.
       25    1    1    2    0    0  9.20930208016E+01  1.47292252955E+01  2.59830977611E+02  3.03043250188E+02  1.25000000000E+02 0.00000000000E+00  1.
       -6    2    1    2    0  502 -5.63023940814E+01  2.52432677430E+01  6.81424262049E+02  7.05613267137E+02  1.72464128748E+02 0.00000000000E+00  1.
        5    1    1    2  502    0 -3.57906267202E+01 -3.99724930384E+01  9.20872793246E+01  1.06577840915E+02  1.34869915235E-06 0.00000000000E+00  1.
       -5    1    4    4    0  502 -3.03003523871E+01  7.79640339996E+01  3.33939864462E+02  3.44288973871E+02  4.74999999999E+00 0.00000000000E+00  1.
      -24    2    4    4    0    0 -2.60020416944E+01 -5.27207662566E+01  3.47484397587E+02  3.61324293266E+02  7.97135682974E+01 0.00000000000E+00  1.
        1    1    7    7  704    0 -5.77760892405E-01 -1.87124271132E+01  2.85947251331E+02  2.86559451562E+02  3.81469726562E-06 0.00000000000E+00  1.
       -2    1    7    7    0  704 -2.54242808020E+01 -3.40083391434E+01  6.15371462566E+01  7.47648417038E+01  1.78416127528E-06 0.00000000000E+00  1.
</event>
<event>
 9 113   1.0000000E+00   3.1250000E+01   7.8125000E-03   1.5660620E-01
       -2   -1    0    0    0  501  0.00000000000E+00  0.00000000000E+00  5.75259418997E+02  5.75259418997E+02  0.00000000000E+00 0.00000000000E+00  1.
        1   -1    0    0  501    0  0.00000000000E+00  0.00000000000E+00 -1.77834298081E+02  1.77834298081E+02  0.00000000000E+00 0.00000000000E+00  1.
       25    1    1    2    0    0  7.18104875751E+01  2.03315130530E+01  1.90544762467E+02  2.39796628526E+02  1.25000000000E+02 0.00000000000E+00  1.
       -6    2    1    2    0  502  3.82785897666E+01  3.91673888479E+01  3.04503820528E+02  3.54583306460E+02  1.73226469455E+02 0.00000000000E+00  1.
        5    1    1    2  502    0 -1.10089077342E+02 -5.94989019009E+01 -9.76234620796E+01  1.58713782091E+02  3.81469726562E-06 0.00000000000E+00  1.
       -5    1    4    4    0  502  7.66527164364E+01 -1.46318693871E+01  1.48156105057E+02  1.67518728817E+02  4.75000000000E+00 0.00000000000E+00  1.
      -24    2    4    4    0    0 -3.83741266698E+01  5.37992582350E+01  1.56347715471E+02  1.87064577643E+02  7.86232426907E+01 0.00000000000E+00  1.
        3    1    7    7  704    0 -5.82111283442E+00 -1.88360289365E+01  1.47264556444E+01  2.46079222319E+01  2.03704923280E-06 0.00000000000E+00  1.
       -4    1    7    7    0  704 -3.25530138354E+01  7.26352871715E+01  1.41621259827E+02  1.62456655411E+02  0.00000000000E+00 0.00000000000E+00  1.
</event>
<event>
 9 113   1.0000000E+00   3.1250000E+01   7.8125000E-03   1.5660620E-01
        1   -1    0    0  501    0  0.00000000000E+00  0.00000000000E+00  1.70674960055E+03  1.70674960055E+03  0.00000000000E+00 0.00000000000E+00  1.
       -2   -1    0    0    0  501  0.00000000000E+00  0.00000000000E+00 -6.54154095411E+01  6.54154095411E+01  0.00000000000E+00 0.00000000000E+00  1.
       25    1    1    2    0    0  5.10552152868E+01 -6.97275376284E+01  7.58433244468E+02  7.73507951365E+02  1.25000000000E+02 0.00000000000E+00  1.
       -6    2    1    2    0  502 -1.67825789371E+02 -7.53172181861E+01  3.35542978272E+02  4.20492641290E+02  1.74318077600E+02 0.00000000000E+00  1.
        5    1    1    2  502    0  1.16770574084E+02  1.45044755815E+02  5.47357968274E+02  5.78164417440E+02  1.07895932188E-05 0.00000000000E+00  1.
       -5    1    4    4    0  502 -1.37366425418E+01  2.78950612330E+00  1.60600732798E+02  1.61281228194E+02  4.75000000000E+00 0.00000000000E+00  1.
      -24    2    4    4    0    0 -1.54089146829E+02 -7.81067243094E+01  1.74942245474E+02  2.59211413096E+02  8.21075019387E+01 0.00000000000E+00  1.
        3    1    7    7  704    0 -8.63449281522E+01 -2.04573737327E+01  3.94058196471E+01  9.70915515362E+01  1.96604996949E-06 0.00000000000E+00  1.
       -4    1    7    7    0  704 -6.77442186769E+01 -5.76493505767E+01  1.35536425827E+02  1.62119861559E+02  1.90734863281E-06 0.00000000000E+00  1.
</event>
<event>
 9 113   1.0000000E+00   3.1250000E+01   7.8125000E-03   1.5660620E-01
       -2   -1    0    0    0  501  0.00000000000E+00  0.00000000000E+00  2.64561454144E+01  2.64561454144E+01  0.00000000000E+00 0.00000000000E+00  1.
        1   -1    0    0  501    0  0.00000000000E+00  0.00000000000E+00 -2.25025770205E+03  2.25025770205E+03  0.00000000000E+00 0.00000000000E+00  1.
       25    1    1    2    0    0 -1.59300247770E+01  1.16602087416E+02 -6.16925335710E+02  6.40368395785E+02  1.25000000000E+02 0.00000000000E+00  1.
       -6    2    1    2    0  502  5.62975241808E+01 -1.65919232358E+02 -1.24317779521E+03  1.26710533920E+03  1.71366003744E+02 0.00000000000E+00  1.
        5    1    1    2  502    0 -4.03674994039E+01  4.93171449421E+01 -3.63698425716E+02  3.69240112477E+02  5.39479660939E-06 0.00000000000E+00  1.
       -5    1    4    4    0  502  1.58260787940E+01 -1.51350292733E+02 -8.34891245812E+02  8.48659726106E+02  4.75000000004E+00 0.00000000000E+00  1.
      -24    2    4    4    0    0  4.04714453869E+01 -1.45689396250E+01 -4.08286549393E+02  4.18445613093E+02  8.09236232983E+01 0.00000000000E+00  1.
        1    1    7    7  704    0 -2.05413349525E+01 -1.99955388044E+01 -1.70682337155E+02  1.73072898602E+02  0.00000000000E+00 0.00000000000E+00  1.
       -2    1    7    7    0  704  6.10127803394E+01  5.42659917940E+00 -2.37604212239E+02  2.45372714492E+02  2.69739830470E-06 0.00000000000E+00  1.
</event>
<event>
 9 113   1.0000000E+00   3.1250000E+01   7.8125000E-03   1.5660620E-01
        1   -1    0    0  501    0  0.00000000000E+00  0.00000000000E+00  3.87912600364E+02  3.87912600364E+02  0.00000000000E+00 0.00000000000E+00  1.
       -2   -1    0    0    0  501  0.00000000000E+00  0.00000000000E+00 -3.37314869175E+02  3.37314869175E+02  0.00000000000E+00 0.00000000000E+00  1.
       25    1    1    2    0    0 -8.67112367205E+01 -8.03203506417E+01  8.33667978260E+00  1.72234426090E+02  1.25000000000E+02 0.00000000000E+00  1.
       -6    2    1    2    0  502 -1.08672144767E+01 -1.42442933341E+02 -1.22296291476E+02  2.59353546914E+02  1.78605133686E+02 0.00000000000E+00  1.
        5    1    1    2  502    0  9.75784511972E+01  2.22763283982E+02  1.64557342883E+02  2.93639496535E+02  8.09219491409E-06 0.00000000000E+00  1.
       -5    1    4    4    0  502 -6.28652212015E+01 -1.06621730535E+02 -4.72854346369E+01  1.32584706086E+02  4.75000000000E+00 0.00000000000E+00  1.
      -24    2    4    4    0    0  5.19980067248E+01 -3.58212028053E+01 -7.50108568388E+01  1.26768840828E+02  8.03539612431E+01 0.00000000000E+00  1.
        1    1    7    7  704    0  1.21243165373E+01  1.24866824705E+01  1.08338141458E+01  2.05009224076E+01  2.41380414144E-06 0.00000000000E+00  1.
       -2    1    7    7    0  704  3.98736901875E+01 -4.83078852758E+01 -8.58446709846E+01  1.06267918421E+02  2.69739830470E-06 0.00000000000E+00  1.
</event>
<event>
 9 113   1.0000000E+00   3.1250000E+01   7.8125000E-03   1.5660620E-01
        1   -1    0    0  501    0  0.00000000000E+00  0.00000000000E+00  5.03310440605E+02  5.03310440605E+02  0.00000000000E+00 0.00000000000E+00  1.
       -2   -1    0    0    0  501  0.00000000000E+00  0.00000000000E+00 -1.11596049478E+02  1.11596049478E+02  0.00000000000E+00 0.00000000000E+00  1.
       25    1    1    2    0    0  4.84369439940E+01 -2.16479094832E+01  5.27466801532E+01  1.45677664025E+02  1.25000000000E+02 0.00000000000E+00  1.
       -6    2    1    2    0  502 -6.32018892277E+01 -3.27236485955E+01  7.73219445595E+01  2.01585823127E+02  1.72025710276E+02 0.00000000000E+00  1.
        5    1    1    2  502    0  1.47649452337E+01  5.43715580786E+01  2.61645766414E+02  2.67643002931E+02  3.81469726562E-06 0.00000000000E+00  1.
       -5    1    4    4    0  502  4.84615269632E-01  1.65145127923E+01  8.52994278848E+01  8.70144751303E+01  4.75000000000E+00 0.00000000000E+00  1.
      -24    2    4    4    0    0 -6.36865044973E+01 -4.92381613878E+01 -7.97748332535E+00  1.14571347997E+02  8.11331384188E+01 0.00000000000E+00  1.
       11    1    7    7    0    0 -1.09378821381E+01  2.06639428897E+01  9.56357642311E+00  2.52605976904E+01  5.10998959236E-04 0.00000000000E+00  1.
      -12    1    7    7    0    0 -5.27486223592E+01 -6.99021042775E+01 -1.75410597485E+01  8.93107503065E+01  7.15255737305E-07 0.00000000000E+00  1.
</event>
<event>
 9 113   1.0000000E+00   3.1250000E+01   7.8125000E-03   1.5660620E-01
       -2   -1    0    0    0  501  0.00000000000E+00  0.00000000000E+00  5.37837175584E+01  5.37837175584E+01  0.00000000000E+00 0.00000000000E+00  1.
        1   -1    0    0  501    0  0.00000000000E+00  0.00000000000E+00 -1.98441279297E+03  1.98441279297E+03  0.00000000000E+00 0.00000000000E+00  1.
       25    1    1    2    0    0 -1.56708398595E+02  2.61699786090E+01 -4.15338503102E+02  4.61923654005E+02  1.25000000000E+02 0.00000000000E+00  1.
       -6    2    1    2    0  502 -4.25195342012E+01 -9.35862790892E+01 -9.90290650997E+02  1.01070973524E+03  1.74046812771E+02 0.00000000000E+00  1.
        5    1    1    2  502    0  1.99227932796E+02  6.74163004802E+01 -5.24999921316E+02  5.65563121286E+02  1.07895932188E-05 0.00000000000E+00  1.
       -5    1    4    4    0  502 -2.48734684088E+01 -1.93186392259E+01 -2.88213996045E+01  4.29550326200E+01  4.75000000001E+00 0.00000000000E+00  1.
      -24    2    4    4    0    0 -1.76460657924E+01 -7.42676398633E+01 -9.61469251392E+02  9.67754702620E+02  7.93660954203E+01 0.00000000000E+00  1.
        3    1    7    7  704    0  3.79356695248E+00 -3.44177798356E+00 -5.27262416519E+02  5.27287296319E+02  7.62939453125E-06 0.00000000000E+00  1.
       -4    1    7    7    0  704 -2.14396327449E+01 -7.08258618797E+01 -4.34206834873E+02  4.40467406301E+02  7.62939453125E-06 0.00000000000E+00  1.
</event>
<event>
 9 113   1.0000000E+00   3.1250000E+01   7.8125000E-03   1.5660620E-01
       -2   -1    0    0    0  501  0.00000000000E+00  0.00000000000E+00  4.03906527239E+02  4.03906527239E+02  0.00000000000E+00 0.00000000000E+00  1.
        1   -1    0    0  501    0  0.00000000000E+00  0.00000000000E+00 -3.20790689725E+02  3.20790689725E+02  0.00000000000E+00 0.00000000000E+00  1.
       25    1    1    2    0    0 -3.57741060906E+01 -1.36206041825E+02  8.32789999451E+01  2.05893818091E+02  1.25000000000E+02 0.00000000000E+00  1.
       -6    2    1    2    0  502  3.26600343361E+01 -1.49567488248E+02 -2.25019633351E+01  2.32141176110E+02  1.73049345298E+02 0.00000000000E+00  1.
        5    1    1    2  502    0  3.11407175458E+00  2.85773530073E+02  2.23388009041E+01  2.86662222763E+02  1.09074871385E-05 0.00000000000E+00  1.
       -5    1    4    4    0  502 -4.04218841515E+01 -5.47808852971E+01  3.47125882675E+01  7.65663137191E+01  4.75000000000E+00 0.00000000000E+00  1.
      -24    2    4    4    0    0  7.30819184876E+01 -9.47866029506E+01 -5.72145516026E+01  1.55574862391E+02  8.12684808768E+01 0.00000000000E+00  1.
        1    1    7    7  704    0  2.30330113395E+01  4.27539335125E+00 -3.54227787099E+01  4.24684806792E+01  2.02304872852E-06 0.00000000000E+00  1.
       -2    1    7    7    0  704  5.00489071481E+01 -9.90619963018E+01 -2.17917728927E+01  1.13106381711E+02  4.76837158203E-07 0.00000000000E+00  1.
</event>
<event>
 9 113   1.0000000E+00   3.1250000E+01   7.8125000E-03   1.5660620E-01
        1   -1    0    0  501    0  0.00000000000E+00  0.00000000000E+00  8.97079232682E+02  8.97079232682E+02  0.00000000000E+00 0.00000000000E+00  1.
       -2   -1    0    0    0  501  0.00000000000E+00  0.00000000000E+00 -1.89826297667E+02  1.89826297667E+02  0.00000000000E+00 0.00000000000E+00  1.
       25    1    1    2    0    0  1.48688919490E+02 -2.47585656332E+02  1.83270943871E+02  3.64170689194E+02  1.25000000000E+02 0.00000000000E+00  1.
       -6    2    1    2    0  502  2.39897079026E+01 -1.47924077243E+01  2.56151458755E+02  3.09947546128E+02  1.72219598527E+02 0.00000000000E+00  1.
        5    1    1    2  502    0 -1.72678627393E+02  2.62378064056E+02  2.67830532390E+02  4.12787295028E+02  7.62939453125E-06 0.00000000000E+00  1.
       -5    1    4    4    0  502  4.53666287396E+01 -5.12735686980E+01  5.53057177536E+01  8.81384976413E+01  4.75000000000E+00 0.00000000000E+00  1.
      -24    2    4    4    0    0 -2.13769208370E+01  3.64811609737E+01  2.00845741001E+02  2.21809048486E+02  8.40975294617E+01 0.00000000000E+00  1.
        3    1    7    7  704    0  2.64317485513E+01  4.44726942501E+00  1.17547370368E+02  1.20564504798E+02  2.33601545599E-06 0.00000000000E+00  1.
       -4    1    7    7    0  704 -4.78086693883E+01  3.20338915487E+01  8.32983706336E+01  1.01244543688E+02  1.65181236989E-06 0.00000000000E+00  1.
</event>
<event>
 9 113   1.0000000E+00   3.1250000E+01   7.8125000E-03   1.5660620E-01
        1   -1    0    0  501    0  0.00000000000E+00  0.00000000000E+00  1.60519097582E+03  1.60519097582E+03  0.00000000000E+00 0.00000000000E+00  1.
       -2   -1    0    0    0  501  0.00000000000E+00  0.00000000000E+00 -7.32125427315E+01  7.32125427315E+01  0.00000000000E+00 0.00000000000E+00  1.
       25    1    1    2    0    0 -2.15621424692E+02 -3.78660984255E+01  4.84110502392E+02  5.45815370544E+02  1.25000000000E+02 0.00000000000E+00  1.
       -6    2    1    2    0  502  9.15083346380E+01  1.41553841458E+02  4.20367312225E+02  4.84581795138E+02  1.72335642429E+02 0.00000000000E+00  1.
        5    1    1    2  502    0  1.24113090054E+02 -1.03687743033E+02  6.27500618474E+02  6.48006352873E+02  0.00000000000E+00 0.00000000000E+00  1.
       -5    1    4    4    0  502  3.83892055895E+01 -1.51246143766E+01  2.48037610356E+01  4.83763798496E+01  4.75000000000E+00 0.00000000000E+00  1.
      -24    2    4    4    0    0  5.31191290484E+01  1.56678455835E+02  3.95563551190E+02  4.36205415288E+02  8.02175847507E+01 0.00000000000E+00  1.
       13    1    7    7    0    0  5.66926366982E+01  4.78612586962E+01  1.80473659010E+02  1.95129464460E+02  1.05659999952E-01 0.00000000000E+00  1.
      -14    1    7    7    0    0 -3.57350764971E+00  1.08817197139E+02  2.15089892180E+02  2.41075950829E+02  0.00000000000E+00 0.00000000000E+00  1.
</event>
<event>
 9 113   1.0000000E+00   3.1250000E+01   7.8125000E-03   1.5660620E-01
       -2   -1    0    0    0  501  0.00000000000E+00  0.00000000000E+00  5.58600634459E+02  5.58600634459E+02  0.00000000000E+00 0.00000000000E+00  1.
        1   -1    0    0  501    0  0.00000000000E+00  0.00000000000E+00 -4.59571288083E+02  4.59571288083E+02  0.00000000000E+00 0.00000000000E+00  1.
       25    1    1    2    0    0 -2.82740035545E+02  5.96693228558E+01  1.22740984411E+02  3.37924111368E+02  1.25000000000E+02 0.00000000000E+00  1.
       -6    2    1    2    0  502  3.70691032131E+02 -9.44917440055E+01 -2.10777071537E+02  4.70625638618E+02  1.75274033592E+02 0.00000000000E+00  1.
        5    1    1    2  502    0 -8.79509965861E+01  3.48224211497E+01  1.87065433503E+02  2.09622172555E+02  1.07895932188E-05 0.00000000000E+00  1.
       -5    1    4    4    0  502  6.01159820107E+01  3.21309901385E+01 -3.64586211847E+00  6.84265053249E+01  4.75000000000E+00 0.00000000000E+00  1.
      -24    2    4    4    0    0  3.10575050120E+02 -1.26622734144E+02 -2.07131209418E+02  4.02199133293E+02  7.98162035396E+01 0.00000000000E+00  1.
        1    1    7    7  704    0  1.29880655847E+02 -6.97519416090E+01 -1.33730097997E+02  1.99042852752E+02  0.00000000000E+00 0.00000000000E+00  1.
       -2    1    7    7    0  704  1.80694394273E+02 -5.68707925351E+01 -7.34011114211E+01  2.03156280541E+02  9.53674316406E-07 0.00000000000E+00  1.
</event>
<event>
 9 113   1.0000000E+00   3.1250000E+01   7.8125000E-03   1.5660620E-01
       -2   -1    0    0    0  501  0.00000000000E+00  0.00000000000E+00  9.91239032938E+01  9.91239032938E+01  0.00000000000E+00 0.00000000000E+00  1.
        1   -1    0    0  501    0  0.00000000000E+00  0.00000000000E+00 -6.82571073103E+02  6.82571073103E+02  0.00000000000E+00 0.00000000000E+00  1.
       25    1    1    2    0    0  3.15294320738E+01  6.31278361822E+01 -2.56143877351E+01  1.45809209747E+02  1.25000000000E+02 0.00000000000E+00  1.
       -6    2    1    2    0  502 -8.44559252739E+00  4.23216094490E+01 -2.37376966452E+02  2.97737309610E+02  1.74462702812E+02 0.00000000000E+00  1.
        5    1    1    2  502    0 -2.30838395464E+01 -1.05449445631E+02 -3.20455815623E+02  3.38148457040E+02  3.81469726562E-06 0.00000000000E+00  1.
       -5    1    4    4    0  502 -5.45041153230E+01 -2.64617862649E+01 -1.05735730470E+02  1.21957090477E+02  4.75000000000E+00 0.00000000000E+00  1.
      -24    2    4    4    0    0  4.60585227957E+01  6.87833957139E+01 -1.31641235981E+02  1.75780219133E+02  8.19556427578E+01 0.00000000000E+00  1.
        3    1    7    7  704    0 -1.45905432411E+01  2.79776490164E+01 -8.07914969854E+01  8.67346457979E+01  2.52318507296E-06 0.00000000000E+00  1.
       -4    1    7    7    0  704  6.06490660368E+01  4.08057466975E+01 -5.08497389957E+01  8.90455733353E+01  1.16800772800E-06 0.00000000000E+00  1.
</event>
<event>
 9 113   1.0000000E+00   3.1250000E+01   7.8125000E-03   1.5660620E-01
       -2   -1    0    0    0  501  0.00000000000E+00  0.00000000000E+00  6.95331215510E+02  6.95331215510E+02  0.00000000000E+00 0.00000000000E+00  1.
        1   -1    0    0  501    0  0.00000000000E+00  0.00000000000E+00 -1.01761698439E+02  1.01761698439E+02  0.00000000000E+00 0.00000000000E+00  1.
       25    1    1    2    0    0 -8.69758641689E+01  4.36883953473E+01  1.29220697085E+02  2.04441838651E+02  1.25000000000E+02 0.00000000000E+00  1.
       -6    2    1    2    0  502  1.75788835382E+02 -9.44951647491E+01  3.32376565370E+02  4.25660813123E+02  1.75732455213E+02 0.00000000000E+00  1.
        5    1    1    2  502    0 -8.88129712131E+01  5.08067694018E+01  1.31972254617E+02  1.66990262175E+02  4.67203091199E-06 0.00000000000E+00  1.
       -5    1    4    4    0  502  1.12169448273E+02 -3.89261624903E+01  6.80991795866E+01  1.36957263453E+02  4.75000000000E+00 0.00000000000E+00  1.
      -24    2    4    4    0    0  6.36193871090E+01 -5.55690022588E+01  2.64277385783E+02  2.88703549670E+02  7.98239470800E+01 0.00000000000E+00  1.
       13    1    7    7    0    0  3.58627688597E+00 -2.47466358459E+01  1.23394541843E+01  2.78842367870E+01  1.05659999932E-01 0.00000000000E+00  1.
      -14    1    7    7    0    0  6.00331102231E+01 -3.08223664129E+01  2.51937931599E+02  2.60819312883E+02  0.00000000000E+00 0.00000000000E+00  1.
</event>
<event>
 9 113   1.0000000E+00   3.1250000E+01   7.8125000E-03   1.5660620E-01
       -2   -1    0    0    0  501  0.00000000000E+00  0.00000000000E+00  3.03633520807E+02  3.03633520807E+02  0.00000000000E+00 0.00000000000E+00  1.
        1   -1    0    0  501    0  0.00000000000E+00  0.00000000000E+00 -1.49863630728E+02  1.49863630728E+02  0.00000000000E+00 0.00000000000E+00  1.
       25    1    1    2    0    0  9.90952065618E+00  3.07036290676E+00  3.47474825890E+01  1.30153806223E+02  1.25000000000E+02 0.00000000000E+00  1.
       -6    2    1    2    0  502 -1.02702239681E+02  1.24725661055E+01  1.07965441109E+02  2.28610416233E+02  1.72924466157E+02 0.00000000000E+00  1.
        5    1    1    2  502    0  9.27927190251E+01 -1.55429290123E+01  1.10569663813E+01  9.47329290791E+01  2.83357246494E-06 0.00000000000E+00  1.
       -5    1    4    4    0  502  1.69630086385E+01  4.13245279713E+01 -4.31064813547E-01  4.49244765244E+01  4.75000000000E+00 0.00000000000E+00  1.
      -24    2    4    4    0    0 -1.19665248320E+02 -2.88519618658E+01  1.08396505922E+02  1.83685939709E+02  8.26953117877E+01 0.00000000000E+00  1.
       11    1    7    7    0    0 -1.64732723527E+01 -1.44154775692E-01 -1.35846473080E+01  2.13525671841E+01  5.10997735597E-04 0.00000000000E+00  1.
      -12    1    7    7    0    0 -1.03191975967E+02 -2.87078070901E+01  1.21981153230E+02  1.62333372525E+02  2.69739830470E-06 0.00000000000E+00  1.
</event>
<event>
 9 113   1.0000000E+00   3.1250000E+01   7.8125000E-03   1.5660620E-01
        1   -1    0    0  501    0  0.00000000000E+00  0.00000000000E+00  1.16401906407E+02  1.16401906407E+02  0.00000000000E+00 0.00000000000E+00  1.
       -2   -1    0    0    0  501  0.00000000000E+00  0.00000000000E+00 -4.43205826448E+02  4.43205826448E+02  0.00000000000E+00 0.00000000000E+00  1.
       25    1    1    2    0    0  7.59966166487E+00 -8.01328352917E+01 -1.24069677616E+02  1.93642224355E+02  1.25000000000E+02 0.00000000000E+00  1.
       -6    2    1    2    0  502  2.47884411368E+01 -3.89197282995E+01 -1.23879596544E+02  2.19539563813E+02  1.75277647104E+02 0.00000000000E+00  1.
        5    1    1    2  502    0 -3.23881028017E+01  1.19052563591E+02 -7.88546458809E+01  1.46425944688E+02  0.00000000000E+00 0.00000000000E+00  1.
       -5    1    4    4    0  502  7.45789094415E+01 -1.85205998940E+01 -6.47174209986E+01  1.00577996772E+02  4.75000000000E+00 0.00000000000E+00  1.
      -24    2    4    4    0    0 -4.97904683047E+01 -2.03991284056E+01 -5.91621755450E+01  1.18961567041E+02  8.80708592211E+01 0.00000000000E+00  1.
       15    1    7    7    0    0 -7.86570283624E-01 -3.43645687206E+01  7.32899487661E+00  3.51910991631E+01  1.77680000000E+00 0.00000000000E+00  1.
      -16    1    7    7    0    0 -4.90038980211E+01  1.39654403151E+01 -6.64911704216E+01  8.37704678779E+01  2.13248059988E-06 0.00000000000E+00  1.
</event>
<event>
 9 113   1.0000000E+00   3.1250000E+01   7.8125000E-03   1.5660620E-01
        1   -1    0    0  501    0  0.00000000000E+00  0.00000000000E+00  2.25483671095E+02  2.25483671095E+02  0.00000000000E+00 0.00000000000E+00  1.
       -2   -1    0    0    0  501  0.00000000000E+00  0.00000000000E+00 -5.88613170520E+02  5.88613170520E+02  0.00000000000E+00 0.00000000000E+00  1.
       25    1    1    2    0    0  5.02318466334E+01 -8.83537187934E+01  1.99018751816E+01  1.62328995181E+02  1.25000000000E+02 0.00000000000E+00  1.
       -6    2    1    2    0  502 -8.53084481820E+01  1.72390854438E+02 -4.62659383055E+02  5.30799966924E+02  1.75210622205E+02 0.00000000000E+00  1.
        5    1    1    2  502    0  3.50766015486E+01 -8.40371356446E+01  7.96280084483E+01  1.20967879509E+02  6.94285382202E-06 0.00000000000E+00  1.
       -5    1    4    4    0  502 -3.23306822329E+01  1.08885230550E+02 -3.55831833363E+02  3.73550696131E+02  4.75000000000E+00 0.00000000000E+00  1.
      -24    2    4    4    0    0 -5.29777659491E+01  6.35056238885E+01 -1.06827549692E+02  1.57249270794E+02  8.04711118451E+01 0.00000000000E+00  1.
        3    1    7    7  704    0 -4.54133457568E+00  4.86225188001E+01 -1.28740985819E+01  5.05026283325E+01  7.15255737305E-07 0.00000000000E+00  1.
       -4    1    7    7    0  704 -4.84364313734E+01  1.48831050883E+01 -9.39534511102E+01  1.06746642461E+02  0.00000000000E+00 0.00000000000E+00  1.
</event>
<event>
 9 113   1.0000000E+00   3.1250000E+01   7.8125000E-03   1.5660620E-01
       -4   -1    0    0    0  501  0.00000000000E+00  0.00000000000E+00  4.12311777773E+02  4.12311777773E+02  0.00000000000E+00 0.00000000000E+00  1.
        3   -1    0    0  501    0  0.00000000000E+00  0.00000000000E+00 -2.58332373026E+02  2.58332373026E+02  0.00000000000E+00 0.00000000000E+00  1.
       25    1    1    2    0    0  1.58275932399E+01  2.59782607326E+02  4.93655074275E+01  2.92915464085E+02  1.25000000000E+02 0.00000000000E+00  1.
       -6    2    1    2    0  502  3.07520883197E+01 -2.59723699725E+02  7.60904795664E+01  3.23109499932E+02  1.73804190773E+02 0.00000000000E+00  1.
        5    1    1    2  502    0 -4.65796815596E+01 -5.89076004675E-02  2.85234177530E+01  5.46191867809E+01  3.37174788087E-07 0.00000000000E+00  1.
       -5    1    4    4    0  502  5.97256329945E+00 -1.60023324319E+02 -2.61912166221E+01  1.62331999823E+02  4.75000000000E+00 0.00000000000E+00  1.
      -24    2    4    4    0    0  2.47795250203E+01 -9.97003754063E+01  1.02281696189E+02  1.60777500108E+02  6.95245960036E+01 0.00000000000E+00  1.
        1    1    7    7  704    0  1.22294006874E+00 -6.43810269521E+01  1.87346960566E+01  6.70626650988E+01  6.30796268240E-07 0.00000000000E+00  1.
       -2    1    7    7    0  704  2.35565849515E+01 -3.53193484542E+01  8.35470001319E+01  9.37148350094E+01  1.65181236989E-06 0.00000000000E+00  1.
</event>
<event>
 9 113   1.0000000E+00   3.1250000E+01   7.8125000E-03   1.5660620E-01
        1   -1    0    0  501    0  0.00000000000E+00  0.00000000000E+00  2.19048160803E+02  2.19048160803E+02  0.00000000000E+00 0.00000000000E+00  1.
       -2   -1    0    0    0  501  0.00000000000E+00  0.00000000000E+00 -4.84003235583E+02  4.84003235583E+02  0.00000000000E+00 0.00000000000E+00  1.
       25    1    1    2    0    0 -5.56000900253E+01 -1.39199182905E+02 -2.11980945613E+02  2.88147017745E+02  1.25000000000E+02 0.00000000000E+00  1.
       -6    2    1    2    0  502  1.60219396643E+02  6.32607265661E+01  4.82432670695E+01  2.50719087677E+02  1.75671493195E+02 0.00000000000E+00  1.
        5    1    1    2  502    0 -1.04619306618E+02  7.59384563389E+01 -1.01217396236E+02  1.64185290964E+02  5.22348935609E-06 0.00000000000E+00  1.
       -5    1    4    4    0  502  8.00256848189E+01 -4.26816057278E+01  2.40701104721E+01  9.39561728487E+01  4.75000000000E+00 0.00000000000E+00  1.
      -24    2    4    4    0    0  8.01937118241E+01  1.05942332294E+02  2.41731565973E+01  1.56762914828E+02  7.95956077775E+01 0.00000000000E+00  1.
        3    1    7    7  704    0  6.53068250262E+01  2.96739521118E+01  3.22268066145E+01  7.86389972819E+01  4.76837158203E-07 0.00000000000E+00  1.
       -4    1    7    7    0  704  1.48868867979E+01  7.62683801821E+01 -8.05365001713E+00  7.81239175460E+01  8.08516738787E-07 0.00000000000E+00  1.
</event>
<event>
 9 113   1.0000000E+00   3.1250000E+01   7.8125000E-03   1.5660620E-01
       -2   -1    0    0    0  501  0.00000000000E+00  0.00000000000E+00  9.39613845074E+02  9.39613845074E+02  0.00000000000E+00 0.00000000000E+00  1.
        1   -1    0    0  501    0  0.00000000000E+00  0.00000000000E+00 -1.30052319430E+02  1.30052319430E+02  0.00000000000E+00 0.00000000000E+00  1.
       25    1    1    2    0    0 -1.45504446349E+02  7.24837641623E+01  1.81570043968E+02  2.73894360732E+02  1.25000000000E+02 0.00000000000E+00  1.
       -6    2    1    2    0  502 -8.09859352505E+01  8.07709395607E+01  2.00693781710E+02  2.88457087282E+02  1.72762353540E+02 0.00000000000E+00  1.
        5    1    1    2  502    0  2.26490381600E+02 -1.53254703723E+02  4.27297699966E+02  5.07314716489E+02  0.00000000000E+00 0.00000000000E+00  1.
       -5    1    4    4    0  502 -7.27073490831E+00  6.83727556508E+01  1.22845746316E+01  7.00083607526E+01  4.75000000000E+00 0.00000000000E+00  1.
      -24    2    4    4    0    0 -7.37152003422E+01  1.23981839099E+01  1.88409207078E+02  2.18448726530E+02  8.14504210240E+01 0.00000000000E+00  1.
       15    1    7    7    0    0 -2.53226338474E+01  1.31685837577E+00  1.95010207214E+00  2.54937211344E+01  1.77680000000E+00 0.00000000000E+00  1.
      -16    1    7    7    0    0 -4.83925664948E+01  1.10813255342E+01  1.86459105006E+02  1.92955005395E+02  2.69739830470E-06 0.00000000000E+00  1.
</event>
<event>
 9 113   1.0000000E+00   3.1250000E+01   7.8125000E-03   1.5660620E-01
        1   -1    0    0  501    0  0.00000000000E+00  0.00000000000E+00  1.39159930702E+03  1.39159930702E+03  0.00000000000E+00 0.00000000000E+00  1.
       -2   -1    0    0    0  501  0.00000000000E+00  0.00000000000E+00 -3.67149980481E+01  3.67149980481E+01  0.00000000000E+00 0.00000000000E+00  1.
       25    1    1    2    0    0 -5.21568710305E+01  4.83545828275E+01  2.77307168740E+02  3.12382411014E+02  1.25000000000E+02 0.00000000000E+00  1.
       -6    2    1    2    0  502  4.86934187681E+01  4.57987917439E+01  8.07954172402E+02  8.30321323125E+02  1.79373845861E+02 0.00000000000E+00  1.
        5    1    1    2  502    0  3.46345226244E+00 -9.41533745714E+01  2.69622967826E+02  2.85610570925E+02  5.39479660939E-06 0.00000000000E+00  1.
       -5    1    4    4    0  502  1.33768457463E+01  4.40887938876E+01  6.39831975853E+02  6.41506259963E+02  4.75000000001E+00 0.00000000000E+00  1.
      -24    2    4    4    0    0  3.53165730217E+01  1.70999785624E+00  1.68122196549E+02  1.88815063162E+02  7.83317986628E+01 0.00000000000E+00  1.
        3    1    7    7  704    0  1.32267972914E+01  3.05587136749E+01  1.36953536150E+02  1.40943443310E+02  3.30362473978E-06 0.00000000000E+00  1.
       -4    1    7    7    0  704  2.20897757304E+01 -2.88487158186E+01  3.11686603989E+01  4.78716198521E+01  1.65181236989E-06 0.00000000000E+00  1.
</event>
<event>
 9 113   1.0000000E+00   3.1250000E+01   7.8125000E-03   1.5660620E-01
        1   -1    0    0  501    0  0.00000000000E+00  0.00000000000E+00  1.20158981666E+03  1.20158981666E+03  0.00000000000E+00 0.00000000000E+00  1.
       -2   -1    0    0    0  501  0.00000000000E+00  0.00000000000E+00 -7.70629502672E+02  7.70629502672E+02  0.00000000000E+00 0.00000000000E+00  1.
       25    1    1    2    0    0  7.62008392001E+01 -3.36319661208E+02 -5.93529216796E+02  6.97724453922E+02  1.25000000000E+02 0.00000000000E+00  1.
       -6    2    1    2    0  502 -1.78851760987E+01 -1.11417934153E+02  7.82124893609E+01  2.26015056359E+02  1.79532104745E+02 0.00000000000E+00  1.
        5    1    1    2  502    0 -5.83156631013E+01  4.47737595361E+02  9.46277041421E+02  1.04847980905E+03  0.00000000000E+00 0.00000000000E+00  1.
       -5    1    4    4    0  502  3.53673823695E+00 -4.05771418679E+01  1.06297322325E+02  1.13932858268E+02  4.75000000000E+00 0.00000000000E+00  1.
      -24    2    4    4    0    0 -2.14219143357E+01 -7.08407922852E+01 -2.80848329644E+01  1.12082198092E+02  7.93495117882E+01 0.00000000000E+00  1.
       11    1    7    7    0    0  1.04262856675E+01 -2.82305235883E+00  2.01216702761E+01  2.28376590833E+01  5.10998542086E-04 0.00000000000E+00  1.
      -12    1    7    7    0    0 -3.18482000032E+01 -6.80177399263E+01 -4.82065032406E+01  8.92445390084E+01  9.53674316406E-07 0.00000000000E+00  1.
</event>
<event>
 9 113   1.0000000E+00   3.1250000E+01   7.8125000E-03   1.5660620E-01
       -2   -1    0    0    0  501  0.00000000000E+00  0.00000000000E+00  3.42400675408E+02  3.42400675408E+02  0.00000000000E+00 0.00000000000E+00  1.
        1   -1    0    0  501    0  0.00000000000E+00  0.00000000000E+00 -1.45090407265E+02  1.45090407265E+02  0.00000000000E+00 0.00000000000E+00  1.
       25    1    1    2    0    0 -2.51619559081E+01 -5.04392636438E+01  1.62437652452E+02  2.12575243799E+02  1.25000000000E+02 0.00000000000E+00  1.
       -6    2    1    2    0  502  3.02592474276E+01  7.17542397339E+01  9.69477965711E+01  2.09085460873E+02  1.68087958266E+02 0.00000000000E+00  1.
        5    1    1    2  502    0 -5.09729151948E+00 -2.13149760901E+01 -6.20751808797E+01  6.58303780014E+01  1.16800772800E-06 0.00000000000E+00  1.
       -5    1    4    4    0  502 -2.71767548767E+01  3.88963336579E+01  9.36574911552E+01  1.05098948268E+02  4.75000000000E+00 0.00000000000E+00  1.
      -24    2    4    4    0    0  5.74360023043E+01  3.28579060760E+01  3.29030541591E+00  1.03986512605E+02  8.01488137255E+01 0.00000000000E+00  1.
        1    1    7    7  704    0  2.22740145790E+01  5.11375557565E+01 -1.84941030384E+01  5.87640466732E+01  5.33120149970E-07 0.00000000000E+00  1.
       -2    1    7    7    0  704  3.51619877253E+01 -1.82796496805E+01  2.17844084543E+01  4.52224659317E+01  9.23391186287E-07 0.00000000000E+00  1.
</event>
<event>
 9 113   1.0000000E+00   3.1250000E+01   7.8125000E-03   1.5660620E-01
       -2   -1    0    0    0  501  0.00000000000E+00  0.00000000000E+00  5.19122465762E+02  5.19122465762E+02  0.00000000000E+00 0.00000000000E+00  1.
        1   -1    0    0  501    0  0.00000000000E+00  0.00000000000E+00 -1.21083944568E+02  1.21083944568E+02  0.00000000000E+00 0.00000000000E+00  1.
       25    1    1    2    0    0  1.01675788135E+01 -2.66818800147E+01  1.15492410152E+02  1.72565347572E+02  1.25000000000E+02 0.00000000000E+00  1.
       -6    2    1    2    0  502  9.53670849616E+01 -4.96152410880E+01  2.68898646433E+02  3.36701881315E+02  1.71770549818E+02 0.00000000000E+00  1.
        5    1    1    2  502    0 -1.05534663775E+02  7.62971211027E+01  1.36474646093E+01  1.30939181443E+02  2.90538253950E-06 0.00000000000E+00  1.
       -5    1    4    4    0  502  3.17563441769E+01 -5.22245357489E+01  1.52996168047E+01  6.31862983885E+01  4.75000000000E+00 0.00000000000E+00  1.
      -24    2    4    4    0    0  6.36107407848E+01  2.60929466097E+00  2.53599029629E+02  2.73515582926E+02  8.02818255460E+01 0.00000000000E+00  1.
        1    1    7    7  704    0 -1.16246866092E+01 -1.79771258788E+01  3.12321178367E+01  3.78649650494E+01  2.63341927938E-06 0.00000000000E+00  1.
       -2    1    7    7    0  704  7.52354273939E+01  2.05864205398E+01  2.22366911792E+02  2.35650617877E+02  2.69739830470E-06 0.00000000000E+00  1.
</event>
<event>
 9 113   1.0000000E+00   3.1250000E+01   7.8125000E-03   1.5660620E-01
       -2   -1    0    0    0  501  0.00000000000E+00  0.00000000000E+00  8.82713600274E+01  8.82713600274E+01  0.00000000000E+00 0.00000000000E+00  1.
        1   -1    0    0  501    0  0.00000000000E+00  0.00000000000E+00 -9.49091307262E+02  9.49091307262E+02  0.00000000000E+00 0.00000000000E+00  1.
       25    1    1    2    0    0 -7.84036044467E+01 -6.88463489775E+00 -1.62809311995E+02  2.19832653308E+02  1.25000000000E+02 0.00000000000E+00  1.
       -6    2    1    2    0  502 -1.55392488256E+01 -6.43777513020E+01 -1.10188515591E+02  2.17998170194E+02  1.76056042563E+02 0.00000000000E+00  1.
        5    1    1    2  502    0  9.39428532723E+01  7.12623861997E+01 -5.87822119648E+02  5.99531843788E+02  1.32144989591E-05 0.00000000000E+00  1.
       -5    1    4    4    0  502  1.61100201302E+01  4.63885980938E+01 -3.34143690031E+01  5.95862176815E+01  4.75000000000E+00 0.00000000000E+00  1.
      -24    2    4    4    0    0 -3.16492689558E+01 -1.10766349396E+02 -7.67741465881E+01  1.58411952513E+02  7.70014073290E+01 0.00000000000E+00  1.
        3    1    7    7  704    0 -4.84332246567E+00 -1.44317659314E+01 -5.36643426497E+01  5.57816754179E+01  1.16800772800E-06 0.00000000000E+00  1.
       -4    1    7    7    0  704 -2.68059464902E+01 -9.63345834644E+01 -2.31098039384E+01  1.02630277095E+02  6.74349576174E-07 0.00000000000E+00  1.
</event>
<event>
 9 113   1.0000000E+00   3.1250000E+01   7.8125000E-03   1.5660620E-01
       -4   -1    0    0    0  501  0.00000000000E+00  0.00000000000E+00  5.08294140176E+02  5.08294140176E+02  0.00000000000E+00 0.00000000000E+00  1.
        3   -1    0    0  501    0  0.00000000000E+00  0.00000000000E+00 -1.55075996962E+02  1.55075996962E+02  0.00000000000E+00 0.00000000000E+00  1.
       25    1    1    2    0    0 -1.31508209234E+02  1.14325822160E+02  1.20431288575E+02  2.45954259927E+02  1.25000000000E+02 0.00000000000E+00  1.
       -6    2    1    2    0  502  1.55924273373E+02 -7.60324557913E+01  2.65708803955E+02  3.61323267692E+02  1.72800526375E+02 0.00000000000E+00  1.
        5    1    1    2  502    0 -2.44160641390E+01 -3.82933663685E+01 -3.29219493165E+01  5.60926095191E+01  2.13248059988E-06 0.00000000000E+00  1.
       -5    1    4    4    0  502  7.83071303626E+01 -1.57422567517E+01  2.04647918660E+02  2.19734290508E+02  4.75000000000E+00 0.00000000000E+00  1.
      -24    2    4    4    0    0  7.76171430104E+01 -6.02901990395E+01  6.10608852950E+01  1.41588977183E+02  8.16068487164E+01 0.00000000000E+00  1.
        1    1    7    7  704    0  8.50037990498E+01 -5.62235690936E+01  7.41384019711E+01  1.26028719827E+02  0.00000000000E+00 0.00000000000E+00  1.
       -2    1    7    7    0  704 -7.38665603938E+00 -4.06662994597E+00 -1.30775166761E+01  1.55602573557E+01  9.83024984745E-07 0.00000000000E+00  1.
</event>
<event>
 9 113   1.0000000E+00   3.1250000E+01   7.8125000E-03   1.5660620E-01
        1   -1    0    0  501    0  0.00000000000E+00  0.00000000000E+00  7.82921873235E+02  7.82921873235E+02  0.00000000000E+00 0.00000000000E+00  1.
       -2   -1    0    0    0  501  0.00000000000E+00  0.00000000000E+00 -4.49812873940E+01  4.49812873940E+01  0.00000000000E+00 0.00000000000E+00  1.
       25    1    1    2    0    0 -5.91065913568E+01 -1.64079028688E+01  3.79489958083E+02  4.04228198799E+02  1.25000000000E+02 0.00000000000E+00  1.
       -6    2    1    2    0  502  3.00929423739E+01  2.08372233321E+01  3.53899985230E+02  3.93974472701E+02  1.69206709492E+02 0.00000000000E+00  1.
        5    1    1    2  502    0  2.90136489830E+01 -4.42932046331E+00  4.55064252737E+00  2.97004891287E+01  1.81965083152E-06 0.00000000000E+00  1.
       -5    1    4    4    0  502 -4.44944920161E+00  6.70470121462E+01  2.02174971759E+02  2.13101809335E+02  4.75000000000E+00 0.00000000000E+00  1.
      -24    2    4    4    0    0  3.45423915755E+01 -4.62097888140E+01  1.51725013471E+02  1.80872663366E+02  7.97867109386E+01 0.00000000000E+00  1.
        1    1    7    7  704    0 -1.25917997587E+01 -1.60762920044E+00 -3.04067655147E+00  1.30531071665E+01  1.15654515695E-06 0.00000000000E+00  1.
       -2    1    7    7    0  704  4.71341913342E+01 -4.46021596136E+01  1.54765690022E+02  1.67819556200E+02  2.69739830470E-06 0.00000000000E+00  1.
</event>
<event>
 9 113   1.0000000E+00   3.1250000E+01   7.8125000E-03   1.5660620E-01
       -2   -1    0    0    0  501  0.00000000000E+00  0.00000000000E+00  1.87815913983E+02  1.87815913983E+02  0.00000000000E+00 0.00000000000E+00  1.
        1   -1    0    0  501    0  0.00000000000E+00  0.00000000000E+00 -1.32514304633E+03  1.32514304633E+03  0.00000000000E+00 0.00000000000E+00  1.
       25    1    1    2    0    0 -8.76997330428E+01 -1.25736833645E+02  4.03258637893E+01  2.01871666662E+02  1.25000000000E+02 0.00000000000E+00  1.
       -6    2    1    2    0  502  1.80409713361E+02 -8.06655658164E+01 -2.75398204436E+02  3.80893335328E+02  1.73726692559E+02 0.00000000000E+00  1.
        5    1    1    2  502    0 -9.27099803183E+01  2.06402399461E+02 -9.02254791697E+02  9.30193958319E+02  1.86881236479E-05 0.00000000000E+00  1.
       -5    1    4    4    0  502 -7.79099348740E+00 -1.93416210978E+00  1.35553430876E+01  1.64544944866E+01  4.75000000000E+00 0.00000000000E+00  1.
      -24    2    4    4    0    0  1.88200706849E+02 -7.87314037066E+01 -2.88953547524E+02  3.64438840842E+02  8.77688788786E+01 0.00000000000E+00  1.
       13    1    7    7    0    0  1.01309596511E+02 -8.86133863668E+01 -1.78419363582E+02  2.23493729339E+02  1.05660000073E-01 0.00000000000E+00  1.
      -14    1    7    7    0    0  8.68911103372E+01  9.88198266022E+00 -1.10534183942E+02  1.40945111503E+02  1.34869915235E-06 0.00000000000E+00  1.
</event>
<event>
 9 113   1.0000000E+00   3.1250000E+01   7.8125000E-03   1.5660620E-01
       -2   -1    0    0    0  501  0.00000000000E+00  0.00000000000E+00  1.14150204390E+03  1.14150204390E+03  0.00000000000E+00 0.00000000000E+00  1.
        1   -1    0    0  501    0  0.00000000000E+00  0.00000000000E+00 -3.38284552564E+02  3.38284552564E+02  0.00000000000E+00 0.00000000000E+00  1.
       25    1    1    2    0    0  1.94667002087E+00  2.69230472883E+02  8.30304734216E+02  8.81770825507E+02  1.25000000000E+02 0.00000000000E+00  1.
       -6    2    1    2    0  502 -1.25891649402E+02  7.80748013981E+01 -3.53864356239E+01  2.29163242081E+02  1.71228530603E+02 0.00000000000E+00  1.
        5    1    1    2  502    0  1.23944979381E+02 -3.47305274281E+02  8.29919274252E+00  3.68852528875E+02  3.82585681340E-06 0.00000000000E+00  1.
       -5    1    4    4    0  502  5.82681958851E+00  6.50586958156E+01  9.84491474276E+00  6.62274155772E+01  4.75000000000E+00 0.00000000000E+00  1.
      -24    2    4    4    0    0 -1.31718468990E+02  1.30161055825E+01 -4.52313503667E+01  1.62935826504E+02  8.35645524418E+01 0.00000000000E+00  1.
        1    1    7    7  704    0 -1.25275753955E+02  3.39183855976E+01 -2.31115820410E+01  1.31827981229E+02  3.43852164790E-06 0.00000000000E+00  1.
       -2    1    7    7    0  704 -6.44271503553E+00 -2.09022800151E+01 -2.21197683257E+01  3.11078452748E+01  2.09211454091E-06 0.00000000000E+00  1.
</event>
<event>
 9 113   1.0000000E+00   3.1250000E+01   7.8125000E-03   1.5660620E-01
        1   -1    0    0  501    0  0.00000000000E+00  0.00000000000E+00  1.13015276422E+03  1.13015276422E+03  0.00000000000E+00 0.00000000000E+00  1.
       -2   -1    0    0    0  501  0.00000000000E+00  0.00000000000E+00 -7.38730042746E+01  7.38730042746E+01  0.00000000000E+00 0.00000000000E+00  1.
       25    1    1    2    0    0  5.79380856955E+01 -1.73293744125E+02  2.38240643417E+02  3.25224764897E+02  1.25000000000E+02 0.00000000000E+00  1.
       -6    2    1    2    0  502 -2.34819375558E+01  1.26298245767E+02  3.82812300627E+02  4.39690329291E+02  1.74010574061E+02 0.00000000000E+00  1.
        5    1    1    2  502    0 -3.44561481397E+01  4.69954983580E+01  4.35226815898E+02  4.39110674303E+02  1.07895932188E-05 0.00000000000E+00  1.
       -5    1    4    4    0  502 -1.71924662259E+01 -3.32590530857E+01  9.11745265933E+01  9.86767566684E+01  4.75000000000E+00 0.00000000000E+00  1.
      -24    2    4    4    0    0 -6.28947132992E+00  1.59557298852E+02  2.91637774034E+02  3.41013572622E+02  7.57599920959E+01 0.00000000000E+00  1.
        3    1    7    7  704    0  1.96051071877E+01  7.27113456112E+01  1.92449106813E+02  2.06659039777E+02  5.39479660939E-06 0.00000000000E+00  1.
       -4    1    7    7    0  704 -2.58945785176E+01  8.68459532410E+01  9.91886672208E+01  1.34354532845E+02  4.04609745705E-06 0.00000000000E+00  1.
</event>
<event>
 9 113   1.0000000E+00   3.1250000E+01   7.8125000E-03   1.5660620E-01
       -2   -1    0    0    0  501  0.00000000000E+00  0.00000000000E+00  9.20810214523E+01  9.20810214523E+01  0.00000000000E+00 0.00000000000E+00  1.
        1   -1    0    0  501    0  0.00000000000E+00  0.00000000000E+00 -3.86534532352E+02  3.86534532352E+02  0.00000000000E+00 0.00000000000E+00  1.
       25    1    1    2    0    0 -6.29576377553E+00 -3.08160322275E+01 -1.88249626131E+02  2.28149482187E+02  1.25000000000E+02 0.00000000000E+00  1.
       -6    2    1    2    0  502  4.04290295773E+01  2.15196381091E+01 -5.07055535614E+01  1.84651426251E+02  1.71544439716E+02 0.00000000000E+00  1.
        5    1    1    2  502    0 -3.41332658018E+01  9.29639411838E+00 -5.54983312078E+01  6.58146453668E+01  6.74349576174E-07 0.00000000000E+00  1.
       -5    1    4    4    0  502  7.60052577758E+01  2.56657428442E+01  5.98913078403E+00  8.05851211630E+01  4.75000000000E+00 0.00000000000E+00  1.
      -24    2    4    4    0    0 -3.55762281984E+01 -4.14610473511E+00 -5.66946843454E+01  1.04066305088E+02  7.95779518730E+01 0.00000000000E+00  1.
        3    1    7    7  704    0  2.39021756000E+01  8.19123504515E+00 -2.50241108002E+01  3.55614461365E+01  1.46971082758E-06 0.00000000000E+00  1.
       -4    1    7    7    0  704 -5.94784037984E+01 -1.23373397803E+01 -3.16705735452E+01  6.85048589513E+01  1.68587394044E-06 0.00000000000E+00  1.
</event>
<event>
 9 113   1.0000000E+00   3.1250000E+01   7.8125000E-03   1.5660620E-01
        3   -1    0    0  501    0  0.00000000000E+00  0.00000000000E+00  9.83001225314E+02  9.83001225314E+02  0.00000000000E+00 0.00000000000E+00  1.
       -4   -1    0    0    0  501  0.00000000000E+00  0.00000000000E+00 -4.44367185588E+01  4.44367185588E+01  0.00000000000E+00 0.00000000000E+00  1.
       25    1    1    2    0    0 -3.25437684505E+01  9.62106883896E+01  2.74687907149E+02  3.18424307740E+02  1.25000000000E+02 0.00000000000E+00  1.
       -6    2    1    2    0  502  2.16867934302E+01 -2.81611565172E+01  4.53243317892E+02  4.87394611543E+02  1.75671951096E+02 0.00000000000E+00  1.
        5    1    1    2  502    0  1.08569750203E+01 -6.80495318724E+01  2.10633281714E+02  2.21619024590E+02  2.69739830470E-06 0.00000000000E+00  1.
       -5    1    4    4    0  502 -7.70357971601E-02 -8.02886085452E+01  2.00891394820E+02  2.16393580333E+02  4.75000000000E+00 0.00000000000E+00  1.
      -24    2    4    4    0    0  2.17638292274E+01  5.21274520280E+01  2.52351923072E+02  2.71001031211E+02  8.10501716304E+01 0.00000000000E+00  1.
       15    1    7    7    0    0  1.20847502973E+01  8.49739977557E+00  2.06275400315E+02  2.06811374895E+02  1.77680000000E+00 0.00000000000E+00  1.
      -16    1    7    7    0    0  9.67907893009E+00  4.36300522524E+01  4.60765227576E+01  6.41896563156E+01  0.00000000000E+00 0.00000000000E+00  1.
</event>
<event>
 9 113   1.0000000E+00   3.1250000E+01   7.8125000E-03   1.5660620E-01
       -2   -1    0    0    0  501  0.00000000000E+00  0.00000000000E+00  1.65020374582E+01  1.65020374582E+01  0.00000000000E+00 0.00000000000E+00  1.
        1   -1    0    0  501    0  0.00000000000E+00  0.00000000000E+00 -5.02417811612E+03  5.02417811612E+03  0.00000000000E+00 0.00000000000E+00  1.
       25    1    1    2    0    0  6.82683239287E+01  3.76427094680E+01 -1.17338124094E+03  1.18259294528E+03  1.25000000000E+02 0.00000000000E+00  1.
       -6    2    1    2    0  502  4.86953785361E+01 -1.63366240874E+02 -1.76887316476E+03  1.78553959699E+03  1.73722798840E+02 0.00000000000E+00  1.
        5    1    1    2  502    0 -1.16963702465E+02  1.25723531406E+02 -2.06542167296E+03  2.07254761132E+03  3.05175781250E-05 0.00000000000E+00  1.
       -5    1    4    4    0  502 -2.47714549453E+01 -1.70380778857E+01 -6.73795170334E+02  6.74482331232E+02  4.74999999996E+00 0.00000000000E+00  1.
      -24    2    4    4    0    0  7.34668334814E+01 -1.46328162988E+02 -1.09507799443E+03  1.11105726575E+03  9.18864897415E+01 0.00000000000E+00  1.
        3    1    7    7  704    0  4.25260635423E+01 -3.59493934795E+01 -6.13577390578E+02  6.16099049829E+02  1.07895932188E-05 0.00000000000E+00  1.
       -4    1    7    7    0  704  3.09407699391E+01 -1.10378769509E+02 -4.81500603852E+02  4.94958215926E+02  7.62939453125E-06 0.00000000000E+00  1.
</event>
<event>
 9 113   1.0000000E+00   3.1250000E+01   7.8125000E-03   1.5660620E-01
       -2   -1    0    0    0  501  0.00000000000E+00  0.00000000000E+00  3.25221755925E+01  3.25221755925E+01  0.00000000000E+00 0.00000000000E+00  1.
        1   -1    0    0  501    0  0.00000000000E+00  0.00000000000E+00 -1.17847398212E+03  1.17847398212E+03  0.00000000000E+00 0.00000000000E+00  1.
       25    1    1    2    0    0 -6.16303831828E+01  2.96872393046E+01 -2.35790276427E+02  2.75502614809E+02  1.25000000000E+02 0.00000000000E+00  1.
       -6    2    1    2    0  502  5.03634762878E+01  2.58297576845E+00 -7.91546909624E+02  8.12052309264E+02  1.74181776711E+02 0.00000000000E+00  1.
        5    1    1    2  502    0  1.12669068950E+01 -3.22702150731E+01 -1.18614620480E+02  1.23441233644E+02  2.33601545599E-06 0.00000000000E+00  1.
       -5    1    4    4    0  502 -3.49588359905E+01  4.17733957723E+01 -3.19244713390E+02  3.23893325549E+02  4.75000000000E+00 0.00000000000E+00  1.
      -24    2    4    4    0    0  8.53223122783E+01 -3.91904200039E+01 -4.72302196235E+02  4.88158983715E+02  8.00877195391E+01 0.00000000000E+00  1.
        3    1    7    7  704    0 -8.31443075686E+00 -2.38483923075E+01 -1.52506038458E+02  1.54583205234E+02  3.81469726562E-06 0.00000000000E+00  1.
       -4    1    7    7    0  704  9.36367430352E+01 -1.53420276964E+01 -3.19796157777E+02  3.33575778481E+02  0.00000000000E+00 0.00000000000E+00  1.
</event>
<event>
 9 113   1.0000000E+00   3.1250000E+01   7.8125000E-03   1.5660620E-01
       -2   -1    0    0    0  501  0.00000000000E+00  0.00000000000E+00  2.65883967835E+02  2.65883967835E+02  0.00000000000E+00 0.00000000000E+00  1.
        1   -1    0    0  501    0  0.00000000000E+00  0.00000000000E+00 -4.51175183210E+02  4.51175183210E+02  0.00000000000E+00 0.00000000000E+00  1.
       25    1    1    2    0    0  1.01426750093E+02  1.85805219127E+02 -1.18153380398E+02  2.72756643162E+02  1.25000000000E+02 0.00000000000E+00  1.
       -6    2    1    2    0  502 -1.42240175393E+02 -2.31263066633E+02  3.66638755945E+01  3.23857720939E+02  1.72698321226E+02 0.00000000000E+00  1.
        5    1    1    2  502    0  4.08134253000E+01  4.54578475057E+01 -1.03801710571E+02  1.20444786944E+02  3.30362473978E-06 0.00000000000E+00  1.
       -5    1    4    4    0  502 -1.34285126366E+02 -1.01994592828E+02  2.90694046573E+01  1.71181146498E+02  4.75000000000E+00 0.00000000000E+00  1.
      -24    2    4    4    0    0 -7.95504902635E+00 -1.29268473805E+02  7.59447093719E+00  1.52676574441E+02  8.04912372207E+01 0.00000000000E+00  1.
        3    1    7    7  704    0 -4.16899972024E+01 -4.77069949329E+01 -4.84626166710E+00  6.35413210785E+01  1.36571398227E-06 0.00000000000E+00  1.
       -4    1    7    7    0  704  3.37349481760E+01 -8.15614788723E+01  1.24407326043E+01  8.91352533625E+01  1.18011175831E-06 0.00000000000E+00  1.
</event>
<event>
 9 113   1.0000000E+00   3.1250000E+01   7.8125000E-03   1.5660620E-01
       -2   -1    0    0    0  501  0.00000000000E+00  0.00000000000E+00  3.58098769556E+02  3.58098769556E+02  0.00000000000E+00 0.00000000000E+00  1.
        1   -1    0    0  501    0  0.00000000000E+00  0.00000000000E+00 -1.37796538915E+03  1.37796538915E+03  0.00000000000E+00 0.00000000000E+00  1.
       25    1    1    2    0    0 -2.37487263748E+01  1.58685045970E+02 -1.01678011382E+02  2.27394731288E+02  1.25000000000E+02 0.00000000000E+00  1.
       -6    2    1    2    0  502  1.04714048745E+02  4.85424425468E+02 -2.71153916061E+02  5.92107215962E+02  1.74541124535E+02 0.00000000000E+00  1.
        5    1    1    2  502    0 -8.09653223700E+01 -6.44109471438E+02 -6.47034692152E+02  9.16562211457E+02  1.07895932188E-05 0.00000000000E+00  1.
       -5    1    4    4    0  502 -5.17574633992E+00 -1.00714722702E+01 -3.25732799076E+00  1.27041563870E+01  4.75000000000E+00 0.00000000000E+00  1.
      -24    2    4    4    0    0  1.09889795085E+02  4.95495897738E+02 -2.67896588070E+02  5.79403059575E+02  7.96703947920E+01 0.00000000000E+00  1.
        1    1    7    7  704    0  3.83135694498E+01  8.17993111046E+01 -7.48264740366E+01  1.17294748893E+02  6.46813391030E-06 0.00000000000E+00  1.
       -2    1    7    7    0  704  7.15762256349E+01  4.13696586633E+02 -1.93070114034E+02  4.62108310682E+02  2.69739830470E-06 0.00000000000E+00  1.
</event>
<event>
 9 113   1.0000000E+00   3.1250000E+01   7.8125000E-03   1.5660620E-01
       -2   -1    0    0    0  501  0.00000000000E+00  0.00000000000E+00  3.25268910301E+02  3.25268910301E+02  0.00000000000E+00 0.00000000000E+00  1.
        1   -1    0    0  501    0  0.00000000000E+00  0.00000000000E+00 -1.65200611993E+02  1.65200611993E+02  0.00000000000E+00 0.00000000000E+00  1.
       25    1    1    2    0    0 -4.71564290365E+01 -3.98803263145E+01  4.56526835153E+01  1.46708339022E+02  1.25000000000E+02 0.00000000000E+00  1.
       -6    2    1    2    0  502  5.52948694954E+01  7.89769460129E+01  1.79143672389E+02  2.67705274067E+02  1.74007982037E+02 0.00000000000E+00  1.
        5    1    1    2  502    0 -8.13844045892E+00 -3.90966196984E+01 -6.47280575960E+01  7.60559092056E+01  3.01578298585E-06 0.00000000000E+00  1.
       -5    1    4    4    0  502  2.06153316021E+01  9.20462482648E+01  4.12352457195E+01  1.03055381743E+02  4.75000000000E+00 0.00000000000E+00  1.
      -24    2    4    4    0    0  3.46795378933E+01 -1.30693022519E+01  1.37908426669E+02  1.64649892324E+02  8.19595991088E+01 0.00000000000E+00  1.
        1    1    7    7  704    0 -9.56497922873E+00 -2.99302395421E+01  1.91414788532E+01  3.67927204672E+01  1.61703347757E-06 0.00000000000E+00  1.
       -2    1    7    7    0  704  4.42445171220E+01  1.68609372902E+01  1.18766947816E+02  1.27857171857E+02  0.00000000000E+00 0.00000000000E+00  1.
</event>
<event>
 9 113   1.0000000E+00   3.1250000E+01   7.8125000E-03   1.5660620E-01
       -2   -1    0    0    0  501  0.00000000000E+00  0.00000000000E+00  3.40311872487E+02  3.40311872487E+02  0.00000000000E+00 0.00000000000E+00  1.
        1   -1    0    0  501    0  0.00000000000E+00  0.00000000000E+00 -7.79595021744E+02  7.79595021744E+02  0.00000000000E+00 0.00000000000E+00  1.
       25    1    1    2    0    0  1.05978666091E+02  1.80873198203E+01  2.09867854443E+02  2.66886015245E+02  1.25000000000E+02 0.00000000000E+00  1.
       -6    2    1    2    0  502 -1.55610291299E+02 -1.16032656709E+02 -7.14728844061E+01  2.64999963754E+02  1.65645607860E+02 0.00000000000E+00  1.
        5    1    1    2  502    0  4.96316252078E+01  9.79453368883E+01 -5.77678119294E+02  5.88020915232E+02  1.32144989591E-05 0.00000000000E+00  1.
       -5    1    4    4    0  502  1.72058562111E+01 -3.00156824451E+01  1.53544009571E+01  3.81484312830E+01  4.75000000000E+00 0.00000000000E+00  1.
      -24    2    4    4    0    0 -1.72816147510E+02 -8.60169742635E+01 -8.68272853631E+01  2.26851532471E+02  8.15984043923E+01 0.00000000000E+00  1.
        1    1    7    7  704    0 -1.19674281966E+02 -9.84399357270E+01 -6.21758280450E+01  1.66967626512E+02  1.50789149292E-06 0.00000000000E+00  1.
       -2    1    7    7    0  704 -5.31418655438E+01  1.24229614634E+01 -2.46514573181E+01  5.98839059590E+01  2.47771855483E-06 0.00000000000E+00  1.
</event>
<event>
 9 113   1.0000000E+00   3.1250000E+01   7.8125000E-03   1.5660620E-01
        1   -1    0    0  501    0  0.00000000000E+00  0.00000000000E+00  3.71777542096E+02  3.71777542096E+02  0.00000000000E+00 0.00000000000E+00  1.
       -2   -1    0    0    0  501  0.00000000000E+00  0.00000000000E+00 -1.01675323993E+03  1.01675323993E+03  0.00000000000E+00 0.00000000000E+00  1.
       25    1    1    2    0    0 -1.50034085071E+02 -3.24056322266E+02 -4.34453955415E+02  5.76105863587E+02  1.25000000000E+02 0.00000000000E+00  1.
       -6    2    1    2    0  502  1.69563308760E+02  1.56998341558E+01 -3.88885477352E+02  4.55663462733E+02  1.65526663424E+02 0.00000000000E+00  1.
        5    1    1    2  502    0 -1.95292236893E+01  3.08356488110E+02  1.78363734934E+02  3.56761455706E+02  6.03156597170E-06 0.00000000000E+00  1.
       -5    1    4    4    0  502  5.19574328926E+01 -5.54465142798E+01 -1.59691779221E+02  1.76912174904E+02  4.75000000000E+00 0.00000000000E+00  1.
      -24    2    4    4    0    0  1.17605875868E+02  7.11463484356E+01 -2.29193698131E+02  2.78751287828E+02  7.92438279542E+01 0.00000000000E+00  1.
        1    1    7    7  704    0  8.72691421667E+00  4.20205167505E+01 -4.07911361129E+01  5.92097934898E+01  4.29153442383E-06 0.00000000000E+00  1.
       -2    1    7    7    0  704  1.08878961651E+02  2.91258316851E+01 -1.88402562018E+02  2.19541494339E+02  5.39479660939E-06 0.00000000000E+00  1.
</event>
<event>
 9 113   1.0000000E+00   3.1250000E+01   7.8125000E-03   1.5660620E-01
        1   -1    0    0  501    0  0.00000000000E+00  0.00000000000E+00  9.76150909052E+02  9.76150909052E+02  0.00000000000E+00 0.00000000000E+00  1.
       -2   -1    0    0    0  501  0.00000000000E+00  0.00000000000E+00 -2.43592355668E+02  2.43592355668E+02  0.00000000000E+00 0.00000000000E+00  1.
       25    1    1    2    0    0 -4.24684367790E+01 -1.12579822236E+02 -1.11193002661E+02  2.06074424269E+02  1.25000000000E+02 0.00000000000E+00  1.
       -6    2    1    2    0  502  1.74731374853E+01 -4.26109405932E+01  2.86369329042E+01  1.83535847061E+02  1.75340612633E+02 0.00000000000E+00  1.
        5    1    1    2  502    0  2.49952992937E+01  1.55190762830E+02  8.15114623142E+02  8.30132993389E+02  0.00000000000E+00 0.00000000000E+00  1.
       -5    1    4    4    0  502 -4.18368939980E+01  1.13778011295E+00 -3.68589545551E+01  5.59711110653E+01  4.75000000000E+00 0.00000000000E+00  1.
      -24    2    4    4    0    0  5.93100314833E+01 -4.37487207061E+01  6.54958874593E+01  1.27564735996E+02  8.09408438160E+01 0.00000000000E+00  1.
       11    1    7    7    0    0  2.25121348418E+01 -6.37024236493E+01  3.86737248322E+01  7.78489048515E+01  5.11000600020E-04 0.00000000000E+00  1.
      -12    1    7    7    0    0  3.67978966414E+01  1.99537029431E+01  2.68221626271E+01  4.97158311443E+01  5.84003863998E-07 0.00000000000E+00  1.
</event>
<event>
 9 113   1.0000000E+00   3.1250000E+01   7.8125000E-03   1.5660620E-01
       -2   -1    0    0    0  501  0.00000000000E+00  0.00000000000E+00  8.78056142933E+01  8.78056142933E+01  0.00000000000E+00 0.00000000000E+00  1.
        1   -1    0    0  501    0  0.00000000000E+00  0.00000000000E+00 -5.21898080396E+02  5.21898080396E+02  0.00000000000E+00 0.00000000000E+00  1.
       25    1    1    2    0    0  3.24578866249E+01 -4.06704763686E+01 -1.66349266914E+02  2.14487017451E+02  1.25000000000E+02 0.00000000000E+00  1.
       -6    2    1    2    0  502 -5.26222815329E+01 -5.78524040713E+01 -1.88093714742E+02  2.66930274355E+02  1.72500784552E+02 0.00000000000E+00  1.
        5    1    1    2  502    0  2.01643949080E+01  9.85228804398E+01 -7.96494844463E+01  1.28286402883E+02  2.86102294922E-06 0.00000000000E+00  1.
       -5    1    4    4    0  502 -2.30772317172E+00 -2.51707017118E+01 -1.60422088048E+02  1.62470608556E+02  4.75000000000E+00 0.00000000000E+00  1.
      -24    2    4    4    0    0 -5.03145583612E+01 -3.26817023594E+01 -2.76716266941E+01  1.04459665799E+02  8.09101625427E+01 0.00000000000E+00  1.
        1    1    7    7  704    0 -4.73895634839E+01 -4.58449528089E+01 -4.69429005633E+01  8.09392756240E+01  0.00000000000E+00 0.00000000000E+00  1.
       -2    1    7    7    0  704 -2.92499487731E+00  1.31632504494E+01  1.92712738692E+01  2.35203901747E+01  4.12953092472E-07 0.00000000000E+00  1.
</event>
<event>
 9 113   1.0000000E+00   3.1250000E+01   7.8125000E-03   1.5660620E-01
       -2   -1    0    0    0  501  0.00000000000E+00  0.00000000000E+00  1.04008063788E+02  1.04008063788E+02  0.00000000000E+00 0.00000000000E+00  1.
        1   -1    0    0  501    0  0.00000000000E+00  0.00000000000E+00 -5.96028254861E+02  5.96028254861E+02  0.00000000000E+00 0.00000000000E+00  1.
       25    1    1    2    0    0 -4.88843707945E+01 -3.37024829175E-01 -2.90545216031E+02  3.20048930403E+02  1.25000000000E+02 0.00000000000E+00  1.
       -6    2    1    2    0  502  1.16141807517E+01  8.34905203777E+01 -3.88443229399E+01  1.93567700737E+02  1.69864702503E+02 0.00000000000E+00  1.
        5    1    1    2  502    0  3.72701900428E+01 -8.31534955485E+01 -1.62630652102E+02  1.86419687509E+02  3.30362473978E-06 0.00000000000E+00  1.
       -5    1    4    4    0  502  1.40856649610E+01  5.57696277430E+01  4.59203298007E+01  7.37556541900E+01  4.75000000000E+00 0.00000000000E+00  1.
      -24    2    4    4    0    0 -2.47148420936E+00  2.77208926346E+01 -8.47646527406E+01  1.19812046547E+02  7.99707697900E+01 0.00000000000E+00  1.
        3    1    7    7  704    0  2.80203257841E+00  5.57889996959E+01 -6.04168537654E+01  8.22828055704E+01  1.50789149292E-06 0.00000000000E+00  1.
       -4    1    7    7    0  704 -5.27351678777E+00 -2.80681070612E+01 -2.43477989753E+01  3.75292409762E+01  1.93692169300E-06 0.00000000000E+00  1.
</event>
<event>
 9 113   1.0000000E+00   3.1250000E+01   7.8125000E-03   1.5660620E-01
        3   -1    0    0  501    0  0.00000000000E+00  0.00000000000E+00  7.99152994658E+01  7.99152994658E+01  0.00000000000E+00 0.00000000000E+00  1.
       -4   -1    0    0    0  501  0.00000000000E+00  0.00000000000E+00 -6.81062477570E+02  6.81062477570E+02  0.00000000000E+00 0.00000000000E+00  1.
       25    1    1    2    0    0  4.02116775341E+01  2.41900830778E+01 -2.08614623459E+02  2.47683669729E+02  1.25000000000E+02 0.00000000000E+00  1.
       -6    2    1    2    0  502  2.38718441832E+01  9.12224766541E+01 -2.10494076397E+02  2.88428004342E+02  1.73180692628E+02 0.00000000000E+00  1.
        5    1    1    2  502    0 -6.40835217173E+01 -1.15412559732E+02 -1.82038478249E+02  2.24866102965E+02  3.81469726562E-06 0.00000000000E+00  1.
       -5    1    4    4    0  502  6.34785254826E+01  4.05339901279E+01 -1.48683471606E+02  1.66738912021E+02  4.75000000000E+00 0.00000000000E+00  1.
      -24    2    4    4    0    0 -3.96066812995E+01  5.06884865262E+01 -6.18106047904E+01  1.21689092321E+02  8.27627479934E+01 0.00000000000E+00  1.
        3    1    7    7  704    0 -9.47601252737E+00 -1.74859760844E+01  6.15398503183E+00  2.08188785676E+01  3.95372484965E-07 0.00000000000E+00  1.
       -4    1    7    7    0  704 -3.01306687721E+01  6.81744626106E+01 -6.79645898222E+01  1.00870213753E+02  1.34869915235E-06 0.00000000000E+00  1.
</event>
<event>
 9 113   1.0000000E+00   3.1250000E+01   7.8125000E-03   1.5660620E-01
       -2   -1    0    0    0  501  0.00000000000E+00  0.00000000000E+00  7.98735112130E+02  7.98735112130E+02  0.00000000000E+00 0.00000000000E+00  1.
        1   -1    0    0  501    0  0.00000000000E+00  0.00000000000E+00 -7.94495223215E+01  7.94495223215E+01  0.00000000000E+00 0.00000000000E+00  1.
       25    1    1    2    0    0 -2.50687584891E+01  3.34996270427E+01  1.47395869756E+02  1.97740259142E+02  1.25000000000E+02 0.00000000000E+00  1.
       -6    2    1    2    0  502  6.80580517257E+01  8.80787913499E+01  4.78700089607E+02  5.21341583460E+02  1.73935329835E+02 0.00000000000E+00  1.
        5    1    1    2  502    0 -4.29892932366E+01 -1.21578418393E+02  9.31896304452E+01  1.59102791850E+02  0.00000000000E+00 0.00000000000E+00  1.
       -5    1    4    4    0  502  2.76321797087E+01  8.76902737833E+01  3.65538332707E+02  3.76953520543E+02  4.75000000001E+00 0.00000000000E+00  1.
      -24    2    4    4    0    0  4.04258720170E+01  3.88517566609E-01  1.13161756900E+02  1.44388062917E+02  8.00495310043E+01 0.00000000000E+00  1.
        3    1    7    7  704    0  2.62078473793E+01  3.78432631550E+01  4.00352575119E+01  6.10064396152E+01  1.58148993986E-06 0.00000000000E+00  1.
       -4    1    7    7    0  704  1.42180246377E+01 -3.74547455884E+01  7.31264993880E+01  8.33816233018E+01  0.00000000000E+00 0.00000000000E+00  1.
</event>
<event>
 9 113   1.0000000E+00   3.1250000E+01   7.8125000E-03   1.5660620E-01
        1   -1    0    0  501    0  0.00000000000E+00  0.00000000000E+00  1.74580510300E+03  1.74580510300E+03  0.00000000000E+00 0.00000000000E+00  1.
       -2   -1    0    0    0  501  0.00000000000E+00  0.00000000000E+00 -5.02889404302E+01  5.02889404302E+01  0.00000000000E+00 0.00000000000E+00  1.
       25    1    1    2    0    0  1.60066355443E+02 -3.38155493269E+00  5.84534427602E+02  6.18819981990E+02  1.25000000000E+02 0.00000000000E+00  1.
       -6    2    1    2    0  502 -1.56106946116E+02  1.24636015184E+02  6.72865598978E+02  7.22670861201E+02  1.72050993702E+02 0.00000000000E+00  1.
        5    1    1    2  502    0 -3.95940932770E+00 -1.21254460251E+02  4.38116135991E+02  4.54603200240E+02  7.62939453125E-06 0.00000000000E+00  1.
       -5    1    4    4    0  502 -1.12675562994E+02  7.21002175176E+00  3.31838069986E+02  3.50552184563E+02  4.75000000000E+00 0.00000000000E+00  1.
      -24    2    4    4    0    0 -4.34313831220E+01  1.17425993432E+02  3.41027528992E+02  3.72118676638E+02  8.06063583041E+01 0.00000000000E+00  1.
        1    1    7    7  704    0 -2.70849302753E+01  9.21027989029E+01  3.23073608217E+02  3.37035718196E+02  0.00000000000E+00 0.00000000000E+00  1.
       -2    1    7    7    0  704 -1.63464528468E+01  2.53231945288E+01  1.79539207749E+01  3.50829584415E+01  5.21259572722E-06 0.00000000000E+00  1.
</event>
<event>
 9 113   1.0000000E+00   3.1250000E+01   7.8125000E-03   1.5660620E-01
       -2   -1    0    0    0  501  0.00000000000E+00  0.00000000000E+00  1.01405017495E+02  1.01405017495E+02  0.00000000000E+00 0.00000000000E+00  1.
        1   -1    0    0  501    0  0.00000000000E+00  0.00000000000E+00 -9.85598729762E+02  9.85598729762E+02  0.00000000000E+00 0.00000000000E+00  1.
       25    1    1    2    0    0  1.05165027953E+02 -1.68017605601E+01 -1.96793656923E+02  2.56309823587E+02  1.25000000000E+02 0.00000000000E+00  1.
       -6    2    1    2    0  502  3.75594296604E+01 -1.52955482036E+02 -2.70576010711E+02  3.58539207078E+02  1.74736645264E+02 0.00000000000E+00  1.
        5    1    1    2  502    0 -1.42724457614E+02  1.69757242596E+02 -4.16824044633E+02  4.72154716591E+02  1.07895932188E-05 0.00000000000E+00  1.
       -5    1    4    4    0  502  5.50289971990E+01 -1.71366975539E+01 -1.51770804917E+02  1.62415506221E+02  4.75000000000E+00 0.00000000000E+00  1.
      -24    2    4    4    0    0 -1.74695675386E+01 -1.35818784482E+02 -1.18805205794E+02  1.96123700857E+02  7.48191225945E+01 0.00000000000E+00  1.
        3    1    7    7  704    0 -3.74194047821E+01 -2.92968820641E+01 -3.23482450014E+01  5.74885041343E+01  1.34869915235E-06 0.00000000000E+00  1.
       -4    1    7    7    0  704  1.99498372435E+01 -1.06521902418E+02 -8.64569607927E+01  1.38635196723E+02  2.86102294922E-06 0.00000000000E+00  1.
</event>
<event>
 9 113   1.0000000E+00   3.1250000E+01   7.8125000E-03   1.5660620E-01
        1   -1    0    0  501    0  0.00000000000E+00  0.00000000000E+00  4.60660264845E+02  4.60660264845E+02  0.00000000000E+00 0.00000000000E+00  1.
       -2   -1    0    0    0  501  0.00000000000E+00  0.00000000000E+00 -2.40981271599E+02  2.40981271599E+02  0.00000000000E+00 0.00000000000E+00  1.
       25    1    1    2    0    0 -1.04662356339E+02  3.56136361413E+01 -8.13489378617E+01  1.85648026127E+02  1.25000000000E+02 0.00000000000E+00  1.
       -6    2    1    2    0  502 -8.22427230050E+01  2.43736394722E+01  5.28074769297E+01  1.99535968470E+02  1.72244109638E+02 0.00000000000E+00  1.
        5    1    1    2  502    0  1.86905079344E+02 -5.99872756135E+01  2.48220454177E+02  3.16457541847E+02  6.03156597170E-06 0.00000000000E+00  1.
       -5    1    4    4    0  502 -5.88820719480E+01 -4.58456147160E+01  5.08775778042E+01  9.04434033460E+01  4.75000000000E+00 0.00000000000E+00  1.
      -24    2    4    4    0    0 -2.33606510570E+01  7.02192541882E+01  1.92989912550E+00  1.09092565124E+02  8.01311398775E+01 0.00000000000E+00  1.
       13    1    7    7    0    0 -9.01570168192E-01 -2.69720039391E+00  2.82427563744E+01  2.83857740847E+01  1.05659999995E-01 0.00000000000E+00  1.
      -14    1    7    7    0    0 -2.24590808888E+01  7.29164545821E+01 -2.63128572489E+01  8.07067910389E+01  1.54512898884E-06 0.00000000000E+00  1.
</event>
<event>
 9 113   1.0000000E+00   3.1250000E+01   7.8125000E-03   1.5660620E-01
        1   -1    0    0  501    0  0.00000000000E+00  0.00000000000E+00  3.66004726542E+02  3.66004726542E+02  0.00000000000E+00 0.00000000000E+00  1.
       -2   -1    0    0    0  501  0.00000000000E+00  0.00000000000E+00 -2.24312973191E+02  2.24312973191E+02  0.00000000000E+00 0.00000000000E+00  1.
       25    1    1    2    0    0 -1.05575000722E+02  1.58488240747E+01  1.51717891828E+01  1.65083158405E+02  1.25000000000E+02 0.00000000000E+00  1.
       -6    2    1    2    0  502  1.29512472376E+02  2.87195069137E+01 -6.45650200059E+01  2.27566107194E+02  1.73261076866E+02 0.00000000000E+00  1.
        5    1    1    2  502    0 -2.39374716540E+01 -4.45683309884E+01  1.91084984174E+02  1.97668434134E+02  0.00000000000E+00 0.00000000000E+00  1.
       -5    1    4    4    0  502  5.03881390458E+01 -5.65316696820E+01 -1.32596941530E+01  7.70271135547E+01  4.75000000000E+00 0.00000000000E+00  1.
      -24    2    4    4    0    0  7.91243333301E+01  8.52511765958E+01 -5.13053258529E+01  1.50538993639E+02  8.06308186060E+01 0.00000000000E+00  1.
        1    1    7    7  704    0 -7.05608675940E+00 -1.02157857179E+01 -1.06053053575E+00  1.24609535433E+01  1.67338116181E-06 0.00000000000E+00  1.
       -2    1    7    7    0  704  8.61804200895E+01  9.54669623137E+01 -5.02447953171E+01  1.38078040096E+02  0.00000000000E+00 0.00000000000E+00  1.
</event>
<event>
 9 113   1.0000000E+00   3.1250000E+01   7.8125000E-03   1.5660620E-01
       -2   -1    0    0    0  501  0.00000000000E+00  0.00000000000E+00  1.58914990645E+02  1.58914990645E+02  0.00000000000E+00 0.00000000000E+00  1.
        1   -1    0    0  501    0  0.00000000000E+00  0.00000000000E+00 -1.60908631952E+03  1.60908631952E+03  0.00000000000E+00 0.00000000000E+00  1.
       25    1    1    2    0    0  5.32631697400E+01  1.41305505427E+02 -1.92971811925E+01  1.96981197876E+02  1.25000000000E+02 0.00000000000E+00  1.
       -6    2    1    2    0  502 -9.99694509002E+00  1.90264133114E+02 -3.18327681509E+02  4.09310152448E+02  1.72921684069E+02 0.00000000000E+00  1.
        5    1    1    2  502    0 -4.32662246500E+01 -3.31569638541E+02 -1.11254646617E+03  1.16170995984E+03  0.00000000000E+00 0.00000000000E+00  1.
       -5    1    4    4    0  502  3.69938178998E+01 -7.48413978004E+00 -5.82108926400E+01  6.95386614266E+01  4.75000000000E+00 0.00000000000E+00  1.
      -24    2    4    4    0    0 -4.69907629898E+01  1.97748272894E+02 -2.60116788869E+02  3.39771491021E+02  8.04450807714E+01 0.00000000000E+00  1.
        1    1    7    7  704    0 -1.30316669688E+01  5.15827714410E-01 -4.09439917009E+01  4.29709306232E+01  1.65181236989E-06 0.00000000000E+00  1.
       -2    1    7    7    0  704 -3.39590960211E+01  1.97232445180E+02 -2.19172797168E+02  2.96800560398E+02  4.67203091199E-06 0.00000000000E+00  1.
</event>
<event>
 9 113   1.0000000E+00   3.1250000E+01   7.8125000E-03   1.5660620E-01
        1   -1    0    0  501    0  0.00000000000E+00  0.00000000000E+00  5.80929436867E+02  5.80929436867E+02  0.00000000000E+00 0.00000000000E+00  1.
       -2   -1    0    0    0  501  0.00000000000E+00  0.00000000000E+00 -8.65092426526E+02  8.65092426526E+02  0.00000000000E+00 0.00000000000E+00  1.
       25    1    1    2    0    0  5.23843359356E+02 -1.72198367723E+02 -4.14792707329E+02  7.01243276646E+02  1.25000000000E+02 0.00000000000E+00  1.
       -6    2    1    2    0  502 -6.06455837652E+01  1.96961213702E+02  4.58091194961E+01  2.73228046796E+02  1.73445909705E+02 0.00000000000E+00  1.
        5    1    1    2  502    0 -4.63197775591E+02 -2.47628459788E+01  8.48205981747E+01  4.71550539951E+02  2.13248059988E-06 0.00000000000E+00  1.
       -5    1    4    4    0  502 -2.55004506094E+01 -1.66730936473E+01 -1.14528228558E+01  3.28936876075E+01  4.75000000000E+00 0.00000000000E+00  1.
      -24    2    4    4    0    0 -3.51451331557E+01  2.13634307349E+02  5.72619423519E+01  2.40334359188E+02  8.72174094048E+01 0.00000000000E+00  1.
        1    1    7    7  704    0 -4.38741150304E+00  1.07344661200E+01  3.14250328133E+01  3.34964301067E+01  1.81574180266E-06 0.00000000000E+00  1.
       -2    1    7    7    0  704 -3.07577216527E+01  2.02899841229E+02  2.58369095386E+01  2.06837929082E+02  1.16800772800E-06 0.00000000000E+00  1.
</event>
<event>
 9 113   1.0000000E+00   3.1250000E+01   7.8125000E-03   1.5660620E-01
       -2   -1    0    0    0  501  0.00000000000E+00  0.00000000000E+00  7.91384693541E+01  7.91384693541E+01  0.00000000000E+00 0.00000000000E+00  1.
        1   -1    0    0  501    0  0.00000000000E+00  0.00000000000E+00 -1.67712801446E+03  1.67712801446E+03  0.00000000000E+00 0.00000000000E+00  1.
       25    1    1    2    0    0 -1.52484902682E+02 -3.55590228424E+01 -2.59999602343E+02  3.28239063596E+02  1.25000000000E+02 0.00000000000E+00  1.
       -6    2    1    2    0  502  1.31719621324E+01 -1.24852032674E+02 -2.94012790739E+02  3.62650446521E+02  1.71202495878E+02 0.00000000000E+00  1.
        5    1    1    2  502    0  1.39312940550E+02  1.60411055516E+02 -1.04397715203E+03  1.06537697370E+03  2.64289979182E-05 0.00000000000E+00  1.
       -5    1    4    4    0  502  6.96436825091E+01 -6.75761972165E+01 -1.13113953179E+02  1.49111078889E+02  4.75000000000E+00 0.00000000000E+00  1.
      -24    2    4    4    0    0 -5.64717203767E+01 -5.72758354572E+01 -1.80898837560E+02  2.13539367632E+02  8.00318409671E+01 0.00000000000E+00  1.
        3    1    7    7  704    0  1.80092898845E+01  1.11170936028E+00 -2.05690416435E+01  2.73615769644E+01  9.83024984745E-07 0.00000000000E+00  1.
       -4    1    7    7    0  704 -7.44810102611E+01 -5.83875448175E+01 -1.60329795916E+02  1.86177790668E+02  1.90734863281E-06 0.00000000000E+00  1.
</event>
<event>
 9 113   1.0000000E+00   3.1250000E+01   7.8125000E-03   1.5660620E-01
       -2   -1    0    0    0  501  0.00000000000E+00  0.00000000000E+00  2.57416499957E+01  2.57416499957E+01  0.00000000000E+00 0.00000000000E+00  1.
        1   -1    0    0  501    0  0.00000000000E+00  0.00000000000E+00 -2.46874622726E+03  2.46874622726E+03  0.00000000000E+00 0.00000000000E+00  1.
       25    1    1    2    0    0  4.72316358725E+01  1.13946081764E+02 -9.14620896570E+02  9.31327504919E+02  1.25000000000E+02 0.00000000000E+00  1.
       -6    2    1    2    0  502  2.62847585342E+00  2.24832848709E+01 -1.00104527216E+03  1.01618249350E+03  1.73270932925E+02 0.00000000000E+00  1.
        5    1    1    2  502    0 -4.98601117259E+01 -1.36429366635E+02 -5.27338408538E+02  5.46977878841E+02  1.07895932188E-05 0.00000000000E+00  1.
       -5    1    4    4    0  502  6.02949818490E+01  4.51819810189E+01 -4.47112104988E+02  4.53440947833E+02  4.75000000001E+00 0.00000000000E+00  1.
      -24    2    4    4    0    0 -5.76665059956E+01 -2.26986961480E+01 -5.53933167171E+02  5.62741545666E+02  7.74302060249E+01 0.00000000000E+00  1.
        1    1    7    7  704    0  1.80927237221E+01  1.49726593381E+00 -1.46358470759E+02  1.47480135679E+02  4.26496119976E-06 0.00000000000E+00  1.
       -2    1    7    7    0  704 -7.57592297177E+01 -2.41959620818E+01 -4.07574696412E+02  4.15261409986E+02  5.39479660939E-06 0.00000000000E+00  1.
</event>
<event>
 9 113   1.0000000E+00   3.1250000E+01   7.8125000E-03   1.5660620E-01
        1   -1    0    0  501    0  0.00000000000E+00  0.00000000000E+00  2.55021209112E+03  2.55021209112E+03  0.00000000000E+00 0.00000000000E+00  1.
       -2   -1    0    0    0  501  0.00000000000E+00  0.00000000000E+00 -3.23977762791E+01  3.23977762791E+01  0.00000000000E+00 0.00000000000E+00  1.
       25    1    1    2    0    0 -7.56044459328E+01  6.75604565896E+01  2.70060010441E+02  3.14384886371E+02  1.25000000000E+02 0.00000000000E+00  1.
       -6    2    1    2    0  502 -3.86109899394E+01 -6.04387149171E+01  1.30290817250E+03  1.31647391170E+03  1.74327873331E+02 0.00000000000E+00  1.
        5    1    1    2  502    0  1.14215435872E+02 -7.12174167247E+00  9.44846131899E+02  9.51751069324E+02  1.86881236479E-05 0.00000000000E+00  1.
       -5    1    4    4    0  502 -1.40077652568E+00 -3.59745587889E+01  9.76017114172E+02  9.76692428921E+02  4.75000000004E+00 0.00000000000E+00  1.
      -24    2    4    4    0    0 -3.72102134138E+01 -2.44641561282E+01  3.26891058329E+02  3.39781482782E+02  8.13055785837E+01 0.00000000000E+00  1.
        1    1    7    7  704    0 -1.80501384237E+01  1.46143442298E+01  2.52712388672E+02  2.53777339301E+02  5.39479660939E-06 0.00000000000E+00  1.
       -2    1    7    7    0  704 -1.91600749901E+01 -3.90785003580E+01  7.41786696573E+01  8.60041434815E+01  2.33601545599E-06 0.00000000000E+00  1.
</event>
<event>
 9 113   1.0000000E+00   3.1250000E+01   7.8125000E-03   1.5660620E-01
       -2   -1    0    0    0  501  0.00000000000E+00  0.00000000000E+00  1.05413858545E+02  1.05413858545E+02  0.00000000000E+00 0.00000000000E+00  1.
        1   -1    0    0  501    0  0.00000000000E+00  0.00000000000E+00 -1.17679066902E+03  1.17679066902E+03  0.00000000000E+00 0.00000000000E+00  1.
       25    1    1    2    0    0 -3.99496378378E+01  1.54084647865E+02 -7.95744521382E+01  2.17474471385E+02  1.25000000000E+02 0.00000000000E+00  1.
       -6    2    1    2    0  502  6.63908245097E+01 -3.40232178462E+01 -2.53664364889E+02  3.16424249240E+02  1.73819948684E+02 0.00000000000E+00  1.
        5    1    1    2  502    0 -2.64411866719E+01 -1.20061430019E+02 -7.38137993446E+02  7.48305806940E+02  1.07895932188E-05 0.00000000000E+00  1.
       -5    1    4    4    0  502 -2.58158634464E+01  1.91687745600E+01 -1.24764579862E+02  1.28928909139E+02  4.75000000000E+00 0.00000000000E+00  1.
      -24    2    4    4    0    0  9.22066879560E+01 -5.31919924062E+01 -1.28899785027E+02  1.87495340100E+02  8.48992733742E+01 0.00000000000E+00  1.
        3    1    7    7  704    0  4.38829341596E+01 -3.15305244845E+01 -1.22831843631E+02  1.34192204299E+02  2.69739830470E-06 0.00000000000E+00  1.
       -4    1    7    7    0  704  4.83237537964E+01 -2.16614679217E+01 -6.06794139546E+00  5.33031358016E+01  1.77417708232E-06 0.00000000000E+00  1.
</event>
<event>
 9 113   1.0000000E+00   3.1250000E+01   7.8125000E-03   1.5660620E-01
       -2   -1    0    0    0  501  0.00000000000E+00  0.00000000000E+00  4.79241636475E+02  4.79241636475E+02  0.00000000000E+00 0.00000000000E+00  1.
        1   -1    0    0  501    0  0.00000000000E+00  0.00000000000E+00 -1.11677117585E+03  1.11677117585E+03  0.00000000000E+00 0.00000000000E+00  1.
       25    1    1    2    0    0  1.33814185308E+01  7.58117156793E+01  2.10016582412E+02  2.56239035832E+02  1.25000000000E+02 0.00000000000E+00  1.
       -6    2    1    2    0  502 -1.62552019049E+01  1.28313928811E+02  1.86103212307E+02  2.86157867709E+02  1.74708968588E+02 0.00000000000E+00  1.
        5    1    1    2  502    0  2.87378337412E+00 -2.04125644491E+02 -1.03364933410E+03  1.05361590879E+03  1.52587890625E-05 0.00000000000E+00  1.
       -5    1    4    4    0  502 -3.23938182631E+01 -2.18036747320E+01  6.67195439230E+01  7.74520479701E+01  4.75000000000E+00 0.00000000000E+00  1.
      -24    2    4    4    0    0  1.61386163582E+01  1.50117603543E+02  1.19383668384E+02  2.08705819739E+02  8.06840076134E+01 0.00000000000E+00  1.
        3    1    7    7  704    0 -8.81911819138E+00 -2.05096642221E+00 -5.22129582658E+00  1.04520447304E+01  5.15054492647E-06 0.00000000000E+00  1.
       -4    1    7    7    0  704  2.49577345495E+01  1.52168569966E+02  1.24604964211E+02  1.98253775009E+02  2.33601545599E-06 0.00000000000E+00  1.
</event>
<event>
 9 113   1.0000000E+00   3.1250000E+01   7.8125000E-03   1.5660620E-01
        1   -1    0    0  501    0  0.00000000000E+00  0.00000000000E+00  2.23673583851E+02  2.23673583851E+02  0.00000000000E+00 0.00000000000E+00  1.
       -2   -1    0    0    0  501  0.00000000000E+00  0.00000000000E+00 -1.35626515551E+02  1.35626515551E+02  0.00000000000E+00 0.00000000000E+00  1.
       25    1    1    2    0    0 -2.29651634151E+00  4.81499602064E+00  4.90358889010E+00  1.25209837305E+02  1.25000000000E+02 0.00000000000E+00  1.
       -6    2    1    2    0  502 -9.54812117535E+00  5.96118265656E+00  2.47341113273E+01  1.73525621054E+02  1.71384545926E+02 0.00000000000E+00  1.
        5    1    1    2  502    0  1.18446375169E+01 -1.07761786772E+01  5.84093680833E+01  6.05646410431E+01  1.34869915235E-06 0.00000000000E+00  1.
       -5    1    4    4    0  502 -2.70670049673E+01 -5.04057977802E+01 -2.43545833601E+01  6.23624521519E+01  4.75000000000E+00 0.00000000000E+00  1.
      -24    2    4    4    0    0  1.75188837919E+01  5.63669804367E+01  4.90886946874E+01  1.11163168902E+02  8.03952884277E+01 0.00000000000E+00  1.
        3    1    7    7  704    0  2.03886147448E+01 -4.73970527839E+00 -1.24801794163E+01  2.43703774202E+01  5.59141130426E-07 0.00000000000E+00  1.
       -4    1    7    7    0  704 -2.86973095285E+00  6.11066857151E+01  6.15688741037E+01  8.67927914819E+01  0.00000000000E+00 0.00000000000E+00  1.
</event>
<event>
 9 113   1.0000000E+00   3.1250000E+01   7.8125000E-03   1.5660620E-01
        1   -1    0    0  501    0  0.00000000000E+00  0.00000000000E+00  4.06647321810E+02  4.06647321810E+02  0.00000000000E+00 0.00000000000E+00  1.
       -2   -1    0    0    0  501  0.00000000000E+00  0.00000000000E+00 -1.82380645448E+02  1.82380645448E+02  0.00000000000E+00 0.00000000000E+00  1.
       25    1    1    2    0    0  7.21925603620E+01 -2.78665701261E+01  2.89240636891E+01  1.49832950190E+02  1.25000000000E+02 0.00000000000E+00  1.
       -6    2    1    2    0  502 -1.70853376835E+01 -1.13475148064E+02  2.09969518279E+01  2.08087473385E+02  1.72310784926E+02 0.00000000000E+00  1.
        5    1    1    2  502    0 -5.51072226785E+01  1.41341718190E+02  1.74345660844E+02  2.31107543684E+02  1.90734863281E-06 0.00000000000E+00  1.
       -5    1    4    4    0  502 -4.79053645042E+01 -1.03085151012E+02  3.03769983782E+01  1.17757364262E+02  4.75000000000E+00 0.00000000000E+00  1.
      -24    2    4    4    0    0  3.08200268207E+01 -1.03899970517E+01 -9.38004655026E+00  9.03301091226E+01  8.37479387737E+01 0.00000000000E+00  1.
        1    1    7    7  704    0  8.11251639099E+00 -1.48104820684E+01  3.57938201967E+01  3.95772771368E+01  1.06624029994E-06 0.00000000000E+00  1.
       -2    1    7    7    0  704  2.27075104297E+01  4.42048501672E+00 -4.51738667470E+01  5.07528319857E+01  1.34869915235E-06 0.00000000000E+00  1.
</event>
<event>
 9 113   1.0000000E+00   3.1250000E+01   7.8125000E-03   1.5660620E-01
        1   -1    0    0  501    0  0.00000000000E+00  0.00000000000E+00  5.27915850506E+02  5.27915850506E+02  0.00000000000E+00 0.00000000000E+00  1.
       -2   -1    0    0    0  501  0.00000000000E+00  0.00000000000E+00 -2.79030789560E+02  2.79030789560E+02  0.00000000000E+00 0.00000000000E+00  1.
       25    1    1    2    0    0 -3.29661245417E+01 -1.05785013629E+02  1.19305508537E+02  2.05270647787E+02  1.25000000000E+02 0.00000000000E+00  1.
       -6    2    1    2    0  502 -2.29568269035E+02  9.91453040392E+01 -1.59117356503E+01  3.01449230555E+02  1.67591986115E+02 0.00000000000E+00  1.
        5    1    1    2  502    0  2.62534393576E+02  6.63970958979E+00  1.45491288060E+02  3.00226761724E+02  9.14732269919E-06 0.00000000000E+00  1.
       -5    1    4    4    0  502 -4.31574985172E+01  2.71246453001E+01 -6.45230811294E+01  8.23656879978E+01  4.75000000000E+00 0.00000000000E+00  1.
      -24    2    4    4    0    0 -1.86410770517E+02  7.20206587392E+01  4.86113454791E+01  2.19083542557E+02  7.54889731015E+01 0.00000000000E+00  1.
        3    1    7    7  704    0 -2.50783000912E+01 -2.61103214634E+00  3.17258933540E+01  4.05249421153E+01  0.00000000000E+00 0.00000000000E+00  1.
       -4    1    7    7    0  704 -1.61332470426E+02  7.46316908855E+01  1.68854521251E+01  1.78558600442E+02  1.48892354927E-06 0.00000000000E+00  1.
</event>
<event>
 9 113   1.0000000E+00   3.1250000E+01   7.8125000E-03   1.5660620E-01
        1   -1    0    0  501    0  0.00000000000E+00  0.00000000000E+00  4.61970210780E+02  4.61970210780E+02  0.00000000000E+00 0.00000000000E+00  1.
       -2   -1    0    0    0  501  0.00000000000E+00  0.00000000000E+00 -1.29693647330E+02  1.29693647330E+02  0.00000000000E+00 0.00000000000E+00  1.
       25    1    1    2    0    0 -2.23617549888E+01 -2.76868102589E+01 -1.47988744926E+01  1.30807546551E+02  1.25000000000E+02 0.00000000000E+00  1.
       -6    2    1    2    0  502  2.85709471482E+01 -7.60306378296E+01  1.74220598234E+02  2.59176717360E+02  1.73847050774E+02 0.00000000000E+00  1.
        5    1    1    2  502    0 -6.20919215941E+00  1.03717448089E+02  1.72854839709E+02  2.01679594198E+02  1.90734863281E-06 0.00000000000E+00  1.
       -5    1    4    4    0  502 -5.58845429960E+01 -1.59727311270E+01  7.39123866782E+01  9.41478289181E+01  4.75000000000E+00 0.00000000000E+00  1.
      -24    2    4    4    0    0  8.44554901441E+01 -6.00579067026E+01  1.00308211556E+02  1.65028888442E+02  8.02067001064E+01 0.00000000000E+00  1.
        1    1    7    7  704    0  3.93495650203E+01 -1.17862640853E+01 -4.30404910020E+00  4.13016843122E+01  2.38716416293E-06 0.00000000000E+00  1.
       -2    1    7    7    0  704  4.51059251239E+01 -4.82716426174E+01  1.04612260656E+02  1.23727204130E+02  0.00000000000E+00 0.00000000000E+00  1.
</event>
<event>
 9 113   1.0000000E+00   3.1250000E+01   7.8125000E-03   1.5660620E-01
        1   -1    0    0  501    0  0.00000000000E+00  0.00000000000E+00  5.87251676082E+02  5.87251676082E+02  0.00000000000E+00 0.00000000000E+00  1.
       -2   -1    0    0    0  501  0.00000000000E+00  0.00000000000E+00 -2.39221509554E+02  2.39221509554E+02  0.00000000000E+00 0.00000000000E+00  1.
       25    1    1    2    0    0  2.68649710883E+02 -1.71687852627E+01  1.85353683713E+02  3.49926309972E+02  1.25000000000E+02 0.00000000000E+00  1.
       -6    2    1    2    0  502  2.60793778824E+00  3.89949439132E+00  5.58799964675E+01  1.84721113368E+02  1.76003716787E+02 0.00000000000E+00  1.
        5    1    1    2  502    0 -2.71257648671E+02  1.32692908714E+01  1.06796486347E+02  2.91825762295E+02  2.69739830470E-06 0.00000000000E+00  1.
       -5    1    4    4    0  502  3.55302926132E+01  2.16154936481E+01  8.26152500022E+01  9.26146494447E+01  4.75000000000E+00 0.00000000000E+00  1.
      -24    2    4    4    0    0 -3.29223548249E+01 -1.77159992568E+01 -2.67352535348E+01  9.21064639237E+01  7.98191007096E+01 0.00000000000E+00  1.
       11    1    7    7    0    0  1.96547995700E+01 -2.73759699321E+01 -3.72119227861E+00  3.39057834019E+01  5.11001696770E-04 0.00000000000E+00  1.
      -12    1    7    7    0    0 -5.25771543949E+01  9.65997067528E+00 -2.30140612561E+01  5.82006805219E+01  1.58148993986E-06 0.00000000000E+00  1.
</event>
<event>
 9 113   1.0000000E+00   3.1250000E+01   7.8125000E-03   1.5660620E-01
        1   -1    0    0  501    0  0.00000000000E+00  0.00000000000E+00  1.41153490457E+03  1.41153490457E+03  0.00000000000E+00 0.00000000000E+00  1.
       -2   -1    0    0    0  501  0.00000000000E+00  0.00000000000E+00 -5.79590619564E+01  5.79590619564E+01  0.00000000000E+00 0.00000000000E+00  1.
       25    1    1    2    0    0  6.92143094580E+01 -6.87605098706E+01  2.94432897130E+02  3.34416445863E+02  1.25000000000E+02 0.00000000000E+00  1.
       -6    2    1    2    0  502  1.16547367008E+02  6.76540491354E+01  6.37070718289E+02  6.73933736505E+02  1.73687138203E+02 0.00000000000E+00  1.
        5    1    1    2  502    0 -1.85761676466E+02  1.10646073518E+00  4.22072227194E+02  4.61143784158E+02  1.07895932188E-05 0.00000000000E+00  1.
       -5    1    4    4    0  502  7.86123599774E+01  9.75935302208E+01  3.27115655502E+02  3.50330722114E+02  4.75000000000E+00 0.00000000000E+00  1.
      -24    2    4    4    0    0  3.79350070306E+01 -2.99394810854E+01  3.09955062786E+02  3.23603014391E+02  7.94438964915E+01 0.00000000000E+00  1.
       11    1    7    7    0    0  3.41212119090E+01  2.01105935850E+01  1.79653521068E+02  1.83967607770E+02  5.11002157370E-04 0.00000000000E+00  1.
      -12    1    7    7    0    0  3.81379512156E+00 -5.00500746704E+01  1.30301541719E+02  1.39635406621E+02  1.90734863281E-06 0.00000000000E+00  1.
</event>
<event>
 9 113   1.0000000E+00   3.1250000E+01   7.8125000E-03   1.5660620E-01
       -2   -1    0    0    0  501  0.00000000000E+00  0.00000000000E+00  9.99652933393E+02  9.99652933393E+02  0.00000000000E+00 0.00000000000E+00  1.
        1   -1    0    0  501    0  0.00000000000E+00  0.00000000000E+00 -1.05914840233E+02  1.05914840233E+02  0.00000000000E+00 0.00000000000E+00  1.
       25    1    1    2    0    0  2.14412536880E+01 -1.39712897849E+02  2.35377406769E+02  3.01673573258E+02  1.25000000000E+02 0.00000000000E+00  1.
       -6    2    1    2    0  502  9.86337683480E+01 -5.53560403706E+01  4.38329312594E+02  4.86272244214E+02  1.77581524237E+02 0.00000000000E+00  1.
        5    1    1    2  502    0 -1.20075022036E+02  1.95068938220E+02  2.20031373798E+02  3.17621956153E+02  7.13664510112E-06 0.00000000000E+00  1.
       -5    1    4    4    0  502  6.95030126429E+01 -4.69096179684E+01  3.62247003292E+02  3.71855664094E+02  4.74999999999E+00 0.00000000000E+00  1.
      -24    2    4    4    0    0  2.91307557051E+01 -8.44642240221E+00  7.60823093012E+01  1.14416580120E+02  7.98917582640E+01 0.00000000000E+00  1.
       11    1    7    7    0    0 -6.59134856531E+00  6.37877404304E+00  7.51720362937E+01  7.57295825619E+01  5.10997707787E-04 0.00000000000E+00  1.
      -12    1    7    7    0    0  3.57221042704E+01 -1.48251964453E+01  9.10273007470E-01  3.86869975585E+01  1.64112462520E-06 0.00000000000E+00  1.
</event>
<event>
 9 113   1.0000000E+00   3.1250000E+01   7.8125000E-03   1.5660620E-01
       -2   -1    0    0    0  501  0.00000000000E+00  0.00000000000E+00  8.62689224116E+01  8.62689224116E+01  0.00000000000E+00 0.00000000000E+00  1.
        1   -1    0    0  501    0  0.00000000000E+00  0.00000000000E+00 -1.61413225657E+03  1.61413225657E+03  0.00000000000E+00 0.00000000000E+00  1.
       25    1    1    2    0    0 -9.51966996220E+01  3.68444712836E+01 -6.39505797383E+01  1.73593212229E+02  1.25000000000E+02 0.00000000000E+00  1.
       -6    2    1    2    0  502  1.49070409131E+02  4.92431914855E+01 -4.42283592590E+02  5.00143656202E+02  1.72864171471E+02 0.00000000000E+00  1.
        5    1    1    2  502    0 -5.38737095094E+01 -8.60876627691E+01 -1.02162916183E+03  1.02666431055E+03  1.86881236479E-05 0.00000000000E+00  1.
       -5    1    4    4    0  502  1.69010498247E+01 -4.19224443990E+01 -1.49067732357E+02  1.55842510759E+02  4.75000000000E+00 0.00000000000E+00  1.
      -24    2    4    4    0    0  1.32169359307E+02  9.11656358845E+01 -2.93215860233E+02  3.44301145443E+02  8.23882598148E+01 0.00000000000E+00  1.
        1    1    7    7  704    0  9.82334496749E+01  2.30523924873E+01 -1.33120383288E+02  1.67039695525E+02  1.90734863281E-06 0.00000000000E+00  1.
       -2    1    7    7    0  704  3.39359096318E+01  6.81132433973E+01 -1.60095476945E+02  1.77261449918E+02  2.69739830470E-06 0.00000000000E+00  1.
</event>
<event>
 9 113   1.0000000E+00   3.1250000E+01   7.8125000E-03   1.5660620E-01
       -2   -1    0    0    0  501  0.00000000000E+00  0.00000000000E+00  1.97965899792E+03  1.97965899792E+03  0.00000000000E+00 0.00000000000E+00  1.
        1   -1    0    0  501    0  0.00000000000E+00  0.00000000000E+00 -3.20380915572E+01  3.20380915572E+01  0.00000000000E+00 0.00000000000E+00  1.
       25    1    1    2    0    0 -9.43704221372E+01 -6.02131753591E+00  6.40599382360E+02  6.59495717589E+02  1.25000000000E+02 0.00000000000E+00  1.
       -6    2    1    2    0  502 -6.16418157233E+00  9.48676941865E+01  9.53899897186E+02  9.74450437392E+02  1.74902157065E+02 0.00000000000E+00  1.
        5    1    1    2  502    0  1.00534603710E+02 -8.88463766506E+01  3.53121626818E+02  3.77750934498E+02  7.62939453125E-06 0.00000000000E+00  1.
       -5    1    4    4    0  502 -2.95244819346E+01  1.11442692749E+02  5.34275956016E+02  5.46593567907E+02  4.75000000001E+00 0.00000000000E+00  1.
      -24    2    4    4    0    0  2.33603003623E+01 -1.65749985628E+01  4.19623941171E+02  4.27856869485E+02  7.84653716700E+01 0.00000000000E+00  1.
        1    1    7    7  704    0 -1.86760226205E+01  3.37933095583E+00  3.02405462579E+01  3.57030017871E+01  2.43140197448E-06 0.00000000000E+00  1.
       -4    1    7    7    0  704  4.20363229828E+01 -1.99543295186E+01  3.89383394913E+02  3.92153867698E+02  5.39479660939E-06 0.00000000000E+00  1.
</event>
<event>
 9 113   1.0000000E+00   3.1250000E+01   7.8125000E-03   1.5660620E-01
       -2   -1    0    0    0  501  0.00000000000E+00  0.00000000000E+00  3.31167757387E+02  3.31167757387E+02  0.00000000000E+00 0.00000000000E+00  1.
        1   -1    0    0  501    0  0.00000000000E+00  0.00000000000E+00 -4.67303338239E+02  4.67303338239E+02  0.00000000000E+00 0.00000000000E+00  1.
       25    1    1    2    0    0 -1.15234424806E+02 -5.44349795704E+01  1.29192444086E+02  2.20358406397E+02  1.25000000000E+02 0.00000000000E+00  1.
       -6    2    1    2    0  502  3.50158786389E+01 -1.69527510192E+02 -3.48685292408E+01  2.46894043729E+02  1.72554820358E+02 0.00000000000E+00  1.
        5    1    1    2  502    0  8.02185461667E+01  2.23962489762E+02 -2.30459495697E+02  3.31218645499E+02  6.03156597170E-06 0.00000000000E+00  1.
       -5    1    4    4    0  502  5.91999652710E+01 -8.54797397203E+01  3.40554103958E+01  1.09516004620E+02  4.75000000000E+00 0.00000000000E+00  1.
      -24    2    4    4    0    0 -2.41840866321E+01 -8.40477704714E+01 -6.89239396366E+01  1.37378039109E+02  8.04569351075E+01 0.00000000000E+00  1.
        3    1    7    7  704    0 -2.99519447184E+01 -1.13067450121E+01 -5.41831131153E+01  6.29346583533E+01  6.74349576174E-07 0.00000000000E+00  1.
       -4    1    7    7    0  704  5.76785808627E+00 -7.27410254593E+01 -1.47408265213E+01  7.44433807554E+01  1.31670963969E-06 0.00000000000E+00  1.
</event>
<event>
 9 113   1.0000000E+00   3.1250000E+01   7.8125000E-03   1.5660620E-01
       -2   -1    0    0    0  501  0.00000000000E+00  0.00000000000E+00  4.04031220759E+02  4.04031220759E+02  0.00000000000E+00 0.00000000000E+00  1.
        1   -1    0    0  501    0  0.00000000000E+00  0.00000000000E+00 -4.41648173650E+02  4.41648173650E+02  0.00000000000E+00 0.00000000000E+00  1.
       25    1    1    2    0    0 -1.69797807744E+02  1.54492499768E+01  1.13425765751E+01  2.11715915516E+02  1.25000000000E+02 0.00000000000E+00  1.
       -6    2    1    2    0  502  2.90669612785E+02 -2.13135304740E+02 -1.48815395872E+01  3.99760406974E+02  1.72254000941E+02 0.00000000000E+00  1.
        5    1    1    2  502    0 -1.20871805041E+02  1.97686054764E+02 -3.40779898788E+01  2.34203071918E+02  4.26496119976E-06 0.00000000000E+00  1.
       -5    1    4    4    0  502  1.90085736357E+02 -1.56840355976E+02 -5.68786232775E+01  2.52960915390E+02  4.75000000000E+00 0.00000000000E+00  1.
      -24    2    4    4    0    0  1.00583876428E+02 -5.62949487641E+01  4.19970836903E+01  1.46799491584E+02  8.06231867210E+01 0.00000000000E+00  1.
        3    1    7    7  704    0 -9.48109109840E+00 -6.25234603705E+00 -1.00503954630E+01  1.51655322474E+01  2.08871548986E-06 0.00000000000E+00  1.
       -4    1    7    7    0  704  1.10064967527E+02 -5.00426027271E+01  5.20474791533E+01  1.31633959336E+02  6.74349576174E-07 0.00000000000E+00  1.
</event>
<event>
 9 113   1.0000000E+00   3.1250000E+01   7.8125000E-03   1.5660620E-01
        3   -1    0    0  501    0  0.00000000000E+00  0.00000000000E+00  2.68153309483E+02  2.68153309483E+02  0.00000000000E+00 0.00000000000E+00  1.
       -4   -1    0    0    0  501  0.00000000000E+00  0.00000000000E+00 -1.75734443651E+02  1.75734443651E+02  0.00000000000E+00 0.00000000000E+00  1.
       25    1    1    2    0    0  4.88349695292E+01  3.77760141413E+01  1.77096279994E+01  1.40536516312E+02  1.25000000000E+02 0.00000000000E+00  1.
       -6    2    1    2    0  502  2.37394823943E+01 -6.87676439481E+00 -2.50642334250E+01  1.76164129481E+02  1.72611505427E+02 0.00000000000E+00  1.
        5    1    1    2  502    0 -7.25744519235E+01 -3.08992497464E+01  9.97734712576E+01  1.27187107341E+02  3.56832255056E-06 0.00000000000E+00  1.
       -5    1    4    4    0  502 -4.69434343808E+00  5.79916960851E+01 -4.19093924452E+01  7.18612089397E+01  4.75000000000E+00 0.00000000000E+00  1.
      -24    2    4    4    0    0  2.84338258324E+01 -6.48684604800E+01  1.68451590202E+01  1.04302920541E+02  7.46923037170E+01 0.00000000000E+00  1.
        1    1    7    7  704    0  2.46749751075E+01 -5.91774643259E+01  4.30482254954E+01  7.72267855016E+01  1.50789149292E-06 0.00000000000E+00  1.
       -2    1    7    7    0  704  3.75885072490E+00 -5.69099615402E+00 -2.62030664752E+01  2.70761350399E+01  1.34869915235E-06 0.00000000000E+00  1.
</event>
<event>
 9 113   1.0000000E+00   3.1250000E+01   7.8125000E-03   1.5660620E-01
        3   -1    0    0  501    0  0.00000000000E+00  0.00000000000E+00  4.23680718406E+02  4.23680718406E+02  0.00000000000E+00 0.00000000000E+00  1.
       -4   -1    0    0    0  501  0.00000000000E+00  0.00000000000E+00 -5.47593919148E+02  5.47593919148E+02  0.00000000000E+00 0.00000000000E+00  1.
       25    1    1    2    0    0  1.90455501907E+02 -2.35922486015E+02 -3.02012662228E+02  4.45835581532E+02  1.25000000000E+02 0.00000000000E+00  1.
       -6    2    1    2    0  502 -1.52352628717E+02  1.30809755938E+02 -5.08917555421E+01  2.70610697227E+02  1.74119679951E+02 0.00000000000E+00  1.
        5    1    1    2  502    0 -3.81028731898E+01  1.05112730078E+02  2.28991217028E+02  2.54828358795E+02  2.69739830470E-06 0.00000000000E+00  1.
       -5    1    4    4    0  502 -9.49200702645E+01  1.00066860208E+01 -6.16536156605E+01  1.13726357227E+02  4.75000000000E+00 0.00000000000E+00  1.
      -24    2    4    4    0    0 -5.74325584522E+01  1.20803069917E+02  1.07618601185E+01  1.56884340000E+02  8.12711389870E+01 0.00000000000E+00  1.
       11    1    7    7    0    0  5.44294390690E+00  4.02598579273E+01 -2.60681677320E+01  4.82703963923E+01  5.10999821343E-04 0.00000000000E+00  1.
      -12    1    7    7    0    0 -6.28755023591E+01  8.05432119896E+01  3.68300278505E+01  1.08613943608E+02  2.28683067480E-06 0.00000000000E+00  1.
</event>
</LesHouchesEvents>
