<LesHouchesEvents version="1.0">
<!--
Output from the JHUGenerator v7.4.1 described in arXiv:1001.3396 [hep-ph], arXiv:1208.4018 [hep-ph], arXiv:1309.4819 [hep-ph], arXiv:1606.03107 [hep-ph]
   
   Command line: ./JHUGen Seed=765543533 PDFSet=3 Process=114 VegasNc0=100000 VegasNc2=100 DataFile=compare_to_reference/tqH_114 TopDK=1 DecayMode1=11 ghg2=0.383432074687728,0.918260989345657 ghg3=6294.49296087723,2253.12941717723 ghg4=0.335495485382528,0.17285803562226 ghz1=0.154934976270359,0.453918144016304 ghz2=0.469297059144414,0.745302300947002 ghz3=3947.40921062637,3597.4885961919 ghz4=0.177791270766536,0.920170534486048 ghzgs2=0.0240331049939919,0.232175381101053 ghzgs3=0.331962910170583,0.0450183240308457 ghzgs4=0.808286540247172,0.133184346613754 ghgsgs2=0.530394804029869,0.211218112389125 ghgsgs3=0.914978695198138,0.055650585081425 ghgsgs4=0.694524307167701,0.511424456076726 ghz1_prime=0.143354267833606,0.0910761280837012 ghz1_prime2=7416.7007267243,4861.35525489789 ghz1_prime3=4431.44656075298,4436.48625894176 ghz1_prime4=2441.69123517064,6946.16318931911 ghz1_prime5=78314042.889773,69465359.939181 ghz1_prime6=51233058.8130761,29537873.5850789 ghz1_prime7=47832192.9001564,59559649.9633293 g
   
   Input Parameter:
    Collider: P-P, sqrt(s)=13000.00
    Resonance: spin=0, mass= 125.00 width=   0.00407
    Top quark mass=173.2000, width=2.0000
    Top quark decay= 1
    Random seed:   765543533
    To reproduce results using this seed, JHUGen should be compiled with the same compiler:
      GNU Fortran (GCC) 6.3.0
    
    WidthScheme:   2
    PDFSet:   3
    Unweighted: T
    
    
    LHE output: compare_to_reference/tqH_114.lhe
    Histogram output: compare_to_reference/tqH_114.dat
    Log file: compare_to_reference/tqH_114.log
    
-->
<init>
2212 2212   6500.0000000000000000    6500.0000000000000000 0 0  263000  263000  3  1
 4.2915581E+09  5.5724062E+07  1.0000000E+00 114
</init>
<event>
 9 114   1.0000000E+00   7.4550000E+01   7.8125000E-03   1.3429423E-01
        2   -1    0    0  502    0  0.00000000000E+00  0.00000000000E+00  1.96680752305E+03  1.96680752305E+03  0.00000000000E+00 0.00000000000E+00  1.
        5   -1    0    0  501    0  0.00000000000E+00  0.00000000000E+00 -2.24721695684E+02  2.24721695684E+02  0.00000000000E+00 0.00000000000E+00  1.
       25    1    1    2    0    0 -1.34879924458E+02 -3.51493516581E+02  4.82040593702E+02  6.24282324111E+02  1.25000000000E+02 0.00000000000E+00  1.
        6    2    1    2  501    0  1.21871892677E+01  3.86017515790E+02  1.48400674297E+02  4.48319265079E+02  1.72653853795E+02 0.00000000000E+00  1.
        1    1    1    2  502    0  1.22692735190E+02 -3.45239992085E+01  1.11164455936E+03  1.11892762954E+03  1.52587890625E-05 0.00000000000E+00  1.
        5    1    4    4  501    0 -5.48524521170E+01  8.88717522978E+01  1.78643961204E+01  1.06059789781E+02  4.75000000000E+00 0.00000000000E+00  1.
       24    2    4    4    0    0  6.70396413847E+01  2.97145763492E+02  1.30536278177E+02  3.42259475297E+02  8.55097084102E+01 0.00000000000E+00  1.
      -11    1    7    7    0    0  4.35737174130E+01  1.08060009023E+02  1.03248750760E+01  1.16971096622E+02  5.10991867650E-04 0.00000000000E+00  1.
       12    1    7    7    0    0  2.34659239717E+01  1.89085754468E+02  1.20211403101E+02  2.25288378675E+02  2.33601545599E-06 0.00000000000E+00  1.
</event>
<event>
 9 114   1.0000000E+00   7.4550000E+01   7.8125000E-03   1.3429423E-01
        5   -1    0    0  501    0  0.00000000000E+00  0.00000000000E+00  3.16017398714E+01  3.16017398714E+01  0.00000000000E+00 0.00000000000E+00  1.
        2   -1    0    0  502    0  0.00000000000E+00  0.00000000000E+00 -2.36512767725E+03  2.36512767725E+03  0.00000000000E+00 0.00000000000E+00  1.
       25    1    1    2    0    0 -6.39278487153E+01  7.19280534709E+00 -2.54526475252E+02  2.90770068773E+02  1.25000000000E+02 0.00000000000E+00  1.
        6    2    1    2  501    0 -3.75697029206E+01  1.34973993786E+01 -6.70828370761E+02  6.93983548230E+02  1.73230481814E+02 0.00000000000E+00  1.
        1    1    1    2  502    0  1.01497551636E+02 -2.06902047257E+01 -1.40817109136E+03  1.41197580011E+03  0.00000000000E+00 0.00000000000E+00  1.
        5    1    4    4  501    0  2.97715552490E+01 -5.41184437789E+00 -2.43299473431E+01  3.91170346426E+01  4.74999999999E+00 0.00000000000E+00  1.
       24    2    4    4    0    0 -6.73412581695E+01  1.89092437565E+01 -6.46498423418E+02  6.54866513588E+02  7.74437511093E+01 0.00000000000E+00  1.
       -3    1    7    7    0  703  1.01250986171E+01  8.80803167934E+00 -2.41016406053E+01  2.75860131939E+01  5.64201334295E-06 0.00000000000E+00  1.
        4    1    7    7  703    0 -7.74663567867E+01  1.01012120771E+01 -6.22396782812E+02  6.27280500394E+02  0.00000000000E+00 0.00000000000E+00  1.
</event>
<event>
 9 114   1.0000000E+00   7.4550000E+01   7.8125000E-03   1.3429423E-01
        5   -1    0    0  501    0  0.00000000000E+00  0.00000000000E+00  2.04187086194E+02  2.04187086194E+02  0.00000000000E+00 0.00000000000E+00  1.
        2   -1    0    0  502    0  0.00000000000E+00  0.00000000000E+00 -7.16907727379E+02  7.16907727379E+02  0.00000000000E+00 0.00000000000E+00  1.
       25    1    1    2    0    0 -1.15564241582E+02  3.40563498780E+01 -2.44530510131E+02  2.99891812633E+02  1.25000000000E+02 0.00000000000E+00  1.
        6    2    1    2  501    0  4.86779235052E+01 -2.45075648074E+02 -2.54376378608E+02  3.99406374469E+02  1.79962486250E+02 0.00000000000E+00  1.
        1    1    1    2  502    0  6.68863180770E+01  2.11019298196E+02 -1.38137524464E+01  2.21796626470E+02  6.90797004435E-06 0.00000000000E+00  1.
        5    1    4    4  501    0  9.26312921621E+01 -1.36126026473E+02 -1.58507565878E+02  2.28600223778E+02  4.75000000000E+00 0.00000000000E+00  1.
       24    2    4    4    0    0 -4.39533686569E+01 -1.08949621600E+02 -9.58688127306E+01  1.70806150691E+02  7.86256522792E+01 0.00000000000E+00  1.
       -1    1    7    7    0  703 -6.49445633113E+00  8.75792552669E+00  4.35107978936E+00  1.17392980157E+01  2.61921555313E-06 0.00000000000E+00  1.
        2    1    7    7  703    0 -3.74589123257E+01 -1.17707547127E+02 -1.00219892520E+02  1.59066852675E+02  2.33601545599E-06 0.00000000000E+00  1.
</event>
<event>
 9 114   1.0000000E+00   7.4550000E+01   7.8125000E-03   1.3429423E-01
        5   -1    0    0  501    0  0.00000000000E+00  0.00000000000E+00  1.01238561990E+03  1.01238561990E+03  0.00000000000E+00 0.00000000000E+00  1.
        2   -1    0    0  502    0  0.00000000000E+00  0.00000000000E+00 -2.60436217956E+03  2.60436217956E+03  0.00000000000E+00 0.00000000000E+00  1.
       25    1    1    2    0    0  1.33514206194E+02 -4.43668809356E+01 -9.82231221704E+02  1.00009881325E+03  1.25000000000E+02 0.00000000000E+00  1.
        6    2    1    2  501    0 -8.57080301241E+01 -5.98956633888E+01  9.91319324313E+02  1.01148103195E+03  1.71599878579E+02 0.00000000000E+00  1.
        1    1    1    2  502    0 -4.78061760697E+01  1.04262544324E+02 -1.60106466226E+03  1.60516795425E+03  4.82525277736E-05 0.00000000000E+00  1.
        5    1    4    4  501    0 -8.86627236200E+01 -7.46928462733E+01  4.93894847945E+02  5.07340894439E+02  4.75000000000E+00 0.00000000000E+00  1.
       24    2    4    4    0    0  2.95469349583E+00  1.47971828845E+01  4.97424476368E+02  5.04140137516E+02  8.06131610186E+01 0.00000000000E+00  1.
       -1    1    7    7    0  703  1.73955306673E+01  2.35454164705E-01  4.67722685292E+02  4.68046119803E+02  0.00000000000E+00 0.00000000000E+00  1.
        2    1    7    7  703    0 -1.44408371715E+01  1.45617287198E+01  2.97017910758E+01  3.60940177125E+01  6.20804622950E-06 0.00000000000E+00  1.
</event>
<event>
 9 114   1.0000000E+00   7.4550000E+01   7.8125000E-03   1.3429423E-01
        5   -1    0    0  501    0  0.00000000000E+00  0.00000000000E+00  1.98364060422E+02  1.98364060422E+02  0.00000000000E+00 0.00000000000E+00  1.
        2   -1    0    0  502    0  0.00000000000E+00  0.00000000000E+00 -1.08428805484E+03  1.08428805484E+03  0.00000000000E+00 0.00000000000E+00  1.
       25    1    1    2    0    0 -1.28428579230E+02  2.76406730315E+02 -7.92831514593E+02  8.58546091400E+02  1.25000000000E+02 0.00000000000E+00  1.
        6    2    1    2  501    0  1.09537911791E+02 -3.00453478444E+02 -1.20246435959E+02  3.83210538217E+02  1.73551906965E+02 0.00000000000E+00  1.
        1    1    1    2  502    0  1.88906674385E+01  2.40467481285E+01  2.71539561379E+01  4.08954856405E+01  3.53631901126E-06 0.00000000000E+00  1.
        5    1    4    4  501    0 -3.65899194887E+00 -6.81694909941E+01  2.94809913239E+01  7.45128114750E+01  4.75000000000E+00 0.00000000000E+00  1.
       24    2    4    4    0    0  1.13196903740E+02 -2.32283987450E+02 -1.49727427283E+02  3.08697726742E+02  7.81447002231E+01 0.00000000000E+00  1.
       -3    1    7    7    0  703  5.58619516165E+01 -5.81753072640E+01 -7.69493320956E+01  1.11472524523E+02  1.90734863281E-06 0.00000000000E+00  1.
        2    1    7    7  703    0  5.73349521238E+01 -1.74108680186E+02 -7.27780951876E+01  1.97225202219E+02  3.81469726562E-06 0.00000000000E+00  1.
</event>
<event>
 9 114   1.0000000E+00   7.4550000E+01   7.8125000E-03   1.3429423E-01
        2   -1    0    0  502    0  0.00000000000E+00  0.00000000000E+00  3.41588556298E+02  3.41588556298E+02  0.00000000000E+00 0.00000000000E+00  1.
        5   -1    0    0  501    0  0.00000000000E+00  0.00000000000E+00 -7.19884464409E+02  7.19884464409E+02  0.00000000000E+00 0.00000000000E+00  1.
       25    1    1    2    0    0 -1.06401948151E+02  8.66811691352E+00 -1.68199149853E+02  2.35186021762E+02  1.25000000000E+02 0.00000000000E+00  1.
        6    2    1    2  501    0  1.48177684632E+02  5.40686557438E+01 -4.86051336445E+02  5.40223991858E+02  1.75259846978E+02 0.00000000000E+00  1.
        1    1    1    2  502    0 -4.17757364817E+01 -6.27367726573E+01  2.75954578186E+02  2.86063007088E+02  1.00927402918E-05 0.00000000000E+00  1.
        5    1    4    4  501    0  3.72984805345E+00 -3.09407461036E+01 -1.95287796368E+01  3.70833826673E+01  4.75000000000E+00 0.00000000000E+00  1.
       24    2    4    4    0    0  1.44447836579E+02  8.50094018474E+01 -4.66522556808E+02  5.03140609191E+02  8.61127209628E+01 0.00000000000E+00  1.
      -15    1    7    7    0    0  5.33852059674E+01 -8.33983418740E+00 -9.38193374797E+01  1.08280922391E+02  1.77679999999E+00 0.00000000000E+00  1.
       16    1    7    7    0    0  9.10626306115E+01  9.33492360348E+01 -3.72703219328E+02  3.94859686800E+02  5.39479660939E-06 0.00000000000E+00  1.
</event>
<event>
 9 114   1.0000000E+00   7.4550000E+01   7.8125000E-03   1.3429423E-01
        5   -1    0    0  501    0  0.00000000000E+00  0.00000000000E+00  7.09040172169E+01  7.09040172169E+01  0.00000000000E+00 0.00000000000E+00  1.
        2   -1    0    0  502    0  0.00000000000E+00  0.00000000000E+00 -1.17449431553E+03  1.17449431553E+03  0.00000000000E+00 0.00000000000E+00  1.
       25    1    1    2    0    0 -9.73319007620E+01 -6.28424541263E+01 -5.53131678422E+02  5.78793855030E+02  1.25000000000E+02 0.00000000000E+00  1.
        6    2    1    2  501    0  2.38465293168E+01  3.40592086896E+01 -9.24698627926E+01  2.01865543838E+02  1.74557542395E+02 0.00000000000E+00  1.
        1    1    1    2  502    0  7.34853714452E+01  2.87832454367E+01 -4.57988757102E+02  4.64738933882E+02  0.00000000000E+00 0.00000000000E+00  1.
        5    1    4    4  501    0  3.54313319160E+01  2.16904495469E+01  3.23747332936E+01  5.28823291726E+01  4.75000000000E+00 0.00000000000E+00  1.
       24    2    4    4    0    0 -1.15848025992E+01  1.23687591427E+01 -1.24844596086E+02  1.48983214665E+02  7.95149748544E+01 0.00000000000E+00  1.
       -1    1    7    7    0  703  3.10935484617E+01  7.95620318459E+00 -8.32608808155E+01  8.92327529510E+01  1.90734863281E-06 0.00000000000E+00  1.
        2    1    7    7  703    0 -4.26783510608E+01  4.41255595816E+00 -4.15837152708E+01  5.97504617144E+01  6.74349576174E-07 0.00000000000E+00  1.
</event>
<event>
 9 114   1.0000000E+00   7.4550000E+01   7.8125000E-03   1.3429423E-01
        5   -1    0    0  501    0  0.00000000000E+00  0.00000000000E+00  1.13679636635E+03  1.13679636635E+03  0.00000000000E+00 0.00000000000E+00  1.
        2   -1    0    0  502    0  0.00000000000E+00  0.00000000000E+00 -2.83914143776E+03  2.83914143776E+03  0.00000000000E+00 0.00000000000E+00  1.
       25    1    1    2    0    0  2.13399825186E+02 -2.52861444923E+01 -2.18478993646E+03  2.19888856948E+03  1.25000000000E+02 0.00000000000E+00  1.
        6    2    1    2  501    0 -1.41036607716E+02 -1.45481065765E+02  1.10020809088E+03  1.13204591797E+03  1.73245640434E+02 0.00000000000E+00  1.
        1    1    1    2  502    0 -7.23632174701E+01  1.70767210257E+02 -6.17763225823E+02  6.45003316675E+02  4.03709611674E-05 0.00000000000E+00  1.
        5    1    4    4  501    0  2.79847095930E+01  1.08689693948E+00  1.00477834539E+02  1.04415913776E+02  4.74999999997E+00 0.00000000000E+00  1.
       24    2    4    4    0    0 -1.69021317309E+02 -1.46567962704E+02  9.99730256342E+02  1.02763000419E+03  8.06998554436E+01 0.00000000000E+00  1.
       -3    1    7    7    0  703  6.70454705865E-01  8.10937404865E+00  2.95891450656E+01  3.06876027524E+01  1.70264921869E-05 0.00000000000E+00  1.
        4    1    7    7  703    0 -1.69691772015E+02 -1.54677336753E+02  9.70141111276E+02  9.96942401437E+02  1.07895932188E-05 0.00000000000E+00  1.
</event>
<event>
 9 114   1.0000000E+00   7.4550000E+01   7.8125000E-03   1.3429423E-01
        2   -1    0    0  502    0  0.00000000000E+00  0.00000000000E+00  2.62117993915E+03  2.62117993915E+03  0.00000000000E+00 0.00000000000E+00  1.
        5   -1    0    0  501    0  0.00000000000E+00  0.00000000000E+00 -9.77098457943E+01  9.77098457943E+01  0.00000000000E+00 0.00000000000E+00  1.
       25    1    1    2    0    0  2.26970118855E+02  1.37941623216E+02  2.27946541729E+03  2.29828869268E+03  1.25000000000E+02 0.00000000000E+00  1.
        6    2    1    2  501    0 -1.86259415887E+02 -1.55253851530E+02  2.13131659869E+02  3.66654658518E+02  1.73822339626E+02 0.00000000000E+00  1.
        1    1    1    2  502    0 -4.07107029682E+01  1.73122283133E+01  3.08730162003E+01  5.39464337527E+01  1.26159253648E-06 0.00000000000E+00  1.
        5    1    4    4  501    0 -9.58201001371E+01 -8.61874448451E+01  2.33502647785E+01  1.31063208432E+02  4.75000000000E+00 0.00000000000E+00  1.
       24    2    4    4    0    0 -9.04393157498E+01 -6.90664066847E+01  1.89781395091E+02  2.35591450086E+02  8.08511908723E+01 0.00000000000E+00  1.
      -13    1    7    7    0    0 -9.01864104497E+01 -2.60526404552E+01  1.07302534863E+02  1.42569891129E+02  1.05659999995E-01 0.00000000000E+00  1.
       14    1    7    7    0    0 -2.52905300104E-01 -4.30137662294E+01  8.24788602282E+01  9.30215589574E+01  2.52318507296E-06 0.00000000000E+00  1.
</event>
<event>
 9 114   1.0000000E+00   7.4550000E+01   7.8125000E-03   1.3429423E-01
        2   -1    0    0  502    0  0.00000000000E+00  0.00000000000E+00  2.73385086156E+03  2.73385086156E+03  0.00000000000E+00 0.00000000000E+00  1.
        5   -1    0    0  501    0  0.00000000000E+00  0.00000000000E+00 -1.45326653577E+02  1.45326653577E+02  0.00000000000E+00 0.00000000000E+00  1.
       25    1    1    2    0    0  4.65428607371E+02  1.43628244820E+02  1.74028240539E+03  1.81148025432E+03  1.25000000000E+02 0.00000000000E+00  1.
        6    2    1    2  501    0 -4.21856658862E+02 -1.67694625621E+02  4.37062121075E+02  6.53515614831E+02  1.73132414818E+02 0.00000000000E+00  1.
        1    1    1    2  502    0 -4.35719485087E+01  2.40663808009E+01  4.11179681515E+02  4.14181645987E+02  5.39479660939E-06 0.00000000000E+00  1.
        5    1    4    4  501    0 -3.03985839560E+02 -1.60906954223E+02  3.04730498619E+02  4.59545077070E+02  4.74999999999E+00 0.00000000000E+00  1.
       24    2    4    4    0    0 -1.17870819302E+02 -6.78767139746E+00  1.32331622456E+02  1.93970537761E+02  7.85704059523E+01 0.00000000000E+00  1.
       -3    1    7    7    0  703 -2.59312369312E+01 -1.46197857369E+01  8.54181210806E+01  9.04567443185E+01  1.34869915235E-06 0.00000000000E+00  1.
        4    1    7    7  703    0 -9.19395823708E+01  7.83211433943E+00  4.69135013756E+01  1.03513793443E+02  2.33601545599E-06 0.00000000000E+00  1.
</event>
<event>
 9 114   1.0000000E+00   7.4550000E+01   7.8125000E-03   1.3429423E-01
        5   -1    0    0  501    0  0.00000000000E+00  0.00000000000E+00  4.14230910052E+02  4.14230910052E+02  0.00000000000E+00 0.00000000000E+00  1.
        2   -1    0    0  502    0  0.00000000000E+00  0.00000000000E+00 -1.61625515373E+03  1.61625515373E+03  0.00000000000E+00 0.00000000000E+00  1.
       25    1    1    2    0    0  5.63024750194E+01 -1.05942567912E+02 -1.21681586614E+03  1.22908895060E+03  1.25000000000E+02 0.00000000000E+00  1.
        6    2    1    2  501    0 -5.28046297348E+01  1.49229546097E+02  3.72598678793E+02  4.40964197149E+02  1.74819510866E+02 0.00000000000E+00  1.
        1    1    1    2  502    0 -3.49784528456E+00 -4.32869781844E+01 -3.57807056333E+02  3.60432916038E+02  1.32144989591E-05 0.00000000000E+00  1.
        5    1    4    4  501    0 -6.31587084913E+01  1.03123774977E+02  1.13697647727E+02  1.66051958804E+02  4.75000000000E+00 0.00000000000E+00  1.
       24    2    4    4    0    0  1.03540787565E+01  4.61057711197E+01  2.58901031066E+02  2.74912238345E+02  7.94609704680E+01 0.00000000000E+00  1.
       -1    1    7    7    0  703  2.38644608180E+01  1.79471250092E+01  2.50241659734E+01  3.89592180221E+01  1.68587394044E-06 0.00000000000E+00  1.
        2    1    7    7  703    0 -1.35103820615E+01  2.81586461104E+01  2.33876865092E+02  2.35953020323E+02  2.69739830470E-06 0.00000000000E+00  1.
</event>
<event>
 9 114   1.0000000E+00   7.4550000E+01   7.8125000E-03   1.3429423E-01
        2   -1    0    0  502    0  0.00000000000E+00  0.00000000000E+00  3.72775885005E+02  3.72775885005E+02  0.00000000000E+00 0.00000000000E+00  1.
        5   -1    0    0  501    0  0.00000000000E+00  0.00000000000E+00 -3.46675046953E+02  3.46675046953E+02  0.00000000000E+00 0.00000000000E+00  1.
       25    1    1    2    0    0  1.16546100172E+02  5.02597221617E+01  2.21890194021E+02  2.84551034684E+02  1.25000000000E+02 0.00000000000E+00  1.
        6    2    1    2  501    0 -6.74759954403E+01 -5.77992014304E+01 -2.78088566387E+02  3.38786011902E+02  1.71898090329E+02 0.00000000000E+00  1.
        1    1    1    2  502    0 -4.90701047316E+01  7.53947926875E+00  8.22992104169E+01  9.61138853718E+01  3.93209993898E-06 0.00000000000E+00  1.
        5    1    4    4  501    0  2.40401774801E+00  3.14723763395E+01 -1.39034971590E+02  1.42651938644E+02  4.75000000000E+00 0.00000000000E+00  1.
       24    2    4    4    0    0 -6.98800131883E+01 -8.92715777699E+01 -1.39053594797E+02  1.96134073258E+02  7.92467136618E+01 0.00000000000E+00  1.
       -1    1    7    7    0  703  9.71449576289E+00 -3.98322110742E+01 -6.43445558098E+01  7.62967779749E+01  1.90734863281E-06 0.00000000000E+00  1.
        2    1    7    7  703    0 -7.95945089512E+01 -4.94393666957E+01 -7.47090389869E+01  1.19837295283E+02  1.34869915235E-06 0.00000000000E+00  1.
</event>
<event>
 9 114   1.0000000E+00   7.4550000E+01   7.8125000E-03   1.3429423E-01
        5   -1    0    0  501    0  0.00000000000E+00  0.00000000000E+00  2.08930512885E+03  2.08930512885E+03  0.00000000000E+00 0.00000000000E+00  1.
        2   -1    0    0  502    0  0.00000000000E+00  0.00000000000E+00 -1.11840758766E+03  1.11840758766E+03  0.00000000000E+00 0.00000000000E+00  1.
       25    1    1    2    0    0  1.98775705875E+02 -1.69607331310E+02 -1.07254451787E+03  1.11097037355E+03  1.25000000000E+02 0.00000000000E+00  1.
        6    2    1    2  501    0 -2.44127876340E+02  6.40813281967E+00  1.24922116027E+03  1.28466006030E+03  1.73661967830E+02 0.00000000000E+00  1.
        1    1    1    2  502    0  4.53521704653E+01  1.63199198491E+02  7.94220898783E+02  8.12082282665E+02  1.52587890625E-05 0.00000000000E+00  1.
        5    1    4    4  501    0 -1.69569357353E+02  5.62545547763E+01  7.67135245308E+02  7.87678480714E+02  4.75000000000E+00 0.00000000000E+00  1.
       24    2    4    4    0    0 -7.45585189865E+01 -4.98464219567E+01  4.82085914966E+02  4.96981579581E+02  8.08716421228E+01 0.00000000000E+00  1.
       -1    1    7    7    0  703 -5.69232666353E+01 -3.45516819449E+00  1.37760781071E+02  1.49098052546E+02  3.81469726562E-06 0.00000000000E+00  1.
        2    1    7    7  703    0 -1.76352523512E+01 -4.63912537622E+01  3.44325133895E+02  3.47883527036E+02  3.81469726562E-06 0.00000000000E+00  1.
</event>
<event>
 9 114   1.0000000E+00   7.4550000E+01   7.8125000E-03   1.3429423E-01
        5   -1    0    0  501    0  0.00000000000E+00  0.00000000000E+00  7.10936263025E+02  7.10936263025E+02  0.00000000000E+00 0.00000000000E+00  1.
        2   -1    0    0  502    0  0.00000000000E+00  0.00000000000E+00 -5.95565377712E+02  5.95565377712E+02  0.00000000000E+00 0.00000000000E+00  1.
       25    1    1    2    0    0 -3.53783443083E+01 -1.10563848987E+02 -2.35377505607E+02  2.90694963999E+02  1.25000000000E+02 0.00000000000E+00  1.
        6    2    1    2  501    0  1.73550846823E+02  5.04042557491E+01  6.41167680008E+02  6.88615325103E+02  1.74455113565E+02 0.00000000000E+00  1.
        1    1    1    2  502    0 -1.38172502515E+02  6.01595932383E+01 -2.90419289088E+02  3.27191351634E+02  1.26519195189E-05 0.00000000000E+00  1.
        5    1    4    4  501    0  6.29600133800E+01  7.77101451185E+01  3.71594189103E+02  3.84847546198E+02  4.74999999999E+00 0.00000000000E+00  1.
       24    2    4    4    0    0  1.10590833443E+02 -2.73058893693E+01  2.69573490905E+02  3.03767778905E+02  8.14189932784E+01 0.00000000000E+00  1.
       -3    1    7    7    0  703  4.37853104683E+01  2.50191029686E+01  6.48193702916E+01  8.21258771105E+01  9.53674316406E-07 0.00000000000E+00  1.
        4    1    7    7  703    0  6.68055229748E+01 -5.23249923379E+01  2.04754120613E+02  2.21641901795E+02  3.81469726562E-06 0.00000000000E+00  1.
</event>
<event>
 9 114   1.0000000E+00   7.4550000E+01   7.8125000E-03   1.3429423E-01
        2   -1    0    0  502    0  0.00000000000E+00  0.00000000000E+00  1.25711861739E+03  1.25711861739E+03  0.00000000000E+00 0.00000000000E+00  1.
        5   -1    0    0  501    0  0.00000000000E+00  0.00000000000E+00 -1.46664633060E+02  1.46664633060E+02  0.00000000000E+00 0.00000000000E+00  1.
       25    1    1    2    0    0  5.94783552182E+01 -3.07055198223E+02  3.03501288745E+02  4.53385709706E+02  1.25000000000E+02 0.00000000000E+00  1.
        6    2    1    2  501    0 -1.30835304384E+02  3.45734183731E+02  5.77981266144E+02  7.07465876250E+02  1.72614076398E+02 0.00000000000E+00  1.
        1    1    1    2  502    0  7.13569491663E+01 -3.86789855078E+01  2.28971429441E+02  2.42931664495E+02  7.13664510112E-06 0.00000000000E+00  1.
        5    1    4    4  501    0 -1.30440775910E+02  1.75016875884E+02  2.77126378489E+02  3.52799227633E+02  4.75000000000E+00 0.00000000000E+00  1.
       24    2    4    4    0    0 -3.94528474049E-01  1.70717307848E+02  3.00854887655E+02  3.54666648617E+02  7.82956790862E+01 0.00000000000E+00  1.
       -1    1    7    7    0  703 -7.87939531626E+00  1.49280605230E+02  2.95766016172E+02  3.31397526078E+02  3.81469726562E-06 0.00000000000E+00  1.
        4    1    7    7  703    0  7.48486684222E+00  2.14367026171E+01  5.08887148320E+00  2.32691225385E+01  2.87588550611E-06 0.00000000000E+00  1.
</event>
<event>
 9 114   1.0000000E+00   7.4550000E+01   7.8125000E-03   1.3429423E-01
        2   -1    0    0  502    0  0.00000000000E+00  0.00000000000E+00  1.21400548181E+03  1.21400548181E+03  0.00000000000E+00 0.00000000000E+00  1.
        5   -1    0    0  501    0  0.00000000000E+00  0.00000000000E+00 -4.03904096867E+02  4.03904096867E+02  0.00000000000E+00 0.00000000000E+00  1.
       25    1    1    2    0    0 -2.64881084710E+02  3.24509239813E+02 -1.25284579273E+02  4.54741092892E+02  1.25000000000E+02 0.00000000000E+00  1.
        6    2    1    2  501    0  1.33349949780E+02 -4.07476785929E+02  4.19343509390E+02  6.24202931831E+02  1.73091828407E+02 0.00000000000E+00  1.
        1    1    1    2  502    0  1.31531134930E+02  8.29675461164E+01  5.16042454825E+02  5.38965553952E+02  7.62939453125E-06 0.00000000000E+00  1.
        5    1    4    4  501    0  1.10913175608E+02 -1.31089707954E+02  1.31058535803E+02  2.16067457897E+02  4.75000000000E+00 0.00000000000E+00  1.
       24    2    4    4    0    0  2.24367741715E+01 -2.76387077975E+02  2.88284973587E+02  4.08135473934E+02  8.10747394747E+01 0.00000000000E+00  1.
       -3    1    7    7    0  703  2.53959246333E+00 -8.74490942679E+01  1.48179210804E+02  1.72078098934E+02  0.00000000000E+00 0.00000000000E+00  1.
        4    1    7    7  703    0  1.98971817081E+01 -1.88937983707E+02  1.40105762783E+02  2.36057375000E+02  1.90734863281E-06 0.00000000000E+00  1.
</event>
<event>
 9 114   1.0000000E+00   7.4550000E+01   7.8125000E-03   1.3429423E-01
        5   -1    0    0  501    0  0.00000000000E+00  0.00000000000E+00  1.33796109769E+02  1.33796109769E+02  0.00000000000E+00 0.00000000000E+00  1.
        2   -1    0    0  502    0  0.00000000000E+00  0.00000000000E+00 -2.63337605063E+03  2.63337605063E+03  0.00000000000E+00 0.00000000000E+00  1.
       25    1    1    2    0    0  7.31455317848E+01 -4.79601903405E+01 -2.23596025475E+02  2.70685484069E+02  1.25000000000E+02 0.00000000000E+00  1.
        6    2    1    2  501    0  2.93047504666E+01  5.43355798392E+01  3.17724740365E+01  1.86448525380E+02  1.73038836316E+02 0.00000000000E+00  1.
        1    1    1    2  502    0 -1.02450282251E+02 -6.37538949872E+00 -2.30775638942E+03  2.31003815095E+03  3.05175781250E-05 0.00000000000E+00  1.
        5    1    4    4  501    0 -2.63394103398E+01  6.70522067204E+01  4.75382997924E+01  8.64419771307E+01  4.75000000000E+00 0.00000000000E+00  1.
       24    2    4    4    0    0  5.56441608064E+01 -1.27166268811E+01 -1.57658257559E+01  1.00006548249E+02  8.05900936829E+01 0.00000000000E+00  1.
       -1    1    7    7    0  703  7.00433651069E+01  4.74691885940E+00 -2.63933225625E+01  7.50014247200E+01  1.65181236989E-06 0.00000000000E+00  1.
        2    1    7    7  703    0 -1.43992043005E+01 -1.74635457405E+01  1.06274968066E+01  2.50051235288E+01  1.07288360596E-06 0.00000000000E+00  1.
</event>
<event>
 9 114   1.0000000E+00   7.4550000E+01   7.8125000E-03   1.3429423E-01
        5   -1    0    0  501    0  0.00000000000E+00  0.00000000000E+00  5.01531713928E+02  5.01531713928E+02  0.00000000000E+00 0.00000000000E+00  1.
        2   -1    0    0  502    0  0.00000000000E+00  0.00000000000E+00 -1.89947202801E+03  1.89947202801E+03  0.00000000000E+00 0.00000000000E+00  1.
       25    1    1    2    0    0  2.18803150942E+02 -4.31212519320E+02  5.26229292270E+01  5.02208351545E+02  1.25000000000E+02 0.00000000000E+00  1.
        6    2    1    2  501    0 -9.85412205721E+00  5.57597356363E+01  1.52498050484E+02  2.39147837114E+02  1.75299117954E+02 0.00000000000E+00  1.
        1    1    1    2  502    0 -2.08949028885E+02  3.75452783684E+02 -1.60306129379E+03  1.65964755328E+03  2.15791864376E-05 0.00000000000E+00  1.
        5    1    4    4  501    0  4.83602610459E+01 -1.03135076158E+01  7.80471188588E+00  5.02847821452E+01  4.75000000000E+00 0.00000000000E+00  1.
       24    2    4    4    0    0 -5.82143831031E+01  6.60732432522E+01  1.44693338598E+02  1.88863054969E+02  8.35374372589E+01 0.00000000000E+00  1.
      -11    1    7    7    0    0  1.86542201046E+01  2.89400380165E+01  5.61714128437E+01  6.58842420404E+01  5.11003937192E-04 0.00000000000E+00  1.
       12    1    7    7    0    0 -7.68686032077E+01  3.71332052356E+01  8.85219257542E+01  1.22978812929E+02  0.00000000000E+00 0.00000000000E+00  1.
</event>
<event>
 9 114   1.0000000E+00   7.4550000E+01   7.8125000E-03   1.3429423E-01
        2   -1    0    0  502    0  0.00000000000E+00  0.00000000000E+00  3.19907957639E+03  3.19907957639E+03  0.00000000000E+00 0.00000000000E+00  1.
        5   -1    0    0  501    0  0.00000000000E+00  0.00000000000E+00 -1.04188742462E+03  1.04188742462E+03  0.00000000000E+00 0.00000000000E+00  1.
       25    1    1    2    0    0  1.12841664834E+02  2.64884195885E+02  2.39552685917E+03  2.41600306530E+03  1.25000000000E+02 0.00000000000E+00  1.
        6    2    1    2  501    0 -2.65093444653E+01 -2.11461524205E+02 -1.00989770141E+03  1.04675014431E+03  1.74280738261E+02 0.00000000000E+00  1.
        1    1    1    2  502    0 -8.63323203692E+01 -5.34226716802E+01  7.71562994017E+02  7.78213791400E+02  2.41262638868E-05 0.00000000000E+00  1.
        5    1    4    4  501    0  9.49840916754E+00 -2.17269530797E+01 -4.22354224637E+02  4.23046018579E+02  4.75000000000E+00 0.00000000000E+00  1.
       24    2    4    4    0    0 -3.60077536328E+01 -1.89734571125E+02 -5.87543476777E+02  6.23704125731E+02  8.06457286475E+01 0.00000000000E+00  1.
       -1    1    7    7    0  703  1.11878562888E+01 -1.21987279058E+01 -1.47392766848E+01  2.21635594625E+01  3.19872089982E-06 0.00000000000E+00  1.
        2    1    7    7  703    0 -4.71956099216E+01 -1.77535843219E+02 -5.72804200093E+02  6.01540566269E+02  0.00000000000E+00 0.00000000000E+00  1.
</event>
<event>
 9 114   1.0000000E+00   7.4550000E+01   7.8125000E-03   1.3429423E-01
        5   -1    0    0  501    0  0.00000000000E+00  0.00000000000E+00  5.70610150406E+02  5.70610150406E+02  0.00000000000E+00 0.00000000000E+00  1.
        2   -1    0    0  502    0  0.00000000000E+00  0.00000000000E+00 -4.28037460392E+03  4.28037460392E+03  0.00000000000E+00 0.00000000000E+00  1.
       25    1    1    2    0    0  3.97376176669E+02  7.69301914829E+02 -6.58302469907E+02  1.09486090616E+03  1.25000000000E+02 0.00000000000E+00  1.
        6    2    1    2  501    0 -5.00603445057E+02  2.67952708744E+01  6.82902860039E+01  5.34745133742E+02  1.73109789308E+02 0.00000000000E+00  1.
        1    1    1    2  502    0  1.03227268387E+02 -7.96097185703E+02 -3.11975226961E+03  3.22137871443E+03  0.00000000000E+00 0.00000000000E+00  1.
        5    1    4    4  501    0  7.77063546762E+00 -3.09149569387E+00  1.34324605537E+01  1.65207027006E+01  4.75000000000E+00 0.00000000000E+00  1.
       24    2    4    4    0    0 -5.08374080524E+02  2.98867665683E+01  5.48578254502E+01  5.18224431041E+02  7.88020009263E+01 0.00000000000E+00  1.
       -1    1    7    7    0  703 -1.45113926185E+02 -2.07801329458E+01 -4.56538861829E+00  1.46665293343E+02  3.17363250541E-06 0.00000000000E+00  1.
        2    1    7    7  703    0 -3.63260154339E+02  5.06668995141E+01  5.94232140685E+01  3.71559137698E+02  2.61174467805E-06 0.00000000000E+00  1.
</event>
<event>
 9 114   1.0000000E+00   7.4550000E+01   7.8125000E-03   1.3429423E-01
        2   -1    0    0  502    0  0.00000000000E+00  0.00000000000E+00  2.78901480911E+03  2.78901480911E+03  0.00000000000E+00 0.00000000000E+00  1.
        5   -1    0    0  501    0  0.00000000000E+00  0.00000000000E+00 -1.52111637531E+02  1.52111637531E+02  0.00000000000E+00 0.00000000000E+00  1.
       25    1    1    2    0    0 -5.31780114008E+01  9.17734704341E+01  2.18926802962E+02  2.73503593810E+02  1.25000000000E+02 0.00000000000E+00  1.
        6    2    1    2  501    0  9.44980351964E+01 -2.58608292226E+02  9.52206599315E+01  3.38516740101E+02  1.72390492159E+02 0.00000000000E+00  1.
        1    1    1    2  502    0 -4.13200237956E+01  1.66834821792E+02  2.32275570868E+03  2.32910611273E+03  3.05175781250E-05 0.00000000000E+00  1.
        5    1    4    4  501    0  5.40458270494E+01 -2.17240311438E+02  7.53772448017E+01  2.36259594237E+02  4.75000000000E+00 0.00000000000E+00  1.
       24    2    4    4    0    0  4.04522081470E+01 -4.13679807876E+01  1.98434151298E+01  1.02257145864E+02  8.19455415366E+01 0.00000000000E+00  1.
       -3    1    7    7    0  703  9.90219305985E+00 -8.89605750959E+00 -3.15363506111E+01  3.42306102264E+01  8.25906184945E-07 0.00000000000E+00  1.
        4    1    7    7  703    0  3.05500150871E+01 -3.24719232780E+01  5.13797657408E+01  6.80265356371E+01  6.74349576174E-07 0.00000000000E+00  1.
</event>
<event>
 9 114   1.0000000E+00   7.4550000E+01   7.8125000E-03   1.3429423E-01
        5   -1    0    0  501    0  0.00000000000E+00  0.00000000000E+00  5.72074088977E+02  5.72074088977E+02  0.00000000000E+00 0.00000000000E+00  1.
        2   -1    0    0  502    0  0.00000000000E+00  0.00000000000E+00 -7.51183871104E+02  7.51183871104E+02  0.00000000000E+00 0.00000000000E+00  1.
       25    1    1    2    0    0  3.92077238617E+01 -5.20135516310E+02 -3.50075615042E+02  6.40512402053E+02  1.25000000000E+02 0.00000000000E+00  1.
        6    2    1    2  501    0  3.79266170241E+00  5.16276004569E+02  2.43561207162E+02  5.98282445655E+02  1.79065702939E+02 0.00000000000E+00  1.
        1    1    1    2  502    0 -4.30003855642E+01  3.85951174130E+00 -7.25953742468E+01  8.44631123721E+01  6.39744179964E-06 0.00000000000E+00  1.
        5    1    4    4  501    0  7.29323992192E+00  3.43745197453E+01 -2.22117413884E+01  4.18416408830E+01  4.75000000000E+00 0.00000000000E+00  1.
       24    2    4    4    0    0 -3.50057821951E+00  4.81901484823E+02  2.65772948550E+02  5.56440804772E+02  8.21572511219E+01 0.00000000000E+00  1.
       -3    1    7    7    0  703  2.17746565479E+01  1.66243885584E+02  1.28770197838E+02  2.11407022147E+02  5.39479660939E-06 0.00000000000E+00  1.
        4    1    7    7  703    0 -2.52752347674E+01  3.15657599239E+02  1.37002750712E+02  3.45033782625E+02  3.81469726562E-06 0.00000000000E+00  1.
</event>
<event>
 9 114   1.0000000E+00   7.4550000E+01   7.8125000E-03   1.3429423E-01
        5   -1    0    0  501    0  0.00000000000E+00  0.00000000000E+00  1.06685711591E+03  1.06685711591E+03  0.00000000000E+00 0.00000000000E+00  1.
        4   -1    0    0  502    0  0.00000000000E+00  0.00000000000E+00 -1.04894257359E+02  1.04894257359E+02  0.00000000000E+00 0.00000000000E+00  1.
       25    1    1    2    0    0 -6.25788576980E+01  1.73482097751E+02  6.74339609821E+02  7.10190862406E+02  1.25000000000E+02 0.00000000000E+00  1.
        6    2    1    2  501    0  7.86614047854E+01 -2.04267602935E+02  3.12520486360E+02  4.18825652817E+02  1.72722328757E+02 0.00000000000E+00  1.
        3    1    1    2  502    0 -1.60825470873E+01  3.07855051838E+01 -2.48972376324E+01  4.27348580431E+01  1.21570098724E-06 0.00000000000E+00  1.
        5    1    4    4  501    0  6.76234972977E+01 -1.20078865947E+01  6.09770552646E+01  9.19667901799E+01  4.75000000000E+00 0.00000000000E+00  1.
       24    2    4    4    0    0  1.10379074876E+01 -1.92259716340E+02  2.51543431095E+02  3.26858862637E+02  8.04797143902E+01 0.00000000000E+00  1.
       -3    1    7    7    0  703 -8.32795899616E+00 -6.75681305878E+01  3.57901640112E+01  7.69138674890E+01  1.90734863281E-06 0.00000000000E+00  1.
        4    1    7    7  703    0  1.93658664838E+01 -1.24691585752E+02  2.15753267084E+02  2.49944995148E+02  2.69739830470E-06 0.00000000000E+00  1.
</event>
<event>
 9 114   1.0000000E+00   7.4550000E+01   7.8125000E-03   1.3429423E-01
        5   -1    0    0  501    0  0.00000000000E+00  0.00000000000E+00  5.57813674314E+01  5.57813674314E+01  0.00000000000E+00 0.00000000000E+00  1.
        2   -1    0    0  502    0  0.00000000000E+00  0.00000000000E+00 -3.21126335500E+03  3.21126335500E+03  0.00000000000E+00 0.00000000000E+00  1.
       25    1    1    2    0    0  1.74794984170E+02 -1.93632522753E+00 -1.66542505914E+03  1.67923276036E+03  1.25000000000E+02 0.00000000000E+00  1.
        6    2    1    2  501    0 -8.51693769190E+01 -5.45342363611E+01 -1.67670109661E+02  2.61188966551E+02  1.72854287982E+02 0.00000000000E+00  1.
        1    1    1    2  502    0 -8.96256072508E+01  5.64705615887E+01 -1.32238681877E+03  1.32662299552E+03  1.52587890625E-05 0.00000000000E+00  1.
        5    1    4    4  501    0 -1.06412772888E+02 -1.07062011994E+01 -8.36707800915E+01  1.35873702087E+02  4.75000000000E+00 0.00000000000E+00  1.
       24    2    4    4    0    0  2.12433959685E+01 -4.38280351617E+01 -8.39993295696E+01  1.25315264464E+02  7.92202600414E+01 0.00000000000E+00  1.
      -13    1    7    7    0    0  3.99086889055E+01 -4.31878115561E+00 -1.34600828195E+01  4.23384023596E+01  1.05660000008E-01 0.00000000000E+00  1.
       14    1    7    7    0    0 -1.86652929370E+01 -3.95092540061E+01 -7.05392467502E+01  8.29768621040E+01  9.53674316406E-07 0.00000000000E+00  1.
</event>
<event>
 9 114   1.0000000E+00   7.4550000E+01   7.8125000E-03   1.3429423E-01
        5   -1    0    0  501    0  0.00000000000E+00  0.00000000000E+00  2.97803166476E+02  2.97803166476E+02  0.00000000000E+00 0.00000000000E+00  1.
        2   -1    0    0  502    0  0.00000000000E+00  0.00000000000E+00 -4.08415231265E+03  4.08415231265E+03  0.00000000000E+00 0.00000000000E+00  1.
       25    1    1    2    0    0 -2.48438887221E+02 -2.25018144571E+02 -1.31098323694E+03  1.35891761840E+03  1.25000000000E+02 0.00000000000E+00  1.
        6    2    1    2  501    0  1.84791628463E+02  1.98094105183E+02  1.78715515165E+02  3.68056865539E+02  1.73601268575E+02 0.00000000000E+00  1.
        1    1    1    2  502    0  6.36472587578E+01  2.69240393877E+01 -2.65408142440E+03  2.65498099518E+03  3.05175781250E-05 0.00000000000E+00  1.
        5    1    4    4  501    0  7.08084355488E+01  6.57763073544E+01  1.41325741102E+02  1.71277216091E+02  4.75000000000E+00 0.00000000000E+00  1.
       24    2    4    4    0    0  1.13983192914E+02  1.32317797829E+02  3.73897740633E+01  1.96779649447E+02  8.26079133183E+01 0.00000000000E+00  1.
      -11    1    7    7    0    0 -4.49605376114E+00  2.92842756658E+01 -1.23174287352E+01  3.20858590598E+01  5.10994287143E-04 0.00000000000E+00  1.
       12    1    7    7    0    0  1.18479246675E+02  1.03033522163E+02  4.97072027986E+01  1.64693790387E+02  1.34869915235E-06 0.00000000000E+00  1.
</event>
<event>
 9 114   1.0000000E+00   7.4550000E+01   7.8125000E-03   1.3429423E-01
        5   -1    0    0  501    0  0.00000000000E+00  0.00000000000E+00  4.78271748519E+02  4.78271748519E+02  0.00000000000E+00 0.00000000000E+00  1.
        2   -1    0    0  502    0  0.00000000000E+00  0.00000000000E+00 -3.25616944427E+03  3.25616944427E+03  0.00000000000E+00 0.00000000000E+00  1.
       25    1    1    2    0    0 -3.53036152582E+02 -9.76198909784E+00 -1.33011430532E+03  1.38186789770E+03  1.25000000000E+02 0.00000000000E+00  1.
        6    2    1    2  501    0 -5.76405302256E+01 -1.04027680375E+02  4.02310278562E+02  4.54034380368E+02  1.73636025383E+02 0.00000000000E+00  1.
        1    1    1    2  502    0  4.10676682807E+02  1.13789669473E+02 -1.85009366899E+03  1.89853891472E+03  3.73762472959E-05 0.00000000000E+00  1.
        5    1    4    4  501    0  2.63441903434E+01  2.35186579893E+01  1.08318219346E+02  1.14028692796E+02  4.75000000000E+00 0.00000000000E+00  1.
       24    2    4    4    0    0 -8.39847205690E+01 -1.27546338364E+02  2.93992059217E+02  3.40005687573E+02  7.64920582828E+01 0.00000000000E+00  1.
       -3    1    7    7    0  703 -5.13546633232E+01 -1.24227733275E+02  2.60444621340E+02  2.93089119458E+02  3.81469726562E-06 0.00000000000E+00  1.
        4    1    7    7  703    0 -3.26300572458E+01 -3.31860508925E+00  3.35474378765E+01  4.69165681149E+01  4.76837158203E-07 0.00000000000E+00  1.
</event>
<event>
 9 114   1.0000000E+00   7.4550000E+01   7.8125000E-03   1.3429423E-01
        2   -1    0    0  502    0  0.00000000000E+00  0.00000000000E+00  3.74747131673E+03  3.74747131673E+03  0.00000000000E+00 0.00000000000E+00  1.
        5   -1    0    0  501    0  0.00000000000E+00  0.00000000000E+00 -2.11446293846E+02  2.11446293846E+02  0.00000000000E+00 0.00000000000E+00  1.
       25    1    1    2    0    0 -5.40683327033E+02  2.66280259160E+02  1.69901735683E+03  1.80707736839E+03  1.25000000000E+02 0.00000000000E+00  1.
        6    2    1    2  501    0  2.48373851840E+02 -3.73843569443E+02  2.65747122035E+02  5.50005546530E+02  1.74459117424E+02 0.00000000000E+00  1.
        1    1    1    2  502    0  2.92309475193E+02  1.07563310283E+02  1.57126054402E+03  1.60183469566E+03  2.15791864376E-05 0.00000000000E+00  1.
        5    1    4    4  501    0  1.38253691881E+02 -2.12226712385E+02  7.28463871178E+01  2.63597077724E+02  4.75000000000E+00 0.00000000000E+00  1.
       24    2    4    4    0    0  1.10120159959E+02 -1.61616857058E+02  1.92900734917E+02  2.86408468806E+02  8.10719393973E+01 0.00000000000E+00  1.
       -1    1    7    7    0  703  6.37369438484E+00 -7.42033104639E+01  8.54229662900E+01  1.13330659725E+02  1.90734863281E-06 0.00000000000E+00  1.
        2    1    7    7  703    0  1.03746465574E+02 -8.74135465942E+01  1.07477768627E+02  1.73077809081E+02  3.30362473978E-06 0.00000000000E+00  1.
</event>
<event>
 9 114   1.0000000E+00   7.4550000E+01   7.8125000E-03   1.3429423E-01
        2   -1    0    0  502    0  0.00000000000E+00  0.00000000000E+00  1.97577420102E+02  1.97577420102E+02  0.00000000000E+00 0.00000000000E+00  1.
        5   -1    0    0  501    0  0.00000000000E+00  0.00000000000E+00 -1.88024592238E+03  1.88024592238E+03  0.00000000000E+00 0.00000000000E+00  1.
       25    1    1    2    0    0 -3.75982203524E+01  2.53748222753E+02 -7.66439601518E+01  2.95467567343E+02  1.25000000000E+02 0.00000000000E+00  1.
        6    2    1    2  501    0 -2.08534980381E+01 -7.77067304623E+01 -1.58407531146E+03  1.59556985726E+03  1.73422526484E+02 0.00000000000E+00  1.
        1    1    1    2  502    0  5.84517183904E+01 -1.76041492291E+02 -2.19492306713E+01  1.86785917879E+02  1.68705363944E-05 0.00000000000E+00  1.
        5    1    4    4  501    0  3.46002955584E+01 -8.26057101279E+01 -1.00013159573E+03  1.00414473811E+03  4.74999999999E+00 0.00000000000E+00  1.
       24    2    4    4    0    0 -5.54537935965E+01  4.89897966556E+00 -5.83943715727E+02  5.91425119150E+02  7.54604876635E+01 0.00000000000E+00  1.
      -11    1    7    7    0    0 -6.51737367236E+01 -1.90671433085E+01 -4.25703396623E+02  4.31085320800E+02  5.11055549347E-04 0.00000000000E+00  1.
       12    1    7    7    0    0  9.71994312715E+00  2.39661229741E+01 -1.58240319103E+02  1.60339798349E+02  5.04637014592E-06 0.00000000000E+00  1.
</event>
<event>
 9 114   1.0000000E+00   7.4550000E+01   7.8125000E-03   1.3429423E-01
        5   -1    0    0  501    0  0.00000000000E+00  0.00000000000E+00  9.73611839587E+01  9.73611839587E+01  0.00000000000E+00 0.00000000000E+00  1.
        2   -1    0    0  502    0  0.00000000000E+00  0.00000000000E+00 -2.26631591293E+03  2.26631591293E+03  0.00000000000E+00 0.00000000000E+00  1.
       25    1    1    2    0    0  1.95583554400E+02  3.12577163519E+02 -7.86058768499E+02  8.77194845766E+02  1.25000000000E+02 0.00000000000E+00  1.
        6    2    1    2  501    0 -2.08895093160E+02 -2.38902048310E+02 -6.04667606453E+02  7.04660922004E+02  1.73818158062E+02 0.00000000000E+00  1.
        1    1    1    2  502    0  1.33115387598E+01 -7.36751152086E+01 -7.78228354020E+02  7.81821329119E+02  0.00000000000E+00 0.00000000000E+00  1.
        5    1    4    4  501    0 -6.26701938890E+01  1.03692527687E+01 -1.20346703369E+02  1.36165216251E+02  4.75000000000E+00 0.00000000000E+00  1.
       24    2    4    4    0    0 -1.46224899271E+02 -2.49271301079E+02 -4.84320903084E+02  5.68495705752E+02  7.14333786534E+01 0.00000000000E+00  1.
       -3    1    7    7    0  703  4.40618019503E+00 -2.66643347141E+01 -6.53807814482E+01  7.07463621145E+01  4.86280394897E-06 0.00000000000E+00  1.
        4    1    7    7  703    0 -1.50631079466E+02 -2.22606966365E+02 -4.18940121636E+02  4.97749343638E+02  0.00000000000E+00 0.00000000000E+00  1.
</event>
<event>
 9 114   1.0000000E+00   7.4550000E+01   7.8125000E-03   1.3429423E-01
        2   -1    0    0  502    0  0.00000000000E+00  0.00000000000E+00  2.01341220305E+03  2.01341220305E+03  0.00000000000E+00 0.00000000000E+00  1.
        5   -1    0    0  501    0  0.00000000000E+00  0.00000000000E+00 -3.23954983020E+01  3.23954983020E+01  0.00000000000E+00 0.00000000000E+00  1.
       25    1    1    2    0    0 -6.91115899937E+01 -3.71518784620E+00  1.12509837293E+03  1.13413472007E+03  1.25000000000E+02 0.00000000000E+00  1.
        6    2    1    2  501    0  1.11695501723E+02  4.34200158601E+01  4.00305876170E+02  4.52355473838E+02  1.73261355565E+02 0.00000000000E+00  1.
        1    1    1    2  502    0 -4.25839117293E+01 -3.97048280139E+01  4.55612455642E+02  4.59317507441E+02  5.39479660939E-06 0.00000000000E+00  1.
        5    1    4    4  501    0  1.10697917613E+02  4.60873048027E+01  1.66844793556E+02  2.05518408578E+02  4.75000000000E+00 0.00000000000E+00  1.
       24    2    4    4    0    0  9.97584110211E-01 -2.66728894268E+00  2.33461082614E+02  2.46837065260E+02  8.01021228574E+01 0.00000000000E+00  1.
       -1    1    7    7    0  703 -3.06141052699E+00  3.28025882294E+01  1.76968162423E+02  1.80008645738E+02  1.90734863281E-06 0.00000000000E+00  1.
        2    1    7    7  703    0  4.05899463721E+00 -3.54698771721E+01  5.64929201907E+01  6.68284195215E+01  1.50789149292E-06 0.00000000000E+00  1.
</event>
<event>
 9 114   1.0000000E+00   7.4550000E+01   7.8125000E-03   1.3429423E-01
        2   -1    0    0  502    0  0.00000000000E+00  0.00000000000E+00  4.08693869614E+03  4.08693869614E+03  0.00000000000E+00 0.00000000000E+00  1.
        5   -1    0    0  501    0  0.00000000000E+00  0.00000000000E+00 -2.53346633106E+01  2.53346633106E+01  0.00000000000E+00 0.00000000000E+00  1.
       25    1    1    2    0    0  6.22520849319E+01 -8.11103355502E+01  1.21706965922E+03  1.22773684640E+03  1.25000000000E+02 0.00000000000E+00  1.
        6    2    1    2  501    0 -6.64748706458E+01  1.26074139418E+01  4.26647016732E+02  4.65675261815E+02  1.73919283768E+02 0.00000000000E+00  1.
        1    1    1    2  502    0  4.22278571389E+00  6.85029216085E+01  2.41788735688E+03  2.41886125124E+03  4.31583728752E-05 0.00000000000E+00  1.
        5    1    4    4  501    0 -5.24482382004E+01  3.18238067288E+01  4.85617994002E+01  7.83861162837E+01  4.75000000000E+00 0.00000000000E+00  1.
       24    2    4    4    0    0 -1.40266324453E+01 -1.92163927871E+01  3.78085217332E+02  3.87289145532E+02  8.04887228872E+01 0.00000000000E+00  1.
       -3    1    7    7    0  703  7.98362977940E+00  1.94260026515E+01  2.64132225455E+02  2.64965923181E+02  3.81469726562E-06 0.00000000000E+00  1.
        4    1    7    7  703    0 -2.20102622247E+01 -3.86423954386E+01  1.13952991877E+02  1.22323222350E+02  1.90734863281E-06 0.00000000000E+00  1.
</event>
<event>
 9 114   1.0000000E+00   7.4550000E+01   7.8125000E-03   1.3429423E-01
        2   -1    0    0  502    0  0.00000000000E+00  0.00000000000E+00  1.24111851591E+03  1.24111851591E+03  0.00000000000E+00 0.00000000000E+00  1.
        5   -1    0    0  501    0  0.00000000000E+00  0.00000000000E+00 -7.75583600135E+02  7.75583600135E+02  0.00000000000E+00 0.00000000000E+00  1.
       25    1    1    2    0    0 -2.36318563861E+02 -1.40002349434E+02  7.75906328636E+02  8.32527928834E+02  1.25000000000E+02 0.00000000000E+00  1.
        6    2    1    2  501    0  2.17139788041E+02  2.65151019129E+02 -6.87499619010E+02  7.86360538825E+02  1.68084563197E+02 0.00000000000E+00  1.
        1    1    1    2  502    0  1.91787758201E+01 -1.25148669696E+02  3.77128206145E+02  3.97813648382E+02  3.09907470880E-05 0.00000000000E+00  1.
        5    1    4    4  501    0  1.19643219943E+02  5.35317010434E+01 -1.85184897237E+02  2.26927635513E+02  4.75000000000E+00 0.00000000000E+00  1.
       24    2    4    4    0    0  9.74965680978E+01  2.11619318086E+02 -5.02314721774E+02  5.59432903311E+02  7.97293987120E+01 0.00000000000E+00  1.
       -3    1    7    7    0  703  8.24382266708E+00 -4.73953340545E+00 -7.68741331856E+00  1.22278416983E+01  4.98046653491E-06 0.00000000000E+00  1.
        4    1    7    7  703    0  8.92527454307E+01  2.16358851491E+02 -4.94627308455E+02  5.47205061613E+02  1.20631319434E-05 0.00000000000E+00  1.
</event>
<event>
 9 114   1.0000000E+00   7.4550000E+01   7.8125000E-03   1.3429423E-01
        2   -1    0    0  502    0  0.00000000000E+00  0.00000000000E+00  1.45533431374E+03  1.45533431374E+03  0.00000000000E+00 0.00000000000E+00  1.
        5   -1    0    0  501    0  0.00000000000E+00  0.00000000000E+00 -4.56094458331E+02  4.56094458331E+02  0.00000000000E+00 0.00000000000E+00  1.
       25    1    1    2    0    0 -1.52846539223E+02 -3.44546846172E+02  2.28963299734E+02  4.58392611616E+02  1.25000000000E+02 0.00000000000E+00  1.
        6    2    1    2  501    0 -3.66085167567E+02 -6.69579728365E+01 -3.35986158982E+01  4.11478853414E+02  1.72291206328E+02 0.00000000000E+00  1.
        1    1    1    2  502    0  5.18931706790E+02  4.11504819008E+02  8.03875171575E+02  1.04155730704E+03  3.23687796564E-05 0.00000000000E+00  1.
        5    1    4    4  501    0 -2.88828989964E+02 -2.16481435021E+01 -1.73934946561E+01  2.90199799651E+02  4.75000000000E+00 0.00000000000E+00  1.
       24    2    4    4    0    0 -7.72561776024E+01 -4.53098293344E+01 -1.62051212421E+01  1.21279053764E+02  8.01530118915E+01 0.00000000000E+00  1.
       -3    1    7    7    0  703 -5.69711149072E+01  6.32445492743E+00  1.27195025320E+01  5.87153507062E+01  3.76972873231E-07 0.00000000000E+00  1.
        4    1    7    7  703    0 -2.02850626952E+01 -5.16342842618E+01 -2.89246237741E+01  6.25637030574E+01  8.25906184945E-07 0.00000000000E+00  1.
</event>
<event>
 9 114   1.0000000E+00   7.4550000E+01   7.8125000E-03   1.3429423E-01
        5   -1    0    0  501    0  0.00000000000E+00  0.00000000000E+00  7.55243401907E+02  7.55243401907E+02  0.00000000000E+00 0.00000000000E+00  1.
        2   -1    0    0  502    0  0.00000000000E+00  0.00000000000E+00 -7.85732313789E+02  7.85732313789E+02  0.00000000000E+00 0.00000000000E+00  1.
       25    1    1    2    0    0 -2.56354027546E+02 -2.45894622603E+02 -5.82367645812E+02  6.93511807941E+02  1.25000000000E+02 0.00000000000E+00  1.
        6    2    1    2  501    0  2.37141799082E+02 -1.75077482627E+01  4.97241190054E+02  5.77769302875E+02  1.73279577959E+02 0.00000000000E+00  1.
        1    1    1    2  502    0  1.92122284646E+01  2.63402370866E+02  5.46375438761E+01  2.69694604879E+02  3.09025797768E-06 0.00000000000E+00  1.
        5    1    4    4  501    0  1.79791801530E+02 -4.35638775249E+01  3.67380336034E+02  4.11356022354E+02  4.74999999999E+00 0.00000000000E+00  1.
       24    2    4    4    0    0  5.73499975516E+01  2.60561292622E+01  1.29860854020E+02  1.66413280521E+02  8.28347417196E+01 0.00000000000E+00  1.
       -1    1    7    7    0  703  6.20714190277E+01  4.97661705331E+01  1.04991348359E+02  1.31729708190E+02  1.34869915235E-06 0.00000000000E+00  1.
        2    1    7    7  703    0 -4.72142147608E+00 -2.37100412709E+01  2.48695056607E+01  3.46835723308E+01  4.76837158203E-07 0.00000000000E+00  1.
</event>
<event>
 9 114   1.0000000E+00   7.4550000E+01   7.8125000E-03   1.3429423E-01
        2   -1    0    0  502    0  0.00000000000E+00  0.00000000000E+00  1.65276740120E+03  1.65276740120E+03  0.00000000000E+00 0.00000000000E+00  1.
        5   -1    0    0  501    0  0.00000000000E+00  0.00000000000E+00 -1.60484060541E+02  1.60484060541E+02  0.00000000000E+00 0.00000000000E+00  1.
       25    1    1    2    0    0 -6.09711387192E+01  8.94034255633E+01  1.05201676677E+03  1.06492944829E+03  1.25000000000E+02 0.00000000000E+00  1.
        6    2    1    2  501    0  6.48488366794E+01 -1.30171667057E+02 -7.30324916364E+01  2.33391904872E+02  1.67296150291E+02 0.00000000000E+00  1.
        1    1    1    2  502    0 -3.87769796014E+00  4.07682414934E+01  5.13299065525E+02  5.14930108582E+02  7.62939453125E-06 0.00000000000E+00  1.
        5    1    4    4  501    0  3.36788781342E+01 -1.14849503221E+02  1.18599935155E+00  1.19785826861E+02  4.75000000000E+00 0.00000000000E+00  1.
       24    2    4    4    0    0  3.11699585452E+01 -1.53221638361E+01 -7.42184909879E+01  1.13606078011E+02  7.86868574553E+01 0.00000000000E+00  1.
      -11    1    7    7    0    0 -1.14430831660E+01 -2.34599475420E+01  1.70967971171E+00  2.61579107728E+01  5.10997968505E-04 0.00000000000E+00  1.
       12    1    7    7    0    0  4.26130417112E+01  8.13778370593E+00 -7.59281706997E+01  8.74481672382E+01  1.65181236989E-06 0.00000000000E+00  1.
</event>
<event>
 9 114   1.0000000E+00   7.4550000E+01   7.8125000E-03   1.3429423E-01
        2   -1    0    0  502    0  0.00000000000E+00  0.00000000000E+00  1.54664220813E+03  1.54664220813E+03  0.00000000000E+00 0.00000000000E+00  1.
        5   -1    0    0  501    0  0.00000000000E+00  0.00000000000E+00 -3.63691386682E+02  3.63691386682E+02  0.00000000000E+00 0.00000000000E+00  1.
       25    1    1    2    0    0 -1.69881114336E+01 -3.10424677513E+02  2.69309090928E+02  4.29888895874E+02  1.25000000000E+02 0.00000000000E+00  1.
        6    2    1    2  501    0 -4.71954241046E+01  2.83650312401E+02 -1.81890638822E+02  3.82707223429E+02  1.75201902365E+02 0.00000000000E+00  1.
        1    1    1    2  502    0  6.41835355382E+01  2.67743651118E+01  1.09553236934E+03  1.09773747551E+03  2.15791864376E-05 0.00000000000E+00  1.
        5    1    4    4  501    0 -1.49346311866E+01  1.10849466053E+02 -1.49649845729E+02  1.86891107760E+02  4.75000000000E+00 0.00000000000E+00  1.
       24    2    4    4    0    0 -3.22607929180E+01  1.72800846348E+02 -3.22407930933E+01  1.95816115670E+02  8.00224415928E+01 0.00000000000E+00  1.
      -13    1    7    7    0    0 -5.66358359814E+01  1.35986883884E+02 -3.55558858494E+01  1.51539706640E+02  1.05660000003E-01 0.00000000000E+00  1.
       14    1    7    7    0    0  2.43750430635E+01  3.68139624634E+01  3.31509275613E+00  4.42764090299E+01  2.04488239269E-06 0.00000000000E+00  1.
</event>
<event>
 9 114   1.0000000E+00   7.4550000E+01   7.8125000E-03   1.3429423E-01
        5   -1    0    0  501    0  0.00000000000E+00  0.00000000000E+00  6.27776045014E+01  6.27776045014E+01  0.00000000000E+00 0.00000000000E+00  1.
        2   -1    0    0  502    0  0.00000000000E+00  0.00000000000E+00 -2.33466861221E+03  2.33466861221E+03  0.00000000000E+00 0.00000000000E+00  1.
       25    1    1    2    0    0  4.29372864660E+01  8.29634885912E+01 -7.48569954520E+02  7.64662361973E+02  1.25000000000E+02 0.00000000000E+00  1.
        6    2    1    2  501    0 -5.09829351652E+01 -1.31074020469E+01 -1.17407410226E+02  2.25112807668E+02  1.84716573522E+02 0.00000000000E+00  1.
        1    1    1    2  502    0  8.04564869922E+00 -6.98560865443E+01 -1.40591364296E+03  1.40767104707E+03  2.64289979182E-05 0.00000000000E+00  1.
        5    1    4    4  501    0 -6.28649581720E+01 -6.30806492605E+01 -8.67667169607E+01  1.24427476665E+02  4.75000000000E+00 0.00000000000E+00  1.
       24    2    4    4    0    0  1.18820230068E+01  4.99732472137E+01 -3.06406932648E+01  1.00685331003E+02  8.09949127267E+01 0.00000000000E+00  1.
       -1    1    7    7    0  703 -7.18582698562E+00 -1.42091029138E+01 -2.97285897117E+01  3.37242310709E+01  1.50789149292E-06 0.00000000000E+00  1.
        2    1    7    7  703    0  1.90678499924E+01  6.41823501274E+01 -9.12103553126E-01  6.69610999320E+01  1.60566494257E-06 0.00000000000E+00  1.
</event>
<event>
 9 114   1.0000000E+00   7.4550000E+01   7.8125000E-03   1.3429423E-01
       -1   -1    0    0    0  502  0.00000000000E+00  0.00000000000E+00  6.57814692028E+02  6.57814692028E+02  0.00000000000E+00 0.00000000000E+00  1.
        5   -1    0    0  501    0  0.00000000000E+00  0.00000000000E+00 -6.10284466581E+02  6.10284466581E+02  0.00000000000E+00 0.00000000000E+00  1.
       25    1    1    2    0    0  2.53206379812E+02 -8.87052098878E+01  4.33983884722E+02  5.25308573352E+02  1.25000000000E+02 0.00000000000E+00  1.
        6    2    1    2  501    0 -2.40095838450E+02  1.18336359402E+02 -5.17489246868E+02  6.07808302967E+02  1.73165547770E+02 0.00000000000E+00  1.
       -2    1    1    2    0  502 -1.31105413618E+01 -2.96311495140E+01  1.31035587592E+02  1.34982282289E+02  5.04637014592E-06 0.00000000000E+00  1.
        5    1    4    4  501    0 -1.48105002726E+02  1.28259359337E+02 -3.16921523196E+02  3.72622287920E+02  4.75000000000E+00 0.00000000000E+00  1.
       24    2    4    4    0    0 -9.19908357237E+01 -9.92299993529E+00 -2.00567723671E+02  2.35186015047E+02  8.07729540740E+01 0.00000000000E+00  1.
       -1    1    7    7    0  703 -1.01093394444E+02 -1.34733095571E+01 -1.36580464276E+02  1.70457113939E+02  1.90734863281E-06 0.00000000000E+00  1.
        2    1    7    7  703    0  9.10255871981E+00  3.55030962176E+00 -6.39872593954E+01  6.47289011075E+01  3.01578298585E-06 0.00000000000E+00  1.
</event>
<event>
 9 114   1.0000000E+00   7.4550000E+01   7.8125000E-03   1.3429423E-01
       -1   -1    0    0    0  502  0.00000000000E+00  0.00000000000E+00  4.79709252216E+02  4.79709252216E+02  0.00000000000E+00 0.00000000000E+00  1.
        5   -1    0    0  501    0  0.00000000000E+00  0.00000000000E+00 -9.56052563010E+02  9.56052563010E+02  0.00000000000E+00 0.00000000000E+00  1.
       25    1    1    2    0    0  1.35433535163E+02  1.25994621116E+02 -3.51371407912E+02  4.16297673900E+02  1.25000000000E+02 0.00000000000E+00  1.
        6    2    1    2  501    0  1.71947133067E+02  3.56226754439E+01 -4.69532034571E+02  5.30255893135E+02  1.72847300066E+02 0.00000000000E+00  1.
       -2    1    1    2    0  502 -3.07380668230E+02 -1.61617296560E+02  3.44560131688E+02  4.89208248191E+02  1.78925161736E-05 0.00000000000E+00  1.
        5    1    4    4  501    0  9.78597630935E+01  8.14071265066E+01 -2.27785814918E+02  2.60983895014E+02  4.75000000000E+00 0.00000000000E+00  1.
       24    2    4    4    0    0  7.40873699740E+01 -4.57844510627E+01 -2.41746219653E+02  2.69271998121E+02  8.05047818876E+01 0.00000000000E+00  1.
      -13    1    7    7    0    0  5.24501559861E+01  7.99216248233E+00 -1.63504618490E+02  1.71897251158E+02  1.05660000004E-01 0.00000000000E+00  1.
       14    1    7    7    0    0  2.16372139879E+01 -5.37766135451E+01 -7.82416011629E+01  9.73747469628E+01  2.86102294922E-06 0.00000000000E+00  1.
</event>
<event>
 9 114   1.0000000E+00   7.4550000E+01   7.8125000E-03   1.3429423E-01
        5   -1    0    0  501    0  0.00000000000E+00  0.00000000000E+00  3.73079577874E+01  3.73079577874E+01  0.00000000000E+00 0.00000000000E+00  1.
        2   -1    0    0  502    0  0.00000000000E+00  0.00000000000E+00 -3.90029024271E+03  3.90029024271E+03  0.00000000000E+00 0.00000000000E+00  1.
       25    1    1    2    0    0  5.52841082063E+01 -2.22865136784E+02 -9.98919055579E+02  1.03256451683E+03  1.25000000000E+02 0.00000000000E+00  1.
        6    2    1    2  501    0  8.65446583110E+01  8.96102563269E+01 -6.83997119457E+02  7.16298773806E+02  1.72371395566E+02 0.00000000000E+00  1.
        1    1    1    2  502    0 -1.41828766517E+02  1.33254880458E+02 -2.18006610989E+03  2.18873490986E+03  0.00000000000E+00 0.00000000000E+00  1.
        5    1    4    4  501    0 -3.05759037587E+01  5.92963703668E+01 -2.07230059836E+02  2.17756298713E+02  4.75000000000E+00 0.00000000000E+00  1.
       24    2    4    4    0    0  1.17120562070E+02  3.03138859602E+01 -4.76767059621E+02  4.98542475093E+02  8.12503082524E+01 0.00000000000E+00  1.
      -11    1    7    7    0    0  4.20811031782E+01 -1.08092452828E+00 -5.63967665645E+01  7.03745900288E+01  5.10962554716E-04 0.00000000000E+00  1.
       12    1    7    7    0    0  7.50394588915E+01  3.13948104885E+01 -4.20370293056E+02  4.28167885065E+02  7.62939453125E-06 0.00000000000E+00  1.
</event>
<event>
 9 114   1.0000000E+00   7.4550000E+01   7.8125000E-03   1.3429423E-01
        5   -1    0    0  501    0  0.00000000000E+00  0.00000000000E+00  5.96070067392E+02  5.96070067392E+02  0.00000000000E+00 0.00000000000E+00  1.
        2   -1    0    0  502    0  0.00000000000E+00  0.00000000000E+00 -3.93589003998E+03  3.93589003998E+03  0.00000000000E+00 0.00000000000E+00  1.
       25    1    1    2    0    0  4.50778323490E+02 -7.26713970017E+01 -1.38078427810E+03  1.45968231185E+03  1.25000000000E+02 0.00000000000E+00  1.
        6    2    1    2  501    0 -1.41463309209E+02  7.75287073864E+02  1.56083567645E+02  8.22150230147E+02  1.74605286542E+02 0.00000000000E+00  1.
        1    1    1    2  502    0 -3.09315014281E+02 -7.02615676862E+02 -2.11511926214E+03  2.25012756538E+03  4.31583728752E-05 0.00000000000E+00  1.
        5    1    4    4  501    0  1.08923344891E+01  2.90186382010E+02  8.57176466647E+01  3.02814888512E+02  4.74999999999E+00 0.00000000000E+00  1.
       24    2    4    4    0    0 -1.52355643698E+02  4.85100691854E+02  7.03659209805E+01  5.19335341635E+02  7.88854285131E+01 0.00000000000E+00  1.
       -3    1    7    7    0  703 -7.11851845759E+01  2.23993834352E+02 -7.10230668937E+00  2.35140407185E+02  2.82352430399E-06 0.00000000000E+00  1.
        4    1    7    7  703    0 -8.11704591222E+01  2.61106857503E+02  7.74682276699E+01  2.84194934450E+02  5.22348935609E-06 0.00000000000E+00  1.
</event>
<event>
 9 114   1.0000000E+00   7.4550000E+01   7.8125000E-03   1.3429423E-01
        2   -1    0    0  502    0  0.00000000000E+00  0.00000000000E+00  1.50148876829E+03  1.50148876829E+03  0.00000000000E+00 0.00000000000E+00  1.
        5   -1    0    0  501    0  0.00000000000E+00  0.00000000000E+00 -7.32309550565E+01  7.32309550565E+01  0.00000000000E+00 0.00000000000E+00  1.
       25    1    1    2    0    0  1.13419057288E+02  1.05672679981E+02  1.10184971901E+03  1.11970013894E+03  1.25000000000E+02 0.00000000000E+00  1.
        6    2    1    2  501    0 -7.02340397882E+01 -1.44771696258E+01  2.93335322304E+02  3.48834015293E+02  1.74634332618E+02 0.00000000000E+00  1.
        1    1    1    2  502    0 -4.31850175002E+01 -9.11955103555E+01  3.30727719132E+01  1.06185569111E+02  1.71926082395E-06 0.00000000000E+00  1.
        5    1    4    4  501    0 -2.51730463959E+01  4.13496115336E+01  1.96853949276E+02  2.02774536085E+02  4.75000000000E+00 0.00000000000E+00  1.
       24    2    4    4    0    0 -4.50609933923E+01 -5.58267811594E+01  9.64813730284E+01  1.46059479208E+02  8.29312577084E+01 0.00000000000E+00  1.
       -1    1    7    7    0  703 -6.37302598773E+01 -1.68582976174E+01  5.12003307079E+01  8.34698873079E+01  6.74349576174E-07 0.00000000000E+00  1.
        2    1    7    7  703    0  1.86692664851E+01 -3.89684835420E+01  4.52810423204E+01  6.25895919006E+01  6.74349576174E-07 0.00000000000E+00  1.
</event>
<event>
 9 114   1.0000000E+00   7.4550000E+01   7.8125000E-03   1.3429423E-01
        5   -1    0    0  501    0  0.00000000000E+00  0.00000000000E+00  1.39552414285E+02  1.39552414285E+02  0.00000000000E+00 0.00000000000E+00  1.
        2   -1    0    0  502    0  0.00000000000E+00  0.00000000000E+00 -9.14804213703E+02  9.14804213703E+02  0.00000000000E+00 0.00000000000E+00  1.
       25    1    1    2    0    0  2.61543867990E+02  1.00395693567E+02 -3.31114195155E+02  4.51382432537E+02  1.25000000000E+02 0.00000000000E+00  1.
        6    2    1    2  501    0 -1.96444826356E+02 -1.47174449155E+02 -2.38380963507E+02  3.82153153856E+02  1.70190073015E+02 0.00000000000E+00  1.
        1    1    1    2  502    0 -6.50990416339E+01  4.67787555884E+01 -2.05756640756E+02  2.20821041596E+02  0.00000000000E+00 0.00000000000E+00  1.
        5    1    4    4  501    0  1.39350993188E+01 -2.92668882026E+01 -6.95854495503E+01  7.69118653213E+01  4.75000000000E+00 0.00000000000E+00  1.
       24    2    4    4    0    0 -2.10379925675E+02 -1.17907560953E+02 -1.68795513957E+02  3.05241288534E+02  8.07366870598E+01 0.00000000000E+00  1.
       -1    1    7    7    0  703 -7.78011002823E+01 -2.13633148972E+01 -9.71111438745E+01  1.26253620515E+02  2.33601545599E-06 0.00000000000E+00  1.
        2    1    7    7  703    0 -1.32578825392E+02 -9.65442460557E+01 -7.16843700824E+01  1.78987668019E+02  1.65181236989E-06 0.00000000000E+00  1.
</event>
<event>
 9 114   1.0000000E+00   7.4550000E+01   7.8125000E-03   1.3429423E-01
        5   -1    0    0  501    0  0.00000000000E+00  0.00000000000E+00  3.26216570571E+02  3.26216570571E+02  0.00000000000E+00 0.00000000000E+00  1.
        2   -1    0    0  502    0  0.00000000000E+00  0.00000000000E+00 -5.68644169860E+02  5.68644169860E+02  0.00000000000E+00 0.00000000000E+00  1.
       25    1    1    2    0    0  1.02521279292E+01  3.17786345900E+00  9.42688642586E+01  1.56929358986E+02  1.25000000000E+02 0.00000000000E+00  1.
        6    2    1    2  501    0  2.31679959667E+01  1.10513122825E+02  1.37658228646E+02  2.48998953548E+02  1.74071205546E+02 0.00000000000E+00  1.
        1    1    1    2  502    0 -3.34201238959E+01 -1.13690986284E+02 -4.74354692193E+02  4.88932427897E+02  7.62939453125E-06 0.00000000000E+00  1.
        5    1    4    4  501    0  2.93390556181E+01  2.30940438432E+01 -2.72550578310E+01  4.64705898711E+01  4.75000000000E+00 0.00000000000E+00  1.
       24    2    4    4    0    0 -6.17105965138E+00  8.74190789822E+01  1.64913286477E+02  2.02528363677E+02  7.83656090998E+01 0.00000000000E+00  1.
      -15    1    7    7    0    0 -8.74499902486E+00  1.86483866709E+01 -3.15807754991E+00  2.09133403698E+01  1.77680000000E+00 0.00000000000E+00  1.
       16    1    7    7    0    0  2.57393937349E+00  6.87706923113E+01  1.68071364027E+02  1.81615023307E+02  2.69739830470E-06 0.00000000000E+00  1.
</event>
<event>
 9 114   1.0000000E+00   7.4550000E+01   7.8125000E-03   1.3429423E-01
        5   -1    0    0  501    0  0.00000000000E+00  0.00000000000E+00  1.71794374955E+03  1.71794374955E+03  0.00000000000E+00 0.00000000000E+00  1.
        2   -1    0    0  502    0  0.00000000000E+00  0.00000000000E+00 -1.14006858063E+03  1.14006858063E+03  0.00000000000E+00 0.00000000000E+00  1.
       25    1    1    2    0    0  2.72513486223E+01 -7.48110103847E+02 -4.20352464225E+01  7.60133754955E+02  1.25000000000E+02 0.00000000000E+00  1.
        6    2    1    2  501    0 -1.54152468198E+02 -1.25743018611E+02  1.07342702510E+03  1.10520517017E+03  1.72216723290E+02 0.00000000000E+00  1.
        1    1    1    2  502    0  1.26901119575E+02  8.73853122459E+02 -4.53516609754E+02  9.92673405055E+02  1.52587890625E-05 0.00000000000E+00  1.
        5    1    4    4  501    0 -1.23602245379E+02 -1.36673411343E+01  5.04595733065E+02  5.19715044619E+02  4.75000000000E+00 0.00000000000E+00  1.
       24    2    4    4    0    0 -3.05502228192E+01 -1.12075677477E+02  5.68831292031E+02  5.85490125550E+02  7.57322568401E+01 0.00000000000E+00  1.
      -11    1    7    7    0    0 -3.38251287381E+00 -4.15485378513E+01  3.77149551051E+02  3.79446315372E+02  5.10998597706E-04 0.00000000000E+00  1.
       12    1    7    7    0    0 -2.71677099454E+01 -7.05271396259E+01  1.91681740980E+02  2.06043810178E+02  3.81469726562E-06 0.00000000000E+00  1.
</event>
<event>
 9 114   1.0000000E+00   7.4550000E+01   7.8125000E-03   1.3429423E-01
        2   -1    0    0  502    0  0.00000000000E+00  0.00000000000E+00  6.92626556867E+02  6.92626556867E+02  0.00000000000E+00 0.00000000000E+00  1.
        5   -1    0    0  501    0  0.00000000000E+00  0.00000000000E+00 -4.34298323026E+02  4.34298323026E+02  0.00000000000E+00 0.00000000000E+00  1.
       25    1    1    2    0    0 -2.60575437648E+02 -3.09378527944E+02  3.71638165067E+02  5.63342309783E+02  1.25000000000E+02 0.00000000000E+00  1.
        6    2    1    2  501    0  2.79011164004E+02  2.72090947549E+02 -1.98056431968E+02  4.69178073152E+02  1.70355512696E+02 0.00000000000E+00  1.
        1    1    1    2  502    0 -1.84357263561E+01  3.72875803946E+01  8.47465007420E+01  9.44044969584E+01  1.65181236989E-06 0.00000000000E+00  1.
        5    1    4    4  501    0  4.28168665832E+01  1.31635663530E+02 -7.92959200780E+01  1.59598362830E+02  4.75000000000E+00 0.00000000000E+00  1.
       24    2    4    4    0    0  2.36194297420E+02  1.40455284019E+02 -1.18760511890E+02  3.09579710322E+02  7.88676417553E+01 0.00000000000E+00  1.
      -11    1    7    7    0    0  2.30343624095E+02  1.49509415337E+02 -1.10545277856E+02  2.96026196294E+02  5.10998597706E-04 0.00000000000E+00  1.
       12    1    7    7    0    0  5.85067332528E+00 -9.05413131810E+00 -8.21523403359E+00  1.35535140282E+01  3.71083794028E-06 0.00000000000E+00  1.
</event>
<event>
 9 114   1.0000000E+00   7.4550000E+01   7.8125000E-03   1.3429423E-01
        2   -1    0    0  502    0  0.00000000000E+00  0.00000000000E+00  1.79438230165E+02  1.79438230165E+02  0.00000000000E+00 0.00000000000E+00  1.
        5   -1    0    0  501    0  0.00000000000E+00  0.00000000000E+00 -1.63113902775E+03  1.63113902775E+03  0.00000000000E+00 0.00000000000E+00  1.
       25    1    1    2    0    0  1.25336051010E+02  2.39532250489E+02 -1.91235462143E+02  3.53950316694E+02  1.25000000000E+02 0.00000000000E+00  1.
        6    2    1    2  501    0 -2.51525556350E+02 -5.86990097766E+01 -1.18245808599E+03  1.22272614351E+03  1.73612838345E+02 0.00000000000E+00  1.
        1    1    1    2  502    0  1.26189505340E+02 -1.80833240712E+02 -7.80072494470E+01  2.33900797713E+02  9.39260273151E-06 0.00000000000E+00  1.
        5    1    4    4  501    0 -1.73596010335E+02  6.74952207538E+00 -8.17096668114E+02  8.35374561736E+02  4.74999999994E+00 0.00000000000E+00  1.
       24    2    4    4    0    0 -7.79295460152E+01 -6.54485318520E+01 -3.65361417879E+02  3.87351581771E+02  7.87131358919E+01 0.00000000000E+00  1.
      -15    1    7    7    0    0 -9.35528986908E+01 -6.30869963681E+01 -3.19452733659E+02  3.38799822941E+02  1.77680000000E+00 0.00000000000E+00  1.
       16    1    7    7    0    0  1.56233526756E+01 -2.36153548388E+00 -4.59086842197E+01  4.85517588296E+01  6.74349576174E-07 0.00000000000E+00  1.
</event>
<event>
 9 114   1.0000000E+00   7.4550000E+01   7.8125000E-03   1.3429423E-01
        5   -1    0    0  501    0  0.00000000000E+00  0.00000000000E+00  3.37845373059E+02  3.37845373059E+02  0.00000000000E+00 0.00000000000E+00  1.
        2   -1    0    0  502    0  0.00000000000E+00  0.00000000000E+00 -2.39672710589E+03  2.39672710589E+03  0.00000000000E+00 0.00000000000E+00  1.
       25    1    1    2    0    0 -8.58796091866E+01  2.57085902962E+02  3.57818241413E+01  3.00622367289E+02  1.25000000000E+02 0.00000000000E+00  1.
        6    2    1    2  501    0 -2.71702054473E+02 -2.93384455066E+02 -1.56465206930E+02  4.62708098315E+02  1.72397733127E+02 0.00000000000E+00  1.
        1    1    1    2  502    0  3.57581663659E+02  3.62985521039E+01 -1.93819835004E+03  1.97124201334E+03  0.00000000000E+00 0.00000000000E+00  1.
        5    1    4    4  501    0  5.77633542503E+00  1.03566139596E+01 -1.64483636684E+01  2.08263455992E+01  4.75000000000E+00 0.00000000000E+00  1.
       24    2    4    4    0    0 -2.77478389898E+02 -3.03741069025E+02 -1.40016843262E+02  4.41881752715E+02  8.00117060987E+01 0.00000000000E+00  1.
       -1    1    7    7    0  703 -4.49200718155E+00  8.46739572064E-01  6.03459785905E+00  7.57043378826E+00  4.08019807103E-06 0.00000000000E+00  1.
        2    1    7    7  703    0 -2.72986382716E+02 -3.04587808597E+02 -1.46051441121E+02  4.34311318927E+02  1.90734863281E-06 0.00000000000E+00  1.
</event>
<event>
 9 114   1.0000000E+00   7.4550000E+01   7.8125000E-03   1.3429423E-01
        2   -1    0    0  502    0  0.00000000000E+00  0.00000000000E+00  1.44638714661E+03  1.44638714661E+03  0.00000000000E+00 0.00000000000E+00  1.
        5   -1    0    0  501    0  0.00000000000E+00  0.00000000000E+00 -2.50998101068E+02  2.50998101068E+02  0.00000000000E+00 0.00000000000E+00  1.
       25    1    1    2    0    0  2.69746686405E+02 -1.16008339457E+01  9.91986467404E+02  1.03564472947E+03  1.25000000000E+02 0.00000000000E+00  1.
        6    2    1    2  501    0  3.89569176991E+01 -1.15441537299E+02 -7.36929116200E+01  2.27897701365E+02  1.77939110636E+02 0.00000000000E+00  1.
        1    1    1    2  502    0 -3.08703604105E+02  1.27042371244E+02  2.77095489757E+02  4.33842816838E+02  3.81469726562E-06 0.00000000000E+00  1.
        5    1    4    4  501    0  2.94853802359E+01 -2.49327877924E+01 -9.67326626581E+01  1.04263138643E+02  4.75000000000E+00 0.00000000000E+00  1.
       24    2    4    4    0    0  9.47153746315E+00 -9.05087495063E+01  2.30397510380E+01  1.23634562722E+02  8.04557717785E+01 0.00000000000E+00  1.
      -11    1    7    7    0    0  7.11800108646E+00  1.43004689592E+01 -1.24657850512E+00  1.60225874986E+01  5.10997495952E-04 0.00000000000E+00  1.
       12    1    7    7    0    0  2.35353637669E+00 -1.04809218465E+02  2.42863295431E+01  1.07611975223E+02  2.56784668309E-06 0.00000000000E+00  1.
</event>
<event>
 9 114   1.0000000E+00   7.4550000E+01   7.8125000E-03   1.3429423E-01
        5   -1    0    0  501    0  0.00000000000E+00  0.00000000000E+00  2.45858413992E+02  2.45858413992E+02  0.00000000000E+00 0.00000000000E+00  1.
        2   -1    0    0  502    0  0.00000000000E+00  0.00000000000E+00 -4.78003019607E+02  4.78003019607E+02  0.00000000000E+00 0.00000000000E+00  1.
       25    1    1    2    0    0  5.85883943744E+01  2.24424717253E+01 -3.90220017559E+02  4.14527353254E+02  1.25000000000E+02 0.00000000000E+00  1.
        6    2    1    2  501    0 -5.39858561845E+01  4.67632828091E+01  1.49362286667E+02  2.39430300972E+02  1.72963866336E+02 0.00000000000E+00  1.
        1    1    1    2  502    0 -4.60253818994E+00 -6.92057545344E+01  8.71312527623E+00  6.99037793724E+01  6.30796268240E-07 0.00000000000E+00  1.
        5    1    4    4  501    0 -4.10669896472E+01  8.13720468221E+01  3.87893598948E+01  9.91719949569E+01  4.75000000000E+00 0.00000000000E+00  1.
       24    2    4    4    0    0 -1.29188665373E+01 -3.46087640129E+01  1.10572926772E+02  1.40258306015E+02  7.79830533647E+01 0.00000000000E+00  1.
       -1    1    7    7    0  703  3.21766030788E+01 -2.30308609921E+01  5.51076518006E+01  6.78425208163E+01  2.02304872852E-06 0.00000000000E+00  1.
        2    1    7    7  703    0 -4.50954696161E+01 -1.15779030208E+01  5.54652749716E+01  7.24157851986E+01  9.53674316406E-07 0.00000000000E+00  1.
</event>
<event>
 9 114   1.0000000E+00   7.4550000E+01   7.8125000E-03   1.3429423E-01
        5   -1    0    0  501    0  0.00000000000E+00  0.00000000000E+00  2.70300601202E+02  2.70300601202E+02  0.00000000000E+00 0.00000000000E+00  1.
       -1   -1    0    0    0  502  0.00000000000E+00  0.00000000000E+00 -7.86517357177E+02  7.86517357177E+02  0.00000000000E+00 0.00000000000E+00  1.
       25    1    1    2    0    0  2.65872198240E+02  1.73649905716E+01 -2.16698186227E+01  2.95100236756E+02  1.25000000000E+02 0.00000000000E+00  1.
        6    2    1    2  501    0 -2.83253075833E+01 -1.58432508301E+02 -5.72611522839E+01  2.44467851985E+02  1.74878553165E+02 0.00000000000E+00  1.
       -2    1    1    2    0  502 -2.37546890656E+02  1.41067517729E+02 -4.37285785068E+02  5.17249869639E+02  5.39479660939E-06 0.00000000000E+00  1.
        5    1    4    4  501    0  1.71640678208E+01  2.59947788462E+01 -5.14664747376E+00  3.19277971624E+01  4.75000000000E+00 0.00000000000E+00  1.
       24    2    4    4    0    0 -4.54893754041E+01 -1.84427287147E+02 -5.21145048101E+01  2.12540054822E+02  7.98413788284E+01 0.00000000000E+00  1.
      -15    1    7    7    0    0  1.60149249090E+01 -1.64241484966E+01 -2.05908509037E+01  3.08767004852E+01  1.77680000000E+00 0.00000000000E+00  1.
       16    1    7    7    0    0 -6.15043003131E+01 -1.68003138650E+02 -3.15236539064E+01  1.81663354337E+02  1.46971082758E-06 0.00000000000E+00  1.
</event>
<event>
 9 114   1.0000000E+00   7.4550000E+01   7.8125000E-03   1.3429423E-01
        2   -1    0    0  502    0  0.00000000000E+00  0.00000000000E+00  6.98667988188E+02  6.98667988188E+02  0.00000000000E+00 0.00000000000E+00  1.
        5   -1    0    0  501    0  0.00000000000E+00  0.00000000000E+00 -2.37690110804E+02  2.37690110804E+02  0.00000000000E+00 0.00000000000E+00  1.
       25    1    1    2    0    0  2.66852593060E+00 -1.90104717650E+02 -1.04683091292E+02  2.50460524446E+02  1.25000000000E+02 0.00000000000E+00  1.
        6    2    1    2  501    0 -3.95827667630E+01  8.97705618944E+00  1.61295284395E+02  2.41283699878E+02  1.74797803465E+02 0.00000000000E+00  1.
        1    1    1    2  502    0  3.69142408324E+01  1.81127661460E+02  4.04365684282E+02  4.44613874668E+02  0.00000000000E+00 0.00000000000E+00  1.
        5    1    4    4  501    0 -6.42407514789E+01  4.27505673018E+01  3.06551189275E+01  8.31672049047E+01  4.75000000000E+00 0.00000000000E+00  1.
       24    2    4    4    0    0  2.46579847159E+01 -3.37735111124E+01  1.30640165467E+02  1.58116494973E+02  7.86467220306E+01 0.00000000000E+00  1.
      -15    1    7    7    0    0  7.70884533640E+00 -3.90797208847E+01  1.74197488834E+01  4.35115565138E+01  1.77680000000E+00 0.00000000000E+00  1.
       16    1    7    7    0    0  1.69491393795E+01  5.30620977234E+00  1.13220416584E+02  1.14604938459E+02  0.00000000000E+00 0.00000000000E+00  1.
</event>
<event>
 9 114   1.0000000E+00   7.4550000E+01   7.8125000E-03   1.3429423E-01
        5   -1    0    0  501    0  0.00000000000E+00  0.00000000000E+00  4.25854881308E+02  4.25854881308E+02  0.00000000000E+00 0.00000000000E+00  1.
        2   -1    0    0  502    0  0.00000000000E+00  0.00000000000E+00 -5.77345213388E+02  5.77345213388E+02  0.00000000000E+00 0.00000000000E+00  1.
       25    1    1    2    0    0 -2.03023393940E+01 -2.06674912292E+02 -2.94756832839E+02  3.81619306196E+02  1.25000000000E+02 0.00000000000E+00  1.
        6    2    1    2  501    0 -2.85961361063E+01  1.59349987670E+02  3.39797235215E+02  4.13602330523E+02  1.71448444680E+02 0.00000000000E+00  1.
        1    1    1    2  502    0  4.88984755003E+01  4.73249246221E+01 -1.96530734456E+02  2.07978457977E+02  6.60724947956E-06 0.00000000000E+00  1.
        5    1    4    4  501    0 -4.43123152307E+01  1.27494373024E+02  1.37196890971E+02  1.92519988121E+02  4.75000000000E+00 0.00000000000E+00  1.
       24    2    4    4    0    0  1.57161791244E+01  3.18556146459E+01  2.02600344244E+02  2.21082342402E+02  8.10476659954E+01 0.00000000000E+00  1.
       -1    1    7    7    0  703  5.25758589482E+00 -4.82536389078E+00 -5.81496996663E+00  9.20544522729E+00  2.99212942076E-06 0.00000000000E+00  1.
        2    1    7    7  703    0  1.04585932295E+01  3.66809785367E+01  2.08415314211E+02  2.11876897174E+02  3.81469726562E-06 0.00000000000E+00  1.
</event>
<event>
 9 114   1.0000000E+00   7.4550000E+01   7.8125000E-03   1.3429423E-01
        5   -1    0    0  501    0  0.00000000000E+00  0.00000000000E+00  1.60250833576E+03  1.60250833576E+03  0.00000000000E+00 0.00000000000E+00  1.
        2   -1    0    0  502    0  0.00000000000E+00  0.00000000000E+00 -5.62566636435E+02  5.62566636435E+02  0.00000000000E+00 0.00000000000E+00  1.
       25    1    1    2    0    0  4.02551419496E+01 -5.26686274701E+02  1.61207206944E+02  5.66243474120E+02  1.25000000000E+02 0.00000000000E+00  1.
        6    2    1    2  501    0  4.25257879339E+01  2.68710407094E+02  1.16261802591E+03  1.20641068920E+03  1.72430714600E+02 0.00000000000E+00  1.
        1    1    1    2  502    0 -8.27809298834E+01  2.57975867608E+02 -2.83883533533E+02  3.92420808867E+02  2.38227767883E-05 0.00000000000E+00  1.
        5    1    4    4  501    0  4.80796931521E+01  1.30942565607E+02  7.69992690661E+02  7.82540042779E+02  4.74999999999E+00 0.00000000000E+00  1.
       24    2    4    4    0    0 -5.55390521829E+00  1.37767841487E+02  3.92625335248E+02  4.23870646425E+02  8.06278302511E+01 0.00000000000E+00  1.
       -1    1    7    7    0  703 -9.88072424426E+00  2.26577350855E+01  1.83164129657E+02  1.84824511534E+02  0.00000000000E+00 0.00000000000E+00  1.
        2    1    7    7  703    0  4.32681902597E+00  1.15110106402E+02  2.09461205591E+02  2.39046134891E+02  0.00000000000E+00 0.00000000000E+00  1.
</event>
<event>
 9 114   1.0000000E+00   7.4550000E+01   7.8125000E-03   1.3429423E-01
        5   -1    0    0  501    0  0.00000000000E+00  0.00000000000E+00  1.36408187160E+02  1.36408187160E+02  0.00000000000E+00 0.00000000000E+00  1.
        2   -1    0    0  502    0  0.00000000000E+00  0.00000000000E+00 -1.64894655866E+03  1.64894655866E+03  0.00000000000E+00 0.00000000000E+00  1.
       25    1    1    2    0    0  9.13853085338E+00 -1.63824192819E+02 -2.40552560870E+02  3.16879177984E+02  1.25000000000E+02 0.00000000000E+00  1.
        6    2    1    2  501    0  2.08148265943E+01  1.85254469410E+01  1.20836564796E+01  1.75864518238E+02  1.73222010238E+02 0.00000000000E+00  1.
        1    1    1    2  502    0 -2.99533574477E+01  1.45298745878E+02 -1.28406946711E+03  1.29261104960E+03  2.15791864376E-05 0.00000000000E+00  1.
        5    1    4    4  501    0  3.67201820351E+01 -5.37933979298E+01 -2.42511818161E+00  6.53494080135E+01  4.75000000000E+00 0.00000000000E+00  1.
       24    2    4    4    0    0 -1.59053554407E+01  7.23188448708E+01  1.45087746612E+01  1.10515110225E+02  8.07470704776E+01 0.00000000000E+00  1.
       -3    1    7    7    0  703 -3.88994331669E+01  4.17222980024E+01  3.51769472435E+01  6.70174131751E+01  4.76837158203E-07 0.00000000000E+00  1.
        4    1    7    7  703    0  2.29940777262E+01  3.05965468684E+01 -2.06681725823E+01  4.34976970498E+01  1.21570098724E-06 0.00000000000E+00  1.
</event>
<event>
 9 114   1.0000000E+00   7.4550000E+01   7.8125000E-03   1.3429423E-01
        5   -1    0    0  501    0  0.00000000000E+00  0.00000000000E+00  5.50100404932E+02  5.50100404932E+02  0.00000000000E+00 0.00000000000E+00  1.
        2   -1    0    0  502    0  0.00000000000E+00  0.00000000000E+00 -3.85052913857E+02  3.85052913857E+02  0.00000000000E+00 0.00000000000E+00  1.
       25    1    1    2    0    0 -3.77369674459E+01 -1.08467092870E+02  7.64625325097E+01  1.86173864507E+02  1.25000000000E+02 0.00000000000E+00  1.
        6    2    1    2  501    0 -5.97245234864E+01  1.80875754539E+02  3.65517900952E+02  4.46599542452E+02  1.71944055193E+02 0.00000000000E+00  1.
        1    1    1    2  502    0  9.74614909323E+01 -7.24086616684E+01 -2.76932942386E+02  3.02379911830E+02  0.00000000000E+00 0.00000000000E+00  1.
        5    1    4    4  501    0 -1.83919125615E+01  2.76000317115E+01  2.03447024076E+02  2.06187483383E+02  4.75000000000E+00 0.00000000000E+00  1.
       24    2    4    4    0    0 -4.13326109248E+01  1.53275722827E+02  1.62070876876E+02  2.40412059069E+02  7.95559996516E+01 0.00000000000E+00  1.
       -1    1    7    7    0  703  9.71139748876E+00 -5.04538351080E+00  1.34906112204E+01  1.73713478768E+01  1.11828226085E-06 0.00000000000E+00  1.
        2    1    7    7  703    0 -5.10440084136E+01  1.58321106338E+02  1.48580265655E+02  2.23040711192E+02  1.90734863281E-06 0.00000000000E+00  1.
</event>
<event>
 9 114   1.0000000E+00   7.4550000E+01   7.8125000E-03   1.3429423E-01
        2   -1    0    0  502    0  0.00000000000E+00  0.00000000000E+00  1.57069385268E+03  1.57069385268E+03  0.00000000000E+00 0.00000000000E+00  1.
        5   -1    0    0  501    0  0.00000000000E+00  0.00000000000E+00 -2.20783923592E+02  2.20783923592E+02  0.00000000000E+00 0.00000000000E+00  1.
       25    1    1    2    0    0 -1.80618354276E+02 -2.91125888527E+02  5.07541916862E+02  6.24980855901E+02  1.25000000000E+02 0.00000000000E+00  1.
        6    2    1    2  501    0  2.26079601566E+02  6.12396308176E+01 -4.13078969433E-02  2.92101198103E+02  1.74530311407E+02 0.00000000000E+00  1.
        1    1    1    2  502    0 -4.54612472903E+01  2.29886257709E+02  8.42409320121E+02  8.74395722265E+02  0.00000000000E+00 0.00000000000E+00  1.
        5    1    4    4  501    0  9.18048327360E+01  4.97545199394E+01  6.41920860924E+01  1.22665504462E+02  4.75000000000E+00 0.00000000000E+00  1.
       24    2    4    4    0    0  1.34274768830E+02  1.14851108782E+01 -6.42333939894E+01  1.69435693641E+02  8.01305438638E+01 0.00000000000E+00  1.
      -15    1    7    7    0    0  1.32684148790E+01 -2.09679618743E+01 -3.11384050274E+01  3.98555334233E+01  1.77680000000E+00 0.00000000000E+00  1.
       16    1    7    7    0    0  1.21006353951E+02  3.24530727525E+01 -3.30949889620E+01  1.29580160218E+02  2.43140197448E-06 0.00000000000E+00  1.
</event>
<event>
 9 114   1.0000000E+00   7.4550000E+01   7.8125000E-03   1.3429423E-01
        5   -1    0    0  501    0  0.00000000000E+00  0.00000000000E+00  3.37153028626E+02  3.37153028626E+02  0.00000000000E+00 0.00000000000E+00  1.
        2   -1    0    0  502    0  0.00000000000E+00  0.00000000000E+00 -1.29205507190E+03  1.29205507190E+03  0.00000000000E+00 0.00000000000E+00  1.
       25    1    1    2    0    0  1.57810729095E+02  2.47181201836E+02 -2.15240466724E+02  3.84650791334E+02  1.25000000000E+02 0.00000000000E+00  1.
        6    2    1    2  501    0 -1.31633337500E+02  4.65287422849E+01  1.74443128435E+02  2.84068788291E+02  1.75420671595E+02 0.00000000000E+00  1.
        1    1    1    2  502    0 -2.61773915951E+01 -2.93709944120E+02 -9.14104704985E+02  9.60488520901E+02  0.00000000000E+00 0.00000000000E+00  1.
        5    1    4    4  501    0 -6.91071925151E+01 -8.53992517352E+00  1.51353825387E+02  1.66671165289E+02  4.75000000000E+00 0.00000000000E+00  1.
       24    2    4    4    0    0 -6.25261449852E+01  5.50686674584E+01  2.30893030479E+01  1.17397623002E+02  7.94166797908E+01 0.00000000000E+00  1.
       -3    1    7    7    0  703 -9.06098315313E+00  4.54344076274E+01 -1.75617341236E+01  4.95459515761E+01  7.53945746462E-07 0.00000000000E+00  1.
        4    1    7    7  703    0 -5.34651618321E+01  9.63425983106E+00  4.06510371714E+01  6.78516714262E+01  1.26159253648E-06 0.00000000000E+00  1.
</event>
<event>
 9 114   1.0000000E+00   7.4550000E+01   7.8125000E-03   1.3429423E-01
       -1   -1    0    0    0  502  0.00000000000E+00  0.00000000000E+00  9.78759381221E+02  9.78759381221E+02  0.00000000000E+00 0.00000000000E+00  1.
        5   -1    0    0  501    0  0.00000000000E+00  0.00000000000E+00 -1.15240822391E+03  1.15240822391E+03  0.00000000000E+00 0.00000000000E+00  1.
       25    1    1    2    0    0  1.09296567836E+02 -2.65936186437E+02  8.92358944274E+02  9.45831528562E+02  1.25000000000E+02 0.00000000000E+00  1.
        6    2    1    2  501    0 -2.06231986840E+02  1.85919796722E+02 -9.80440149531E+02  1.03328043328E+03  1.71195104412E+02 0.00000000000E+00  1.
       -2    1    1    2    0  502  9.69354190040E+01  8.00163897152E+01 -8.55676374303E+01  1.52055643289E+02  4.67203091199E-06 0.00000000000E+00  1.
        5    1    4    4  501    0 -1.10158321313E+02  1.63855164485E+02 -6.47853335207E+02  6.77288621728E+02  4.75000000001E+00 0.00000000000E+00  1.
       24    2    4    4    0    0 -9.60736655267E+01  2.20646322367E+01 -3.32586814324E+02  3.55991811551E+02  7.99948974966E+01 0.00000000000E+00  1.
       -3    1    7    7    0  703 -2.59276908502E+01  4.23906065180E+01 -9.19654345276E+01  1.04531573324E+02  1.90734863281E-06 0.00000000000E+00  1.
        4    1    7    7  703    0 -7.01459746765E+01 -2.03259742813E+01 -2.40621379796E+02  2.51460238227E+02  2.69739830470E-06 0.00000000000E+00  1.
</event>
<event>
 9 114   1.0000000E+00   7.4550000E+01   7.8125000E-03   1.3429423E-01
        5   -1    0    0  501    0  0.00000000000E+00  0.00000000000E+00  2.39983718075E+02  2.39983718075E+02  0.00000000000E+00 0.00000000000E+00  1.
        2   -1    0    0  502    0  0.00000000000E+00  0.00000000000E+00 -2.92757129398E+02  2.92757129398E+02  0.00000000000E+00 0.00000000000E+00  1.
       25    1    1    2    0    0 -3.78866812188E+01  1.50112611263E+02 -6.47304439704E+00  1.99088163832E+02  1.25000000000E+02 0.00000000000E+00  1.
        6    2    1    2  501    0 -6.19830119181E+01 -1.34280951193E+02 -1.63206024189E+01  2.28185232038E+02  1.72999625541E+02 0.00000000000E+00  1.
        1    1    1    2  502    0  9.98696931369E+01 -1.58316600709E+01 -2.99797645075E+01  1.05467451604E+02  2.31155388709E-06 0.00000000000E+00  1.
        5    1    4    4  501    0 -5.87158318073E+01 -6.21490173250E+01 -6.63791259386E+01  1.08345743431E+02  4.75000000000E+00 0.00000000000E+00  1.
       24    2    4    4    0    0 -3.26718011076E+00 -7.21319338676E+01  5.00585235197E+01  1.19839488606E+02  8.14982018398E+01 0.00000000000E+00  1.
       -1    1    7    7    0  703 -2.10538018593E+01 -6.95934309945E+01  6.41838247610E+01  9.69849038318E+01  9.53674316406E-07 0.00000000000E+00  1.
        2    1    7    7  703    0  1.77866217486E+01 -2.53850287312E+00 -1.41253012413E+01  2.28545847746E+01  6.30796268240E-07 0.00000000000E+00  1.
</event>
<event>
 9 114   1.0000000E+00   7.4550000E+01   7.8125000E-03   1.3429423E-01
        2   -1    0    0  502    0  0.00000000000E+00  0.00000000000E+00  6.17268174493E+02  6.17268174493E+02  0.00000000000E+00 0.00000000000E+00  1.
        5   -1    0    0  501    0  0.00000000000E+00  0.00000000000E+00 -2.04237152842E+02  2.04237152842E+02  0.00000000000E+00 0.00000000000E+00  1.
       25    1    1    2    0    0  3.85334857824E+01  1.26810273205E+02  3.32152063439E+02  3.78834618487E+02  1.25000000000E+02 0.00000000000E+00  1.
        6    2    1    2  501    0 -5.64667122817E+01 -3.09522215521E+01 -1.19730004248E+02  2.19613939172E+02  1.72477473157E+02 0.00000000000E+00  1.
        1    1    1    2  502    0  1.79332264994E+01 -9.58580516527E+01  2.00608962459E+02  2.23056769676E+02  6.60724947956E-06 0.00000000000E+00  1.
        5    1    4    4  501    0 -1.49969322109E+01 -1.69812776279E+01 -1.25784444422E+02  1.27896679879E+02  4.75000000000E+00 0.00000000000E+00  1.
       24    2    4    4    0    0 -4.14697800709E+01 -1.39709439242E+01  6.05444017377E+00  9.17172592928E+01  8.03770456853E+01 0.00000000000E+00  1.
      -15    1    7    7    0    0 -5.40416417010E+01  1.74882991735E+01 -2.11474403674E+00  5.68679945690E+01  1.77680000000E+00 0.00000000000E+00  1.
       16    1    7    7    0    0  1.25718616301E+01 -3.14592430976E+01  8.16918421052E+00  3.48492647238E+01  2.92001931999E-07 0.00000000000E+00  1.
</event>
<event>
 9 114   1.0000000E+00   7.4550000E+01   7.8125000E-03   1.3429423E-01
        2   -1    0    0  502    0  0.00000000000E+00  0.00000000000E+00  1.87049756846E+03  1.87049756846E+03  0.00000000000E+00 0.00000000000E+00  1.
        5   -1    0    0  501    0  0.00000000000E+00  0.00000000000E+00 -5.72599340524E+01  5.72599340524E+01  0.00000000000E+00 0.00000000000E+00  1.
       25    1    1    2    0    0  4.26649959859E+01  4.87648285123E+01  1.47062698518E+03  1.47735135968E+03  1.25000000000E+02 0.00000000000E+00  1.
        6    2    1    2  501    0 -7.08119726982E+01 -1.88335675850E+01  1.19560352499E+02  2.23603216164E+02  1.74168543783E+02 0.00000000000E+00  1.
        1    1    1    2  502    0  2.81469767123E+01 -2.99312609273E+01  2.23050296720E+02  2.26802926669E+02  2.69739830470E-06 0.00000000000E+00  1.
        5    1    4    4  501    0 -3.29279648780E+01  2.07939630374E+00  1.26315049577E+02  1.30639308823E+02  4.75000000000E+00 0.00000000000E+00  1.
       24    2    4    4    0    0 -3.78840078202E+01 -2.09129638887E+01 -6.75469707839E+00  9.29639073408E+01  8.20006830966E+01 0.00000000000E+00  1.
      -11    1    7    7    0    0  2.20600372370E+01  6.09813919581E+00  1.02105998266E+01  2.50617017305E+01  5.10999042666E-04 0.00000000000E+00  1.
       12    1    7    7    0    0 -5.99440450572E+01 -2.70111030845E+01 -1.69652969050E+01  6.79022056103E+01  9.23391186287E-07 0.00000000000E+00  1.
</event>
<event>
 9 114   1.0000000E+00   7.4550000E+01   7.8125000E-03   1.3429423E-01
        2   -1    0    0  502    0  0.00000000000E+00  0.00000000000E+00  8.82017926562E+02  8.82017926562E+02  0.00000000000E+00 0.00000000000E+00  1.
        5   -1    0    0  501    0  0.00000000000E+00  0.00000000000E+00 -9.95234575708E+01  9.95234575708E+01  0.00000000000E+00 0.00000000000E+00  1.
       25    1    1    2    0    0  1.32193899173E+02 -3.07180344287E+01  5.89870728005E+02  6.18054447743E+02  1.25000000000E+02 0.00000000000E+00  1.
        6    2    1    2  501    0 -8.15345095450E+01  2.24539496358E+01  2.88955507491E+01  1.91901420879E+02  1.69820924450E+02 0.00000000000E+00  1.
        1    1    1    2  502    0 -5.06593896279E+01  8.26408479293E+00  1.63728190237E+02  1.71585515511E+02  1.90734863281E-06 0.00000000000E+00  1.
        5    1    4    4  501    0  5.05076833479E+00  4.61968901234E+01 -3.50082412717E+01  5.83763854207E+01  4.75000000000E+00 0.00000000000E+00  1.
       24    2    4    4    0    0 -8.65852778798E+01 -2.37429404876E+01  6.39037920207E+01  1.33525035458E+02  7.53956423867E+01 0.00000000000E+00  1.
      -11    1    7    7    0    0 -1.68649723579E+01  1.88469491204E+01  4.18546795811E+01  4.89024435675E+01  5.10997707787E-04 0.00000000000E+00  1.
       12    1    7    7    0    0 -6.97203055219E+01 -4.25898896080E+01  2.20491124397E+01  8.46225918905E+01  1.83132785508E-06 0.00000000000E+00  1.
</event>
<event>
 9 114   1.0000000E+00   7.4550000E+01   7.8125000E-03   1.3429423E-01
        4   -1    0    0  502    0  0.00000000000E+00  0.00000000000E+00  1.79701454236E+02  1.79701454236E+02  0.00000000000E+00 0.00000000000E+00  1.
        5   -1    0    0  501    0  0.00000000000E+00  0.00000000000E+00 -5.42371047071E+02  5.42371047071E+02  0.00000000000E+00 0.00000000000E+00  1.
       25    1    1    2    0    0 -3.37914771543E+01 -8.36815343225E+01  1.12507655433E+02  1.90859727669E+02  1.25000000000E+02 0.00000000000E+00  1.
        6    2    1    2  501    0 -6.20436047657E+00  9.07706844892E+01 -4.06846185812E+02  4.51720276042E+02  1.73924057064E+02 0.00000000000E+00  1.
        3    1    1    2  502    0  3.99958376308E+01 -7.08915016671E+00 -6.83310624556E+01  7.94924975968E+01  1.90734863281E-06 0.00000000000E+00  1.
        5    1    4    4  501    0 -1.49011178165E+01  9.74759850031E+01 -1.28660529534E+02  1.62171838876E+02  4.75000000000E+00 0.00000000000E+00  1.
       24    2    4    4    0    0  8.69675733991E+00 -6.70530051391E+00 -2.78185656278E+02  2.89548437165E+02  7.95640840008E+01 0.00000000000E+00  1.
       -1    1    7    7    0  703  2.27674900493E+01 -3.16954429173E+01 -7.69570347365E+01  8.62864120259E+01  1.34869915235E-06 0.00000000000E+00  1.
        4    1    7    7  703    0 -1.40707327094E+01  2.49901424034E+01 -2.01228621541E+02  2.03262025139E+02  4.67203091199E-06 0.00000000000E+00  1.
</event>
<event>
 9 114   1.0000000E+00   7.4550000E+01   7.8125000E-03   1.3429423E-01
        2   -1    0    0  502    0  0.00000000000E+00  0.00000000000E+00  1.71157930748E+03  1.71157930748E+03  0.00000000000E+00 0.00000000000E+00  1.
        5   -1    0    0  501    0  0.00000000000E+00  0.00000000000E+00 -4.81612539700E+02  4.81612539700E+02  0.00000000000E+00 0.00000000000E+00  1.
       25    1    1    2    0    0  7.11706134099E+01 -5.44841350585E+02  1.44148334611E+03  1.54771334253E+03  1.25000000000E+02 0.00000000000E+00  1.
        6    2    1    2  501    0 -5.71986822666E+01  2.58657095232E+02 -5.70110888091E+01  3.19950335111E+02  1.70125749149E+02 0.00000000000E+00  1.
        1    1    1    2  502    0 -1.39719311433E+01  2.86184255354E+02 -1.54505489523E+02  3.25528169541E+02  5.39479660939E-06 0.00000000000E+00  1.
        5    1    4    4  501    0 -7.08560761616E+01  1.97602749580E+02 -1.74869868949E+01  2.10703078718E+02  4.75000000000E+00 0.00000000000E+00  1.
       24    2    4    4    0    0  1.36573938951E+01  6.10543456520E+01 -3.95241019142E+01  1.09247256393E+02  8.03657319153E+01 0.00000000000E+00  1.
      -13    1    7    7    0    0 -1.46174414852E+01  3.56858445757E+01 -5.58746846227E+01  6.78906521133E+01  1.05659999995E-01 0.00000000000E+00  1.
       14    1    7    7    0    0  2.82748353803E+01  2.53685010763E+01  1.63505827085E+01  4.13566042797E+01  1.34869915235E-06 0.00000000000E+00  1.
</event>
<event>
 9 114   1.0000000E+00   7.4550000E+01   7.8125000E-03   1.3429423E-01
        5   -1    0    0  501    0  0.00000000000E+00  0.00000000000E+00  1.58621167617E+02  1.58621167617E+02  0.00000000000E+00 0.00000000000E+00  1.
        2   -1    0    0  502    0  0.00000000000E+00  0.00000000000E+00 -8.52051160003E+02  8.52051160003E+02  0.00000000000E+00 0.00000000000E+00  1.
       25    1    1    2    0    0  2.71120651134E+02 -1.55533037046E+02 -4.32299408509E+02  5.47909400980E+02  1.25000000000E+02 0.00000000000E+00  1.
        6    2    1    2  501    0 -2.16232406462E+02  8.45490379721E+01 -2.22047453319E+02  3.64890874337E+02  1.73018164431E+02 0.00000000000E+00  1.
        1    1    1    2  502    0 -5.48882446728E+01  7.09839990740E+01 -3.90831305579E+01  9.78720523031E+01  9.53674316406E-07 0.00000000000E+00  1.
        5    1    4    4  501    0 -4.06130606928E+01 -3.71747824238E+01 -7.45100884321E+01  9.27669171917E+01  4.75000000000E+00 0.00000000000E+00  1.
       24    2    4    4    0    0 -1.75619345769E+02  1.21723820396E+02 -1.47537364886E+02  2.72123957145E+02  8.13961359942E+01 0.00000000000E+00  1.
       -1    1    7    7    0  703  3.18769407105E+00  1.07203081997E+01 -2.78475613266E+01  3.00095497005E+01  1.43051147461E-06 0.00000000000E+00  1.
        2    1    7    7  703    0 -1.78807039840E+02  1.11003512196E+02 -1.19689803560E+02  2.42114407445E+02  5.22348935609E-06 0.00000000000E+00  1.
</event>
<event>
 9 114   1.0000000E+00   7.4550000E+01   7.8125000E-03   1.3429423E-01
       -3   -1    0    0    0  502  0.00000000000E+00  0.00000000000E+00  2.41969293687E+02  2.41969293687E+02  0.00000000000E+00 0.00000000000E+00  1.
        5   -1    0    0  501    0  0.00000000000E+00  0.00000000000E+00 -1.45083523531E+03  1.45083523531E+03  0.00000000000E+00 0.00000000000E+00  1.
       25    1    1    2    0    0 -1.99972755816E+02  8.91799910280E+01  2.83001627009E+01  2.53708638160E+02  1.25000000000E+02 0.00000000000E+00  1.
        6    2    1    2  501    0  7.58135388767E+01 -2.06061466439E+02 -1.23851020561E+03  1.26857141443E+03  1.64793457020E+02 0.00000000000E+00  1.
       -4    1    1    2    0  502  1.24159216939E+02  1.16881475411E+02  1.34410128843E+00  1.70524476405E+02  2.13662543358E-05 0.00000000000E+00  1.
        5    1    4    4  501    0  5.37633039904E+01 -1.09743725084E+02 -3.43534345664E+02  3.64654065111E+02  4.74999999999E+00 0.00000000000E+00  1.
       24    2    4    4    0    0  2.20502348863E+01 -9.63177413552E+01 -8.94975859948E+02  9.03917349319E+02  7.95076370696E+01 0.00000000000E+00  1.
      -11    1    7    7    0    0  9.26973133219E-01  4.61390293902E+00 -2.18067632394E+00  5.18678407218E+00  5.11104938043E-04 0.00000000000E+00  1.
       12    1    7    7    0    0  2.11232617531E+01 -1.00931644294E+02 -8.92795183624E+02  8.98730565247E+02  1.07895932188E-05 0.00000000000E+00  1.
</event>
<event>
 9 114   1.0000000E+00   7.4550000E+01   7.8125000E-03   1.3429423E-01
        5   -1    0    0  501    0  0.00000000000E+00  0.00000000000E+00  1.05576034737E+03  1.05576034737E+03  0.00000000000E+00 0.00000000000E+00  1.
       -1   -1    0    0    0  502  0.00000000000E+00  0.00000000000E+00 -3.55276866231E+02  3.55276866231E+02  0.00000000000E+00 0.00000000000E+00  1.
       25    1    1    2    0    0  8.37338350455E+01 -1.95766132735E+02  3.16756532409E+02  4.01616028915E+02  1.25000000000E+02 0.00000000000E+00  1.
        6    2    1    2  501    0 -8.84345624683E+01 -8.29164024569E+00  6.47622890066E+02  6.75800532737E+02  1.71468741098E+02 0.00000000000E+00  1.
       -2    1    1    2    0  502  4.70072742278E+00  2.04057772981E+02 -2.63895941337E+02  3.33620651948E+02  7.62939453125E-06 0.00000000000E+00  1.
        5    1    4    4  501    0  1.80066496604E+01 -4.84101668584E+01  1.32376027586E+02  1.42175099321E+02  4.75000000000E+00 0.00000000000E+00  1.
       24    2    4    4    0    0 -1.06441212129E+02  4.01185266127E+01  5.15246862479E+02  5.33625433416E+02  7.96087060393E+01 0.00000000000E+00  1.
      -11    1    7    7    0    0  1.14449917881E+01  1.29510384350E+01  4.98056843779E+01  5.27192889765E+01  5.10987028629E-04 0.00000000000E+00  1.
       12    1    7    7    0    0 -1.17886203917E+02  2.71674881776E+01  4.65441178101E+02  4.80906144440E+02  7.62939453125E-06 0.00000000000E+00  1.
</event>
<event>
 9 114   1.0000000E+00   7.4550000E+01   7.8125000E-03   1.3429423E-01
       -1   -1    0    0    0  502  0.00000000000E+00  0.00000000000E+00  5.15219411500E+02  5.15219411500E+02  0.00000000000E+00 0.00000000000E+00  1.
        5   -1    0    0  501    0  0.00000000000E+00  0.00000000000E+00 -5.27384142023E+02  5.27384142023E+02  0.00000000000E+00 0.00000000000E+00  1.
       25    1    1    2    0    0 -1.18617575623E+02 -9.10084695880E+01  3.15511215844E+02  3.70843630264E+02  1.25000000000E+02 0.00000000000E+00  1.
        6    2    1    2  501    0  7.99001354125E+01  4.20675884958E+01 -4.73555901145E+02  5.13092941111E+02  1.75657226062E+02 0.00000000000E+00  1.
       -2    1    1    2    0  502  3.87174402107E+01  4.89408810922E+01  1.45879954777E+02  1.58666982149E+02  9.53674316406E-06 0.00000000000E+00  1.
        5    1    4    4  501    0  1.07846573371E+02  2.44734815748E+01 -2.49390646253E+02  2.72851775927E+02  4.75000000000E+00 0.00000000000E+00  1.
       24    2    4    4    0    0 -2.79464379581E+01  1.75941069210E+01 -2.24165254892E+02  2.40241165183E+02  7.98448492710E+01 0.00000000000E+00  1.
      -15    1    7    7    0    0 -1.37996036536E+00 -2.14915705225E+01 -1.54834576101E+02  1.56335200350E+02  1.77680000000E+00 0.00000000000E+00  1.
       16    1    7    7    0    0 -2.65664775928E+01  3.90856774435E+01 -6.93306787912E+01  8.39059648330E+01  1.90734863281E-06 0.00000000000E+00  1.
</event>
<event>
 9 114   1.0000000E+00   7.4550000E+01   7.8125000E-03   1.3429423E-01
        5   -1    0    0  501    0  0.00000000000E+00  0.00000000000E+00  2.25499492692E+02  2.25499492692E+02  0.00000000000E+00 0.00000000000E+00  1.
        2   -1    0    0  502    0  0.00000000000E+00  0.00000000000E+00 -2.43560925981E+03  2.43560925981E+03  0.00000000000E+00 0.00000000000E+00  1.
       25    1    1    2    0    0 -4.46205645983E+02 -2.09002678579E+02 -6.61545523712E+02  8.34295558003E+02  1.25000000000E+02 0.00000000000E+00  1.
        6    2    1    2  501    0 -2.57673312271E+01  2.67957689269E+02 -1.58992180153E+02  3.58091061666E+02  1.74600734529E+02 0.00000000000E+00  1.
        1    1    1    2  502    0  4.71972977210E+02 -5.89550106904E+01 -1.38957206325E+03  1.46872213283E+03  3.41196895981E-05 0.00000000000E+00  1.
        5    1    4    4  501    0 -4.35934352700E+01  2.15538215071E+02 -8.13783216723E+01  2.34525272610E+02  4.75000000000E+00 0.00000000000E+00  1.
       24    2    4    4    0    0  1.78261040429E+01  5.24194741985E+01 -7.76138584802E+01  1.23565789056E+02  7.86067550288E+01 0.00000000000E+00  1.
       -3    1    7    7    0  703  4.25053359531E-01 -8.67679328862E+00  1.13227461444E+01  1.42713696743E+01  1.50789149292E-06 0.00000000000E+00  1.
        4    1    7    7  703    0  1.74010506833E+01  6.10962674871E+01 -8.89366046246E+01  1.09294419381E+02  0.00000000000E+00 0.00000000000E+00  1.
</event>
<event>
 9 114   1.0000000E+00   7.4550000E+01   7.8125000E-03   1.3429423E-01
        2   -1    0    0  502    0  0.00000000000E+00  0.00000000000E+00  2.42417547283E+02  2.42417547283E+02  0.00000000000E+00 0.00000000000E+00  1.
        5   -1    0    0  501    0  0.00000000000E+00  0.00000000000E+00 -3.48065958948E+02  3.48065958948E+02  0.00000000000E+00 0.00000000000E+00  1.
       25    1    1    2    0    0  6.78986514312E+01  7.91336950136E+00  4.56103842240E+01  1.49593300091E+02  1.25000000000E+02 0.00000000000E+00  1.
        6    2    1    2  501    0 -1.68327994402E+02 -7.14211053287E+01 -1.90113005339E+02  3.15874467006E+02  1.73776972356E+02 0.00000000000E+00  1.
        1    1    1    2  502    0  1.00429342971E+02  6.35077358273E+01  3.88542094506E+01  1.25015739135E+02  3.60004159702E-06 0.00000000000E+00  1.
        5    1    4    4  501    0 -7.12594077182E+01 -5.27746676973E+01 -1.61135284182E+00  8.88156951045E+01  4.75000000000E+00 0.00000000000E+00  1.
       24    2    4    4    0    0 -9.70685866837E+01 -1.86464376314E+01 -1.88501652498E+02  2.27058771901E+02  7.90747288694E+01 0.00000000000E+00  1.
       -3    1    7    7    0  703 -1.75495895066E+01 -2.25538291494E+01 -1.15697825538E+02  1.19174872081E+02  0.00000000000E+00 0.00000000000E+00  1.
        4    1    7    7  703    0 -7.95189971771E+01  3.90739151804E+00 -7.28038269591E+01  1.07883899820E+02  1.34869915235E-06 0.00000000000E+00  1.
</event>
<event>
 9 114   1.0000000E+00   7.4550000E+01   7.8125000E-03   1.3429423E-01
        5   -1    0    0  501    0  0.00000000000E+00  0.00000000000E+00  7.02536219094E+01  7.02536219094E+01  0.00000000000E+00 0.00000000000E+00  1.
        2   -1    0    0  502    0  0.00000000000E+00  0.00000000000E+00 -1.87616222748E+03  1.87616222748E+03  0.00000000000E+00 0.00000000000E+00  1.
       25    1    1    2    0    0 -9.41663959352E+01 -8.43816613480E+01 -7.70601460541E+02  7.90847131805E+02  1.25000000000E+02 0.00000000000E+00  1.
        6    2    1    2  501    0  7.82889954691E+01  2.37709401248E+02 -3.99184431035E+02  5.01035605414E+02  1.70450994888E+02 0.00000000000E+00  1.
        1    1    1    2  502    0  1.58774004661E+01 -1.53327739900E+02 -6.36122713996E+02  6.54533112173E+02  7.62939453125E-06 0.00000000000E+00  1.
        5    1    4    4  501    0 -3.41127468446E+01  1.01467853645E+01 -5.42943261313E+01  6.50928037541E+01  4.75000000000E+00 0.00000000000E+00  1.
       24    2    4    4    0    0  1.12401742314E+02  2.27562615884E+02 -3.44890104904E+02  4.35942801660E+02  8.17193125002E+01 0.00000000000E+00  1.
       -1    1    7    7    0  703  3.45166977096E+01  1.06943905327E+02 -2.13739947905E+02  2.41481193135E+02  4.67203091199E-06 0.00000000000E+00  1.
        2    1    7    7  703    0  7.78850446041E+01  1.20618710557E+02 -1.31150156998E+02  1.94461608525E+02  5.39479660939E-06 0.00000000000E+00  1.
</event>
<event>
 9 114   1.0000000E+00   7.4550000E+01   7.8125000E-03   1.3429423E-01
        5   -1    0    0  501    0  0.00000000000E+00  0.00000000000E+00  9.18994939744E+01  9.18994939744E+01  0.00000000000E+00 0.00000000000E+00  1.
        2   -1    0    0  502    0  0.00000000000E+00  0.00000000000E+00 -2.61484561387E+03  2.61484561387E+03  0.00000000000E+00 0.00000000000E+00  1.
       25    1    1    2    0    0 -2.56265593550E+02 -6.67867782231E+01 -1.08360897650E+03  1.12248204535E+03  1.25000000000E+02 0.00000000000E+00  1.
        6    2    1    2  501    0  4.64441675091E+01 -8.56975795228E+01 -1.07344562270E+02  2.27251365286E+02  1.74983405339E+02 0.00000000000E+00  1.
        1    1    1    2  502    0  2.09821426041E+02  1.52484357746E+02 -1.33199258113E+03  1.35701169721E+03  1.52587890625E-05 0.00000000000E+00  1.
        5    1    4    4  501    0  8.08125039299E+01 -2.68308869228E+01 -1.31215153195E+01  8.62861167788E+01  4.75000000000E+00 0.00000000000E+00  1.
       24    2    4    4    0    0 -3.43683364208E+01 -5.88666926000E+01 -9.42230469501E+01  1.40965248508E+02  7.96664839457E+01 0.00000000000E+00  1.
      -15    1    7    7    0    0 -4.32432939995E+01 -3.98440535711E+01 -1.74307381933E+01  6.13556740091E+01  1.77680000000E+00 0.00000000000E+00  1.
       16    1    7    7    0    0  8.87495757868E+00 -1.90226390289E+01 -7.67923087568E+01  7.96095744986E+01  1.65181236989E-06 0.00000000000E+00  1.
</event>
<event>
 9 114   1.0000000E+00   7.4550000E+01   7.8125000E-03   1.3429423E-01
        5   -1    0    0  501    0  0.00000000000E+00  0.00000000000E+00  8.15552186614E+01  8.15552186614E+01  0.00000000000E+00 0.00000000000E+00  1.
        2   -1    0    0  502    0  0.00000000000E+00  0.00000000000E+00 -1.56206785551E+03  1.56206785551E+03  0.00000000000E+00 0.00000000000E+00  1.
       25    1    1    2    0    0 -2.22710194088E+01 -1.83433791203E+02 -2.88855666695E+02  3.64974725485E+02  1.25000000000E+02 0.00000000000E+00  1.
        6    2    1    2  501    0  1.49434263325E+02  5.81911457536E+01 -9.41575141780E+02  9.71407186528E+02  1.77063169293E+02 0.00000000000E+00  1.
        1    1    1    2  502    0 -1.27163243916E+02  1.25242645450E+02 -2.50081828376E+02  3.07241162161E+02  3.81469726562E-06 0.00000000000E+00  1.
        5    1    4    4  501    0  1.46211571111E+02  1.62370959989E+01 -4.66814748097E+02  4.89469139328E+02  4.75000000001E+00 0.00000000000E+00  1.
       24    2    4    4    0    0  3.22269221386E+00  4.19540497547E+01 -4.74760393683E+02  4.81938047200E+02  7.13885277409E+01 0.00000000000E+00  1.
       -3    1    7    7    0  703  1.64525572684E+01  4.08109033372E+01 -1.36500088318E+02  1.43417190680E+02  3.81469726562E-06 0.00000000000E+00  1.
        4    1    7    7  703    0 -1.32298650545E+01  1.14314641753E+00 -3.38260305365E+02  3.38520856519E+02  0.00000000000E+00 0.00000000000E+00  1.
</event>
<event>
 9 114   1.0000000E+00   7.4550000E+01   7.8125000E-03   1.3429423E-01
        5   -1    0    0  501    0  0.00000000000E+00  0.00000000000E+00  2.03720137691E+02  2.03720137691E+02  0.00000000000E+00 0.00000000000E+00  1.
        4   -1    0    0  502    0  0.00000000000E+00  0.00000000000E+00 -1.17634626384E+03  1.17634626384E+03  0.00000000000E+00 0.00000000000E+00  1.
       25    1    1    2    0    0 -4.07880250080E+01  1.99064718203E+02 -6.90605012578E+02  7.30650879980E+02  1.25000000000E+02 0.00000000000E+00  1.
        6    2    1    2  501    0  1.04794368148E+02 -1.81288823818E+02  7.89060467521E+01  2.82426135544E+02  1.72310361230E+02 0.00000000000E+00  1.
        3    1    1    2  502    0 -6.40063431398E+01 -1.77758943844E+01 -3.60927160321E+02  3.66989386006E+02  8.52992239952E-06 0.00000000000E+00  1.
        5    1    4    4  501    0  7.97940637367E+01 -6.91296348310E+01  9.09451415144E+01  1.39425895316E+02  4.75000000000E+00 0.00000000000E+00  1.
       24    2    4    4    0    0  2.50003044112E+01 -1.12159188987E+02 -1.20390947623E+01  1.43000240228E+02  8.42581153815E+01 0.00000000000E+00  1.
       -1    1    7    7    0  703 -2.12800011207E+01 -4.07468985138E+00 -1.32894804514E+01  2.54175497589E+01  6.30796268240E-07 0.00000000000E+00  1.
        2    1    7    7  703    0  4.62803055318E+01 -1.08084499136E+02  1.25038568911E+00  1.17582690469E+02  1.57649778399E-06 0.00000000000E+00  1.
</event>
<event>
 9 114   1.0000000E+00   7.4550000E+01   7.8125000E-03   1.3429423E-01
        2   -1    0    0  502    0  0.00000000000E+00  0.00000000000E+00  6.60850921742E+02  6.60850921742E+02  0.00000000000E+00 0.00000000000E+00  1.
        5   -1    0    0  501    0  0.00000000000E+00  0.00000000000E+00 -4.08278902873E+02  4.08278902873E+02  0.00000000000E+00 0.00000000000E+00  1.
       25    1    1    2    0    0  3.81436866037E+02  1.30564116770E+02  4.03505346312E+02  5.83937184860E+02  1.25000000000E+02 0.00000000000E+00  1.
        6    2    1    2  501    0 -3.80538354684E+02 -1.04454667027E+02 -1.21233693382E+02  4.45637880852E+02  1.67854983812E+02 0.00000000000E+00  1.
        1    1    1    2  502    0 -8.98511352961E-01 -2.61094497427E+01 -2.96996340609E+01  3.95547589029E+01  7.53945746462E-07 0.00000000000E+00  1.
        5    1    4    4  501    0 -5.03157739465E+01 -3.11332490064E+01  2.97890739466E+01  6.64146650080E+01  4.75000000000E+00 0.00000000000E+00  1.
       24    2    4    4    0    0 -3.30222580737E+02 -7.33214180209E+01 -1.51022767328E+02  3.79223215844E+02  8.11134268446E+01 0.00000000000E+00  1.
       -3    1    7    7    0  703 -2.01132599724E+02 -7.16075150864E+01 -1.25403188594E+02  2.47604359005E+02  4.04609745705E-06 0.00000000000E+00  1.
        4    1    7    7  703    0 -1.29089981013E+02 -1.71390293445E+00 -2.56195787342E+01  1.31618856839E+02  1.87730976916E-06 0.00000000000E+00  1.
</event>
<event>
 9 114   1.0000000E+00   7.4550000E+01   7.8125000E-03   1.3429423E-01
        2   -1    0    0  502    0  0.00000000000E+00  0.00000000000E+00  6.98376949505E+02  6.98376949505E+02  0.00000000000E+00 0.00000000000E+00  1.
        5   -1    0    0  501    0  0.00000000000E+00  0.00000000000E+00 -5.55401782658E+02  5.55401782658E+02  0.00000000000E+00 0.00000000000E+00  1.
       25    1    1    2    0    0 -8.84691624347E+01  8.96942725268E+01  4.44444488282E+02  4.78568446923E+02  1.25000000000E+02 0.00000000000E+00  1.
        6    2    1    2  501    0  6.25997423227E+01 -1.06146331034E+02 -5.16761968547E+02  5.57745757038E+02  1.69857664022E+02 0.00000000000E+00  1.
        1    1    1    2  502    0  2.58694201120E+01  1.64520585072E+01  2.15292647111E+02  2.17464528202E+02  1.34869915235E-05 0.00000000000E+00  1.
        5    1    4    4  501    0  1.23861978750E+01 -7.52241559050E+01 -8.42529776086E+01  1.13724308155E+02  4.75000000000E+00 0.00000000000E+00  1.
       24    2    4    4    0    0  5.02135444477E+01 -3.09221751290E+01 -4.32508990938E+02  4.44021448883E+02  8.13230524849E+01 0.00000000000E+00  1.
      -11    1    7    7    0    0 -1.55735106699E+01 -2.07403848500E+01 -2.14850069968E+02  2.16409912813E+02  5.11005717009E-04 0.00000000000E+00  1.
       12    1    7    7    0    0  6.57870551176E+01 -1.01817902790E+01 -2.17658920970E+02  2.27611536070E+02  2.69739830470E-06 0.00000000000E+00  1.
</event>
<event>
 9 114   1.0000000E+00   7.4550000E+01   7.8125000E-03   1.3429423E-01
        5   -1    0    0  501    0  0.00000000000E+00  0.00000000000E+00  1.46344920148E+02  1.46344920148E+02  0.00000000000E+00 0.00000000000E+00  1.
        4   -1    0    0  502    0  0.00000000000E+00  0.00000000000E+00 -2.46261966613E+03  2.46261966613E+03  0.00000000000E+00 0.00000000000E+00  1.
       25    1    1    2    0    0 -2.63819072676E+02 -1.02350173933E+02 -7.08726189227E+02  7.73300635269E+02  1.25000000000E+02 0.00000000000E+00  1.
        6    2    1    2  501    0  1.23103332369E+02  1.62488904001E+02 -5.33933433252E+01  2.73993046543E+02  1.75112152858E+02 0.00000000000E+00  1.
        3    1    1    2  502    0  1.40715740307E+02 -6.01387300679E+01 -1.55415521343E+03  1.56167090447E+03  2.15791864376E-05 0.00000000000E+00  1.
        5    1    4    4  501    0  6.18934862057E+01  1.52237869110E+02 -1.64119101894E+01  1.65224349664E+02  4.75000000000E+00 0.00000000000E+00  1.
       24    2    4    4    0    0  6.12098461628E+01  1.02510348909E+01 -3.69814331358E+01  1.08768696879E+02  8.13097413617E+01 0.00000000000E+00  1.
       -3    1    7    7    0  703  5.45312001999E+01 -2.13860706888E+01  1.38857320101E+00  5.85913299924E+01  1.20044553644E-06 0.00000000000E+00  1.
        4    1    7    7  703    0  6.67864596295E+00  3.16371055797E+01 -3.83700063368E+01  5.01773668863E+01  1.06624029994E-06 0.00000000000E+00  1.
</event>
<event>
 9 114   1.0000000E+00   7.4550000E+01   7.8125000E-03   1.3429423E-01
        2   -1    0    0  502    0  0.00000000000E+00  0.00000000000E+00  2.64548456947E+03  2.64548456947E+03  0.00000000000E+00 0.00000000000E+00  1.
        5   -1    0    0  501    0  0.00000000000E+00  0.00000000000E+00 -1.10446090168E+02  1.10446090168E+02  0.00000000000E+00 0.00000000000E+00  1.
       25    1    1    2    0    0  3.61321607526E+01 -3.75180441781E+02  2.02132993227E+03  2.05996737644E+03  1.25000000000E+02 0.00000000000E+00  1.
        6    2    1    2  501    0  4.60106679254E+01  3.04766842082E+02  4.41596460169E+02  5.65941468109E+02  1.74018683181E+02 0.00000000000E+00  1.
        1    1    1    2  502    0 -8.21428286780E+01  7.04135996990E+01  7.21120868655E+01  1.30021815085E+02  3.69356474515E-06 0.00000000000E+00  1.
        5    1    4    4  501    0  7.56293485942E+01  1.31009005057E+02  2.58713097957E+02  2.99730190888E+02  4.75000000000E+00 0.00000000000E+00  1.
       24    2    4    4    0    0 -2.96186806687E+01  1.73757837025E+02  1.82883362211E+02  2.66211277221E+02  7.97061338533E+01 0.00000000000E+00  1.
      -13    1    7    7    0    0  1.09888292050E+01  9.88567960457E+01  5.83375416376E+01  1.15311319566E+02  1.05659999969E-01 0.00000000000E+00  1.
       14    1    7    7    0    0 -4.06075098737E+01  7.49010409795E+01  1.24545820574E+02  1.50899957655E+02  3.30362473978E-06 0.00000000000E+00  1.
</event>
<event>
 9 114   1.0000000E+00   7.4550000E+01   7.8125000E-03   1.3429423E-01
        5   -1    0    0  501    0  0.00000000000E+00  0.00000000000E+00  1.68735918529E+02  1.68735918529E+02  0.00000000000E+00 0.00000000000E+00  1.
        2   -1    0    0  502    0  0.00000000000E+00  0.00000000000E+00 -2.65510434859E+03  2.65510434859E+03  0.00000000000E+00 0.00000000000E+00  1.
       25    1    1    2    0    0  9.78404874139E+01 -1.74320038064E+02 -1.06079886850E+03  1.08668278538E+03  1.25000000000E+02 0.00000000000E+00  1.
        6    2    1    2  501    0 -1.40856428591E+02  1.28450860868E+02  4.79720861989E+01  2.62274659167E+02  1.73627528501E+02 0.00000000000E+00  1.
        1    1    1    2  502    0  4.30159411769E+01  4.58691771954E+01 -1.47354164777E+03  1.47488282257E+03  2.15791864376E-05 0.00000000000E+00  1.
        5    1    4    4  501    0 -8.81600159493E+01  1.06138337059E+02  8.12685037182E+01  1.60201957549E+02  4.75000000000E+00 0.00000000000E+00  1.
       24    2    4    4    0    0 -5.26964126415E+01  2.23125238092E+01 -3.32964175193E+01  1.02072701618E+02  7.76879937436E+01 0.00000000000E+00  1.
       -1    1    7    7    0  703 -1.93690891332E+00 -3.80283678297E+00 -4.38198562742E+01  4.40271846434E+01  1.16800772800E-06 0.00000000000E+00  1.
        2    1    7    7  703    0 -5.07595037282E+01  2.61153605922E+01  1.05234387549E+01  5.80455169743E+01  8.08516738787E-07 0.00000000000E+00  1.
</event>
<event>
 9 114   1.0000000E+00   7.4550000E+01   7.8125000E-03   1.3429423E-01
        5   -1    0    0  501    0  0.00000000000E+00  0.00000000000E+00  1.08288033612E+01  1.08288033612E+01  0.00000000000E+00 0.00000000000E+00  1.
        2   -1    0    0  502    0  0.00000000000E+00  0.00000000000E+00 -2.84583482992E+03  2.84583482992E+03  0.00000000000E+00 0.00000000000E+00  1.
       25    1    1    2    0    0 -5.78131337455E+01 -6.29836565085E+01 -1.26630666396E+03  1.27533010104E+03  1.25000000000E+02 0.00000000000E+00  1.
        6    2    1    2  501    0  5.34175452660E+01  6.69312916997E+01 -1.54025223946E+03  1.55227937872E+03  1.72803577834E+02 0.00000000000E+00  1.
        1    1    1    2  502    0  4.39558847948E+00 -3.94763519125E+00 -2.84471231414E+01  2.90541535190E+01  7.53945746462E-07 0.00000000000E+00  1.
        5    1    4    4  501    0  5.84204534754E+01 -9.99986879106E+00 -9.16983466082E+02  9.18909237263E+02  4.75000000000E+00 0.00000000000E+00  1.
       24    2    4    4    0    0 -5.00290820941E+00  7.69311604908E+01 -6.23268773375E+02  6.33370141462E+02  8.21604508626E+01 0.00000000000E+00  1.
       -3    1    7    7    0  703 -1.89273326277E+01 -1.12993146727E+01 -1.66176124410E+02  1.67631807114E+02  6.32595975944E-06 0.00000000000E+00  1.
        4    1    7    7  703    0  1.39244244183E+01  8.82304751635E+01 -4.57092648965E+02  4.65738334347E+02  0.00000000000E+00 0.00000000000E+00  1.
</event>
<event>
 9 114   1.0000000E+00   7.4550000E+01   7.8125000E-03   1.3429423E-01
        2   -1    0    0  502    0  0.00000000000E+00  0.00000000000E+00  1.13313837740E+03  1.13313837740E+03  0.00000000000E+00 0.00000000000E+00  1.
        5   -1    0    0  501    0  0.00000000000E+00  0.00000000000E+00 -2.06202050888E+02  2.06202050888E+02  0.00000000000E+00 0.00000000000E+00  1.
       25    1    1    2    0    0 -1.58298025761E+02  1.80395230087E+02 -3.91054771300E+01  2.73413500653E+02  1.25000000000E+02 0.00000000000E+00  1.
        6    2    1    2  501    0  1.70984624947E+02 -2.32819080163E+02  5.33617817938E+02  6.30152085236E+02  1.70009437534E+02 0.00000000000E+00  1.
        1    1    1    2  502    0 -1.26865991858E+01  5.24238500763E+01  4.32423985702E+02  4.35774842397E+02  9.34406182397E-06 0.00000000000E+00  1.
        5    1    4    4  501    0 -5.60141493354E+00 -1.05152701781E+01 -6.64413694954E+00  1.44448541696E+01  4.75000000000E+00 0.00000000000E+00  1.
       24    2    4    4    0    0  1.76586039881E+02 -2.22303809985E+02  5.40261954887E+02  6.15707231067E+02  8.13068328903E+01 0.00000000000E+00  1.
      -15    1    7    7    0    0  1.24525213700E+02 -1.15934144103E+02  3.80759840904E+02  4.17047321151E+02  1.77680000000E+00 0.00000000000E+00  1.
       16    1    7    7    0    0  5.20608261809E+01 -1.06369665882E+02  1.59502113983E+02  1.98659909916E+02  1.90734863281E-06 0.00000000000E+00  1.
</event>
<event>
 9 114   1.0000000E+00   7.4550000E+01   7.8125000E-03   1.3429423E-01
        2   -1    0    0  502    0  0.00000000000E+00  0.00000000000E+00  6.28524638416E+02  6.28524638416E+02  0.00000000000E+00 0.00000000000E+00  1.
        5   -1    0    0  501    0  0.00000000000E+00  0.00000000000E+00 -9.19186397145E+01  9.19186397145E+01  0.00000000000E+00 0.00000000000E+00  1.
       25    1    1    2    0    0 -2.14875681488E+01 -7.69720622475E+00  7.51812826102E+01  1.47642093671E+02  1.25000000000E+02 0.00000000000E+00  1.
        6    2    1    2  501    0 -2.32456456048E+01 -1.53744669558E+01  8.82751130317E+01  1.96272316005E+02  1.73071061057E+02 0.00000000000E+00  1.
        1    1    1    2  502    0  4.47332137536E+01  2.30716731806E+01  3.73149603059E+02  3.76528868454E+02  7.62939453125E-06 0.00000000000E+00  1.
        5    1    4    4  501    0  1.48531527664E+01 -6.04773291083E+01  3.13186446494E-01  6.24562572440E+01  4.75000000000E+00 0.00000000000E+00  1.
       24    2    4    4    0    0 -3.80987983712E+01  4.51028621524E+01  8.79619265852E+01  1.33816058761E+02  8.17535958972E+01 0.00000000000E+00  1.
       -1    1    7    7    0  703  1.51848048512E+01  1.56194234059E+01 -5.31248549795E+00  2.24224706058E+01  1.37478859361E-06 0.00000000000E+00  1.
        2    1    7    7  703    0 -5.32836032224E+01  2.94834387465E+01  9.32744120832E+01  1.11393588155E+02  1.34869915235E-06 0.00000000000E+00  1.
</event>
<event>
 9 114   1.0000000E+00   7.4550000E+01   7.8125000E-03   1.3429423E-01
        2   -1    0    0  502    0  0.00000000000E+00  0.00000000000E+00  9.07087054825E+02  9.07087054825E+02  0.00000000000E+00 0.00000000000E+00  1.
        5   -1    0    0  501    0  0.00000000000E+00  0.00000000000E+00 -9.36463074289E+01  9.36463074289E+01  0.00000000000E+00 0.00000000000E+00  1.
       25    1    1    2    0    0 -1.27065503956E+02  6.98668758617E+01  6.72227702683E+02  6.98957872045E+02  1.25000000000E+02 0.00000000000E+00  1.
        6    2    1    2  501    0  8.89078595421E+01 -9.67244881565E+01  9.00412947964E+01  2.32523160610E+02  1.69408829032E+02 0.00000000000E+00  1.
        1    1    1    2  502    0  3.81576444138E+01  2.68576122948E+01  5.11717499168E+01  6.92523295993E+01  6.74349576174E-07 0.00000000000E+00  1.
        5    1    4    4  501    0  1.03060335534E+02 -6.87340890857E+01  7.81057056193E+01  1.46522597278E+02  4.75000000000E+00 0.00000000000E+00  1.
       24    2    4    4    0    0 -1.41524759918E+01 -2.79903990708E+01  1.19355891771E+01  8.60005633324E+01  7.91825964947E+01 0.00000000000E+00  1.
       -1    1    7    7    0  703 -3.68628437773E+01 -1.34724266207E+01  3.34064920836E+01  5.15399771413E+01  6.74349576174E-07 0.00000000000E+00  1.
        2    1    7    7  703    0  2.27103677855E+01 -1.45179724501E+01 -2.14709029065E+01  3.44605861911E+01  5.84003863998E-07 0.00000000000E+00  1.
</event>
<event>
 9 114   1.0000000E+00   7.4550000E+01   7.8125000E-03   1.3429423E-01
        2   -1    0    0  502    0  0.00000000000E+00  0.00000000000E+00  6.39659996904E+02  6.39659996904E+02  0.00000000000E+00 0.00000000000E+00  1.
        5   -1    0    0  501    0  0.00000000000E+00  0.00000000000E+00 -4.25290955373E+02  4.25290955373E+02  0.00000000000E+00 0.00000000000E+00  1.
       25    1    1    2    0    0 -6.45558629761E+01 -3.71647354247E+02  8.11265128187E+00  3.97467018096E+02  1.25000000000E+02 0.00000000000E+00  1.
        6    2    1    2  501    0 -2.31206032187E+01  3.06143805725E+02 -7.92501912094E+01  3.61719505823E+02  1.74074168127E+02 0.00000000000E+00  1.
        1    1    1    2  502    0  8.76764661947E+01  6.55035485216E+01  2.85506581458E+02  3.05764428358E+02  3.81469726562E-06 0.00000000000E+00  1.
        5    1    4    4  501    0 -7.47360146906E+01  9.02709539182E+01 -3.28599927730E+01  1.21805823499E+02  4.75000000000E+00 0.00000000000E+00  1.
       24    2    4    4    0    0  5.16154114719E+01  2.15872851807E+02 -4.63901984364E+01  2.39913682325E+02  7.83663550687E+01 0.00000000000E+00  1.
      -13    1    7    7    0    0  2.10914130715E+01  5.99614171367E+01  2.15616826443E+01  6.71203141596E+01  1.05660000003E-01 0.00000000000E+00  1.
       14    1    7    7    0    0  3.05239984004E+01  1.55911434670E+02 -6.79518810808E+01  1.72793368165E+02  2.33601545599E-06 0.00000000000E+00  1.
</event>
<event>
 9 114   1.0000000E+00   7.4550000E+01   7.8125000E-03   1.3429423E-01
        4   -1    0    0  502    0  0.00000000000E+00  0.00000000000E+00  1.55433158166E+02  1.55433158166E+02  0.00000000000E+00 0.00000000000E+00  1.
        5   -1    0    0  501    0  0.00000000000E+00  0.00000000000E+00 -3.66195532493E+02  3.66195532493E+02  0.00000000000E+00 0.00000000000E+00  1.
       25    1    1    2    0    0  2.82255422445E+01 -1.36265841399E+02 -3.44297389171E+01  1.90198495496E+02  1.25000000000E+02 0.00000000000E+00  1.
        6    2    1    2  501    0 -2.38433847745E+01  8.11944864169E+01 -1.94175449777E+02  2.73374846846E+02  1.72825489931E+02 0.00000000000E+00  1.
        3    1    1    2  502    0 -4.38215746998E+00  5.50713549818E+01  1.78428143681E+01  5.80553483169E+01  1.01152436426E-06 0.00000000000E+00  1.
        5    1    4    4  501    0 -1.96891137366E+01 -1.05384959013E+00  2.11457942209E+01  2.92998107831E+01  4.75000000000E+00 0.00000000000E+00  1.
       24    2    4    4    0    0 -4.15427103790E+00  8.22483360070E+01 -2.15321243998E+02  2.44075036063E+02  8.01706827248E+01 0.00000000000E+00  1.
       -3    1    7    7    0  703 -1.41200621684E+01 -9.06477429448E+00 -1.10210571111E+01  2.00751086796E+01  4.11919416026E-06 0.00000000000E+00  1.
        4    1    7    7  703    0  9.96579113053E+00  9.13131103015E+01 -2.04300186887E+02  2.23999927384E+02  3.81469726562E-06 0.00000000000E+00  1.
</event>
<event>
 9 114   1.0000000E+00   7.4550000E+01   7.8125000E-03   1.3429423E-01
        2   -1    0    0  502    0  0.00000000000E+00  0.00000000000E+00  1.25755302687E+03  1.25755302687E+03  0.00000000000E+00 0.00000000000E+00  1.
        5   -1    0    0  501    0  0.00000000000E+00  0.00000000000E+00 -3.71003845190E+02  3.71003845190E+02  0.00000000000E+00 0.00000000000E+00  1.
       25    1    1    2    0    0 -1.16985618288E+02 -2.11798227205E+02  1.16116314847E+03  1.19267304040E+03  1.25000000000E+02 0.00000000000E+00  1.
        6    2    1    2  501    0  9.60117138562E+01  1.54083565414E+02 -2.78131684787E+02  3.74375611128E+02  1.72742206183E+02 0.00000000000E+00  1.
        1    1    1    2  502    0  2.09739044318E+01  5.77146617917E+01  3.51771799721E+00  6.15082205299E+01  3.31864617040E-07 0.00000000000E+00  1.
        5    1    4    4  501    0  6.12112671494E+01  1.50617250041E+02 -1.68878984016E+02  2.34467586200E+02  4.75000000000E+00 0.00000000000E+00  1.
       24    2    4    4    0    0  3.48004467068E+01  3.46631537243E+00 -1.09252700771E+02  1.39908024929E+02  8.00937973901E+01 0.00000000000E+00  1.
       -1    1    7    7    0  703  5.79573525282E+01 -1.02057447076E+01 -6.16102083032E+01  8.51999395791E+01  6.74349576174E-07 0.00000000000E+00  1.
        2    1    7    7  703    0 -2.31569058213E+01  1.36720600801E+01 -4.76424924681E+01  5.47080853496E+01  6.74349576174E-07 0.00000000000E+00  1.
</event>
<event>
 9 114   1.0000000E+00   7.4550000E+01   7.8125000E-03   1.3429423E-01
        2   -1    0    0  502    0  0.00000000000E+00  0.00000000000E+00  2.25794064125E+03  2.25794064125E+03  0.00000000000E+00 0.00000000000E+00  1.
        5   -1    0    0  501    0  0.00000000000E+00  0.00000000000E+00 -3.37140038158E+02  3.37140038158E+02  0.00000000000E+00 0.00000000000E+00  1.
       25    1    1    2    0    0  2.25405763586E+02  1.08573831673E+01 -8.54029847069E+01  2.71743097104E+02  1.25000000000E+02 0.00000000000E+00  1.
        6    2    1    2  501    0 -3.10345590082E+02  9.13062252715E+01  5.61029283944E+01  3.68716197272E+02  1.67788210253E+02 0.00000000000E+00  1.
        1    1    1    2  502    0  8.49398264963E+01 -1.02163608439E+02  1.95010065940E+03  1.95462138503E+03  4.31583728752E-05 0.00000000000E+00  1.
        5    1    4    4  501    0 -6.20308746583E+01  7.62797238496E+01 -1.02317022327E+01  9.89630027436E+01  4.75000000000E+00 0.00000000000E+00  1.
       24    2    4    4    0    0 -2.48314715424E+02  1.50265014219E+01  6.63346306270E+01  2.69753194529E+02  8.05016092832E+01 0.00000000000E+00  1.
      -15    1    7    7    0    0 -1.35002275463E+02 -1.70264132346E+01  6.76854344043E+01  1.51986802640E+02  1.77680000000E+00 0.00000000000E+00  1.
       16    1    7    7    0    0 -1.13312439960E+02  3.20529146565E+01 -1.35080377725E+00  1.17766391889E+02  2.54343223222E-06 0.00000000000E+00  1.
</event>
<event>
 9 114   1.0000000E+00   7.4550000E+01   7.8125000E-03   1.3429423E-01
        2   -1    0    0  502    0  0.00000000000E+00  0.00000000000E+00  2.09259601775E+03  2.09259601775E+03  0.00000000000E+00 0.00000000000E+00  1.
        5   -1    0    0  501    0  0.00000000000E+00  0.00000000000E+00 -7.91021749303E+01  7.91021749303E+01  0.00000000000E+00 0.00000000000E+00  1.
       25    1    1    2    0    0  9.98959815759E+01 -1.19276369581E+02  1.47349217141E+03  1.48694661595E+03  1.25000000000E+02 0.00000000000E+00  1.
        6    2    1    2  501    0 -8.22305993028E+01 -7.36728822039E+01  3.84809023314E+02  4.36505252452E+02  1.73980705713E+02 0.00000000000E+00  1.
        1    1    1    2  502    0 -1.76653822731E+01  1.92949251785E+02  1.55192648096E+02  2.48246324279E+02  5.72204589844E-06 0.00000000000E+00  1.
        5    1    4    4  501    0  1.10253230016E+01 -2.66925390185E+01  2.36510708613E+02  2.38314764912E+02  4.75000000000E+00 0.00000000000E+00  1.
       24    2    4    4    0    0 -9.32559223044E+01 -4.69803431854E+01  1.48298314701E+02  1.98190487540E+02  7.98953034761E+01 0.00000000000E+00  1.
       -3    1    7    7    0  703 -5.57655885817E+01 -1.57593408463E+00  2.41585028426E+01  6.07940597237E+01  8.92080637640E-07 0.00000000000E+00  1.
        4    1    7    7  703    0 -3.74903337228E+01 -4.54044091008E+01  1.24139811859E+02  1.37396427816E+02  0.00000000000E+00 0.00000000000E+00  1.
</event>
<event>
 9 114   1.0000000E+00   7.4550000E+01   7.8125000E-03   1.3429423E-01
        2   -1    0    0  502    0  0.00000000000E+00  0.00000000000E+00  1.86685293854E+02  1.86685293854E+02  0.00000000000E+00 0.00000000000E+00  1.
        5   -1    0    0  501    0  0.00000000000E+00  0.00000000000E+00 -1.38802226949E+02  1.38802226949E+02  0.00000000000E+00 0.00000000000E+00  1.
       25    1    1    2    0    0  1.00378540717E+01 -1.64588499462E+01 -1.24123897800E+01  1.27085481767E+02  1.25000000000E+02 0.00000000000E+00  1.
        6    2    1    2  501    0 -2.16626304795E+01  1.37023057471E+01  6.30014330923E+01  1.86152293293E+02  1.73281484828E+02 0.00000000000E+00  1.
        1    1    1    2  502    0  1.16247764078E+01  2.75654419916E+00 -2.70597640708E+00  1.22497457430E+01  4.64572229031E-07 0.00000000000E+00  1.
        5    1    4    4  501    0 -2.44471994277E+01  1.34042261388E+01 -4.34923239501E+01  5.18795102214E+01  4.75000000000E+00 0.00000000000E+00  1.
       24    2    4    4    0    0  2.78456894818E+00  2.98079608306E-01  1.06493757042E+02  1.34272783071E+02  8.17338198607E+01 0.00000000000E+00  1.
      -11    1    7    7    0    0  4.93283031472E+00 -3.74434991513E+01  2.75595954493E+01  4.67533928736E+01  5.11000600020E-04 0.00000000000E+00  1.
       12    1    7    7    0    0 -2.14826136654E+00  3.77415787596E+01  7.89341615930E+01  8.75193901976E+01  9.53674316406E-07 0.00000000000E+00  1.
</event>
<event>
 9 114   1.0000000E+00   7.4550000E+01   7.8125000E-03   1.3429423E-01
        2   -1    0    0  502    0  0.00000000000E+00  0.00000000000E+00  1.44637771078E+03  1.44637771078E+03  0.00000000000E+00 0.00000000000E+00  1.
        5   -1    0    0  501    0  0.00000000000E+00  0.00000000000E+00 -3.58560831176E+02  3.58560831176E+02  0.00000000000E+00 0.00000000000E+00  1.
       25    1    1    2    0    0  5.32898734713E+02  1.91558219309E+02  1.26899536240E+02  5.93636340819E+02  1.25000000000E+02 0.00000000000E+00  1.
        6    2    1    2  501    0 -4.19443537317E+02 -8.38827888765E+01  3.43501880464E+02  5.74381535777E+02  1.70151119576E+02 0.00000000000E+00  1.
        1    1    1    2  502    0 -1.13455197396E+02 -1.07675430432E+02  6.17415462901E+02  6.36920665361E+02  1.52587890625E-05 0.00000000000E+00  1.
        5    1    4    4  501    0 -6.17091995303E+01  3.19986088544E+01  2.19172712317E+01  7.30401639753E+01  4.75000000000E+00 0.00000000000E+00  1.
       24    2    4    4    0    0 -3.57734337787E+02 -1.15881397731E+02  3.21584609232E+02  5.01341371802E+02  8.07722440783E+01 0.00000000000E+00  1.
      -11    1    7    7    0    0 -3.74345178308E+01 -2.49846490195E+01  7.32863061960E+01  8.60026655864E+01  5.11042201876E-04 0.00000000000E+00  1.
       12    1    7    7    0    0 -3.20299819956E+02 -9.08967487114E+01  2.48298303036E+02  4.15338706215E+02  1.00927402918E-05 0.00000000000E+00  1.
</event>
<event>
 9 114   1.0000000E+00   7.4550000E+01   7.8125000E-03   1.3429423E-01
        2   -1    0    0  502    0  0.00000000000E+00  0.00000000000E+00  9.81443991776E+02  9.81443991776E+02  0.00000000000E+00 0.00000000000E+00  1.
        5   -1    0    0  501    0  0.00000000000E+00  0.00000000000E+00 -1.48508262296E+02  1.48508262296E+02  0.00000000000E+00 0.00000000000E+00  1.
       25    1    1    2    0    0  1.49190744317E+02 -2.92410997197E+02  5.23805980031E+02  6.30681991330E+02  1.25000000000E+02 0.00000000000E+00  1.
        6    2    1    2  501    0 -1.26472545307E+02  2.59711119122E+02  2.26407109082E+02  4.07463760674E+02  1.76978436845E+02 0.00000000000E+00  1.
        1    1    1    2  502    0 -2.27181990100E+01  3.26998780754E+01  8.27226403683E+01  9.18065020677E+01  9.53674316406E-07 0.00000000000E+00  1.
        5    1    4    4  501    0 -1.22003697346E+02  9.55021554553E+01  1.18867033394E+02  1.95339442997E+02  4.75000000000E+00 0.00000000000E+00  1.
       24    2    4    4    0    0 -4.46884796085E+00  1.64208963667E+02  1.07540075688E+02  2.12124317677E+02  8.02951052084E+01 0.00000000000E+00  1.
      -15    1    7    7    0    0 -1.45161735851E+01  1.67619852191E+01 -8.91664044770E+00  2.39655364879E+01  1.77680000000E+00 0.00000000000E+00  1.
       16    1    7    7    0    0  1.00473256243E+01  1.47446978448E+02  1.16456716135E+02  1.88158781189E+02  3.56832255056E-06 0.00000000000E+00  1.
</event>
<event>
 9 114   1.0000000E+00   7.4550000E+01   7.8125000E-03   1.3429423E-01
        2   -1    0    0  502    0  0.00000000000E+00  0.00000000000E+00  1.19040209153E+03  1.19040209153E+03  0.00000000000E+00 0.00000000000E+00  1.
        5   -1    0    0  501    0  0.00000000000E+00  0.00000000000E+00 -5.59436412779E+01  5.59436412779E+01  0.00000000000E+00 0.00000000000E+00  1.
       25    1    1    2    0    0  1.12354157438E+02  5.34696006107E+01  4.36695742306E+02  4.70967754981E+02  1.25000000000E+02 0.00000000000E+00  1.
        6    2    1    2  501    0 -1.29661261879E+02 -1.08576953321E+02  3.48819167954E+02  4.21686091733E+02  1.65961894435E+02 0.00000000000E+00  1.
        1    1    1    2  502    0  1.73071044410E+01  5.51073527103E+01  3.48943539990E+02  3.53691886092E+02  3.81469726562E-06 0.00000000000E+00  1.
        5    1    4    4  501    0 -6.64317426622E+01 -6.48973080439E-01  1.98822414780E+02  2.09681932264E+02  4.75000000000E+00 0.00000000000E+00  1.
       24    2    4    4    0    0 -6.32295192165E+01 -1.07927980241E+02  1.49996753174E+02  2.12004159469E+02  8.24640324633E+01 0.00000000000E+00  1.
       -1    1    7    7    0  703  1.45028752741E+01 -1.55818105746E+01  5.31297225881E+01  5.72354228978E+01  6.74349576174E-07 0.00000000000E+00  1.
        4    1    7    7  703    0 -7.77323944906E+01 -9.23461696660E+01  9.68670305862E+01  1.54768736571E+02  2.33601545599E-06 0.00000000000E+00  1.
</event>
<event>
 9 114   1.0000000E+00   7.4550000E+01   7.8125000E-03   1.3429423E-01
        2   -1    0    0  502    0  0.00000000000E+00  0.00000000000E+00  1.57504033228E+03  1.57504033228E+03  0.00000000000E+00 0.00000000000E+00  1.
        5   -1    0    0  501    0  0.00000000000E+00  0.00000000000E+00 -2.28959661340E+02  2.28959661340E+02  0.00000000000E+00 0.00000000000E+00  1.
       25    1    1    2    0    0 -9.91933638670E+01  5.15023806224E+01  3.18111198702E+01  1.70671514883E+02  1.25000000000E+02 0.00000000000E+00  1.
        6    2    1    2  501    0 -1.76615195418E+02 -1.15051995554E+02 -1.65046954301E+01  2.72788508696E+02  1.72369592945E+02 0.00000000000E+00  1.
        1    1    1    2  502    0  2.75808559285E+02  6.35496149314E+01  1.33077424650E+03  1.36053997004E+03  2.64289979182E-05 0.00000000000E+00  1.
        5    1    4    4  501    0 -9.29082322602E+01 -8.81483958253E+01  4.95595518022E+01  1.37407390569E+02  4.75000000000E+00 0.00000000000E+00  1.
       24    2    4    4    0    0 -8.37069631576E+01 -2.69035997286E+01 -6.60642472323E+01  1.35381118127E+02  7.89487366804E+01 0.00000000000E+00  1.
       -1    1    7    7    0  703 -3.33058378021E+01  2.80091335375E+01 -2.15091054652E+01  4.85430943712E+01  1.03924249257E-06 0.00000000000E+00  1.
        2    1    7    7  703    0 -5.04011253555E+01 -5.49127332661E+01 -4.45551417671E+01  8.68380237554E+01  9.53674316406E-07 0.00000000000E+00  1.
</event>
<event>
 9 114   1.0000000E+00   7.4550000E+01   7.8125000E-03   1.3429423E-01
        2   -1    0    0  502    0  0.00000000000E+00  0.00000000000E+00  8.24494276837E+02  8.24494276837E+02  0.00000000000E+00 0.00000000000E+00  1.
        5   -1    0    0  501    0  0.00000000000E+00  0.00000000000E+00 -4.77930669394E+02  4.77930669394E+02  0.00000000000E+00 0.00000000000E+00  1.
       25    1    1    2    0    0 -5.23159360820E+01 -8.81203355813E+01  1.06961871414E+02  1.93824644066E+02  1.25000000000E+02 0.00000000000E+00  1.
        6    2    1    2  501    0 -5.84583155860E+01  6.95809047728E+01 -4.07369208130E+02  4.51952719427E+02  1.73357180106E+02 0.00000000000E+00  1.
        1    1    1    2  502    0  1.10774251668E+02  1.85394308084E+01  6.46970944160E+02  6.56647582737E+02  2.53038390377E-05 0.00000000000E+00  1.
        5    1    4    4  501    0  1.14661317763E+01  7.48638122877E+01 -9.06829093173E+01  1.18245571208E+02  4.75000000000E+00 0.00000000000E+00  1.
       24    2    4    4    0    0 -6.99244473623E+01 -5.28290751492E+00 -3.16686298813E+02  3.33707148218E+02  7.84404963359E+01 0.00000000000E+00  1.
       -3    1    7    7    0  703 -1.81518719138E+01 -1.52895058541E+00 -2.42390660652E+02  2.43074187266E+02  2.69739830470E-06 0.00000000000E+00  1.
        4    1    7    7  703    0 -5.17725754485E+01 -3.75395692951E+00 -7.42956381614E+01  9.06329609524E+01  3.01578298585E-06 0.00000000000E+00  1.
</event>
<event>
 9 114   1.0000000E+00   7.4550000E+01   7.8125000E-03   1.3429423E-01
        2   -1    0    0  502    0  0.00000000000E+00  0.00000000000E+00  2.08317331335E+03  2.08317331335E+03  0.00000000000E+00 0.00000000000E+00  1.
        5   -1    0    0  501    0  0.00000000000E+00  0.00000000000E+00 -7.12240163872E+02  7.12240163872E+02  0.00000000000E+00 0.00000000000E+00  1.
       25    1    1    2    0    0  8.76440101754E+01 -4.29018979048E+02  4.53031860703E+01  4.57620077762E+02  1.25000000000E+02 0.00000000000E+00  1.
        6    2    1    2  501    0 -1.49788203518E+02  1.78694430121E+02 -4.54117666838E+02  5.39453635141E+02  1.74410905231E+02 0.00000000000E+00  1.
        1    1    1    2  502    0  6.21441933422E+01  2.50324548927E+02  1.77974763025E+03  1.79833976432E+03  0.00000000000E+00 0.00000000000E+00  1.
        5    1    4    4  501    0 -8.67407251874E+01  1.32332935918E+02 -3.57224554642E+02  3.90727404048E+02  4.75000000000E+00 0.00000000000E+00  1.
       24    2    4    4    0    0 -6.30474783302E+01  4.63614942031E+01 -9.68931121960E+01  1.48726231094E+02  8.12824947682E+01 0.00000000000E+00  1.
       -1    1    7    7    0  703 -2.09101618571E+01  5.54849962347E+01 -2.38560332182E+01  6.39134570882E+01  7.53945746462E-07 0.00000000000E+00  1.
        2    1    7    7  703    0 -4.21373164731E+01 -9.12350203164E+00 -7.30370789778E+01  8.48127740054E+01  9.53674316406E-07 0.00000000000E+00  1.
</event>
<event>
 9 114   1.0000000E+00   7.4550000E+01   7.8125000E-03   1.3429423E-01
        2   -1    0    0  502    0  0.00000000000E+00  0.00000000000E+00  4.13648247521E+02  4.13648247521E+02  0.00000000000E+00 0.00000000000E+00  1.
        5   -1    0    0  501    0  0.00000000000E+00  0.00000000000E+00 -9.22358491582E+01  9.22358491582E+01  0.00000000000E+00 0.00000000000E+00  1.
       25    1    1    2    0    0  1.70899215892E+01  1.17621778876E+02  1.39197436034E+02  2.21648087031E+02  1.25000000000E+02 0.00000000000E+00  1.
        6    2    1    2  501    0 -2.35555990140E+01 -1.18044417133E+02  1.79569929025E+02  2.77237452023E+02  1.73568127065E+02 0.00000000000E+00  1.
        1    1    1    2  502    0  6.46567742484E+00  4.22638256560E-01  2.64503330395E+00  6.99855762546E+00  1.73775908197E-07 0.00000000000E+00  1.
        5    1    4    4  501    0 -3.59248081610E+01 -1.22561503109E+02  1.01202491728E+02  1.63022761348E+02  4.75000000000E+00 0.00000000000E+00  1.
       24    2    4    4    0    0  1.23692091470E+01  4.51708597570E+00  7.83674372970E+01  1.14214690675E+02  8.20374240014E+01 0.00000000000E+00  1.
      -11    1    7    7    0    0 -1.98799560365E+01  8.58060223952E+00 -7.09039287620E+00  2.27840527169E+01  5.10998952283E-04 0.00000000000E+00  1.
       12    1    7    7    0    0  3.22491651835E+01 -4.06351626382E+00  8.54578301732E+01  9.14306379578E+01  1.34869915235E-06 0.00000000000E+00  1.
</event>
<event>
 9 114   1.0000000E+00   7.4550000E+01   7.8125000E-03   1.3429423E-01
        2   -1    0    0  502    0  0.00000000000E+00  0.00000000000E+00  1.93347324390E+03  1.93347324390E+03  0.00000000000E+00 0.00000000000E+00  1.
        5   -1    0    0  501    0  0.00000000000E+00  0.00000000000E+00 -4.68920517984E+02  4.68920517984E+02  0.00000000000E+00 0.00000000000E+00  1.
       25    1    1    2    0    0  1.67012809216E+02 -1.16156092163E+02  8.12514543872E+02  8.46870946599E+02  1.25000000000E+02 0.00000000000E+00  1.
        6    2    1    2  501    0 -1.60799583229E+02  1.37993960846E+01 -4.17972369077E+02  4.80609759769E+02  1.73890513183E+02 0.00000000000E+00  1.
        1    1    1    2  502    0 -6.21322598668E+00  1.02356696078E+02  1.07001055112E+03  1.07491305552E+03  2.64289979182E-05 0.00000000000E+00  1.
        5    1    4    4  501    0 -1.48085616369E+02 -1.41590084674E+00 -3.17938042229E+02  3.50768464585E+02  4.75000000000E+00 0.00000000000E+00  1.
       24    2    4    4    0    0 -1.27139668602E+01  1.52152969313E+01 -1.00034326847E+02  1.29841295184E+02  8.03663186499E+01 0.00000000000E+00  1.
       -3    1    7    7    0  703 -5.15125964113E+00 -5.98239526991E+00  1.26609618695E+01  1.49206060371E+01  2.03704923280E-06 0.00000000000E+00  1.
        4    1    7    7  703    0 -7.56270721902E+00  2.11976922012E+01 -1.12695288717E+02  1.14920689147E+02  2.33601545599E-06 0.00000000000E+00  1.
</event>
<event>
 9 114   1.0000000E+00   7.4550000E+01   7.8125000E-03   1.3429423E-01
        2   -1    0    0  502    0  0.00000000000E+00  0.00000000000E+00  1.56317905223E+03  1.56317905223E+03  0.00000000000E+00 0.00000000000E+00  1.
        5   -1    0    0  501    0  0.00000000000E+00  0.00000000000E+00 -5.36124472003E+01  5.36124472003E+01  0.00000000000E+00 0.00000000000E+00  1.
       25    1    1    2    0    0  1.55417976536E+01 -1.53944351595E+02  2.90566484483E+02  3.52128233413E+02  1.25000000000E+02 0.00000000000E+00  1.
        6    2    1    2  501    0 -2.05335918424E+01  1.11778897622E+02  4.60348668100E+02  5.04824552988E+02  1.73236205021E+02 0.00000000000E+00  1.
        1    1    1    2  502    0  4.99179418883E+00  4.21654539723E+01  7.58651452444E+02  7.59838713026E+02  1.07895932188E-05 0.00000000000E+00  1.
        5    1    4    4  501    0  2.77230067999E+01  9.95624646481E+01  3.11364285073E+02  3.28102925912E+02  4.75000000000E+00 0.00000000000E+00  1.
       24    2    4    4    0    0 -4.82565986423E+01  1.22164329742E+01  1.48984383027E+02  1.76721627076E+02  8.09706523580E+01 0.00000000000E+00  1.
      -13    1    7    7    0    0  1.41491924161E+00 -2.37963266792E-01  1.15561591287E+02  1.15570546282E+02  1.05659999995E-01 0.00000000000E+00  1.
       14    1    7    7    0    0 -4.96715178839E+01  1.24543962410E+01  3.34227917398E+01  6.11510807942E+01  1.71926082395E-06 0.00000000000E+00  1.
</event>
<event>
 9 114   1.0000000E+00   7.4550000E+01   7.8125000E-03   1.3429423E-01
        5   -1    0    0  501    0  0.00000000000E+00  0.00000000000E+00  1.72503370310E+02  1.72503370310E+02  0.00000000000E+00 0.00000000000E+00  1.
        4   -1    0    0  502    0  0.00000000000E+00  0.00000000000E+00 -6.32097969173E+02  6.32097969173E+02  0.00000000000E+00 0.00000000000E+00  1.
       25    1    1    2    0    0 -1.89889787472E+01 -8.82887840333E+01 -5.64232466157E+01  1.64207409877E+02  1.25000000000E+02 0.00000000000E+00  1.
        6    2    1    2  501    0  8.63340445338E+01 -5.51149095988E+01  6.14549979212E+00  2.01485895279E+02  1.73400052834E+02 0.00000000000E+00  1.
        3    1    1    2  502    0 -6.73450657865E+01  1.43403693632E+02 -4.09316852040E+02  4.38908034327E+02  7.62939453125E-06 0.00000000000E+00  1.
        5    1    4    4  501    0  8.59897530565E+00 -8.57944337378E+01  1.27590596956E+01  8.72925159507E+01  4.75000000000E+00 0.00000000000E+00  1.
       24    2    4    4    0    0  7.77350692281E+01  3.06795241390E+01 -6.61355990344E+00  1.14193379328E+02  7.75397608875E+01 0.00000000000E+00  1.
       -3    1    7    7    0  703 -7.16228923564E+00  4.89122121873E+00 -2.24467806541E+01  2.40640893000E+01  5.33120149970E-07 0.00000000000E+00  1.
        4    1    7    7  703    0  8.48973584637E+01  2.57883029202E+01  1.58332207507E+01  9.01292900281E+01  2.92001931999E-07 0.00000000000E+00  1.
</event>
</LesHouchesEvents>
