<LesHouchesEvents version="1.0">
<!--
Output from the JHUGenerator v7.5.1 described in arXiv:1001.3396 [hep-ph], arXiv:1208.4018 [hep-ph], arXiv:1309.4819 [hep-ph], arXiv:1606.03107 [hep-ph]
   
   Command line: ./JHUGen Seed=765543533 PDFSet=3 Process=112 VegasNc0=100000 VegasNc2=100 DataFile=compare_to_reference/tqH_112 TopDK=1 DecayMode1=11 ghg2=0.383432074687728,0.918260989345657 ghg3=6294.49296087723,2253.12941717723 ghg4=0.335495485382528,0.17285803562226 ghz1=0.154934976270359,0.453918144016304 ghz2=0.469297059144414,0.745302300947002 ghz3=3947.40921062637,3597.4885961919 ghz4=0.177791270766536,0.920170534486048 ghzgs2=0.0240331049939919,0.232175381101053 ghzgs3=0.331962910170583,0.0450183240308457 ghzgs4=0.808286540247172,0.133184346613754 ghgsgs2=0.530394804029869,0.211218112389125 ghgsgs3=0.914978695198138,0.055650585081425 ghgsgs4=0.694524307167701,0.511424456076726 ghz1_prime=0.143354267833606,0.0910761280837012 ghz1_prime2=7416.7007267243,4861.35525489789 ghz1_prime3=4431.44656075298,4436.48625894176 ghz1_prime4=2441.69123517064,6946.16318931911 ghz1_prime5=78314042.889773,69465359.939181 ghz1_prime6=51233058.8130761,29537873.5850789 ghz1_prime7=47832192.9001564,59559649.9633293 g
   
   Input Parameter:
    Collider: P-P, sqrt(s)=13000.00
    Resonance: spin=0, mass= 125.00 width=   0.00407
    DecayMode1:11
    W boson: mass=80.399, width=2.0850
    Top quark mass=173.2000, width=2.0000
    Top quark decay= 1
    Random seed:   765543533
    To reproduce results using this seed, JHUGen should be compiled with the same compiler:
      GNU Fortran (GCC) 6.3.0
    
    WidthScheme:   2
    PDFSet:   3
    Unweighted: T
    
    
    LHE output: compare_to_reference/tqH_112.lhe
    Histogram output: compare_to_reference/tqH_112.dat
    Log file: compare_to_reference/tqH_112.log
    
-->
<init>
2212 2212   6500.0000000000000000    6500.0000000000000000 0 0  263000  263000  3  1
 9.2149586E-01  1.7690868E-02  1.0000000E+00 112
</init>
<event>
 9 112   1.0000000E+00   7.4550000E+01   7.8125000E-03   1.3429423E-01
       -1   -1    0    0    0  501  0.00000000000E+00  0.00000000000E+00  2.38268752390E+01  2.38268752390E+01  0.00000000000E+00  0.00000000000E+00  1.
        2   -1    0    0  501    0  0.00000000000E+00  0.00000000000E+00 -1.37646027637E+03  1.37646027637E+03  0.00000000000E+00  0.00000000000E+00  1.
       25    1    1    2    0    0 -2.50167296640E+01 -3.36386378462E+01 -5.98793066839E+02  6.13135818244E+02  1.25000000000E+02  0.00000000000E+00  1.
        6    2    1    2  502    0  1.01384402710E+01 -1.27570819799E+01 -6.54538141465E+02  6.76540068958E+02  1.70354792010E+02  0.00000000000E+00  1.
       -5    1    1    2    0  502  1.48782893930E+01  4.63957198261E+01 -9.93021928212E+01  1.10611264402E+02  1.34869915235E-06  0.00000000000E+00  1.
        5    1    4    4  502    0  4.62812272096E+01  1.34144418456E+01 -4.42676288826E+02  4.45316469975E+02  4.74999999999E+00  0.00000000000E+00  1.
       24    2    4    4    0    0 -3.61427869386E+01 -2.61715238255E+01 -2.11861852640E+02  2.31223598983E+02  8.11643913048E+01  0.00000000000E+00  1.
       -1    1    7    7    0  703 -5.29429347455E+00  2.19824661482E+01 -1.74110252207E+01  2.85377322257E+01  3.97523212446E-06  0.00000000000E+00  1.
        4    1    7    7  703    0 -3.08484934641E+01 -4.81539899736E+01 -1.94450827419E+02  2.02685866758E+02  2.69739830470E-06  0.00000000000E+00  1.
</event>
<event>
 9 112   1.0000000E+00   7.4550000E+01   7.8125000E-03   1.3429423E-01
        2   -1    0    0  501    0  0.00000000000E+00  0.00000000000E+00  1.84369507491E+03  1.84369507491E+03  0.00000000000E+00  0.00000000000E+00  1.
       -1   -1    0    0    0  501  0.00000000000E+00  0.00000000000E+00 -1.04924078865E+02  1.04924078865E+02  0.00000000000E+00  0.00000000000E+00  1.
       25    1    1    2    0    0 -1.40452860399E+02  1.36644765730E+02  1.25696228561E+03  1.27827148347E+03  1.25000000000E+02  0.00000000000E+00  1.
        6    2    1    2  502    0 -2.35677265163E+01 -9.23545600531E+01  4.58717797576E+02  4.98890487580E+02  1.71420238853E+02  0.00000000000E+00  1.
       -5    1    1    2    0  502  1.64020586915E+02 -4.42902056769E+01  2.30909128524E+01  1.71457182723E+02  5.14674976943E-06  0.00000000000E+00  1.
        5    1    4    4  502    0 -7.03166390549E+01 -3.75033094920E+01  2.51359047905E+02  2.63732556607E+02  4.75000000000E+00  0.00000000000E+00  1.
       24    2    4    4    0    0  4.67489125386E+01 -5.48512505611E+01  2.07358749671E+02  2.35157930972E+02  8.43058771519E+01  0.00000000000E+00  1.
       -1    1    7    7    0  703  1.61871762330E+01  1.13564669325E+01  5.48895709675E+00  2.05212734887E+01  4.50005199627E-07  0.00000000000E+00  1.
        2    1    7    7  703    0  3.05617363056E+01 -6.62077174936E+01  2.01869792574E+02  2.14636657484E+02  0.00000000000E+00  0.00000000000E+00  1.
</event>
<event>
 9 112   1.0000000E+00   7.4550000E+01   7.8125000E-03   1.3429423E-01
        4   -1    0    0  501    0  0.00000000000E+00  0.00000000000E+00  4.21065097690E+02  4.21065097690E+02  0.00000000000E+00  0.00000000000E+00  1.
       -3   -1    0    0    0  501  0.00000000000E+00  0.00000000000E+00 -2.45092106227E+02  2.45092106227E+02  0.00000000000E+00  0.00000000000E+00  1.
       25    1    1    2    0    0 -4.95267624057E+01 -2.05217909862E+02  1.46834275623E+02  2.85924107448E+02  1.25000000000E+02  0.00000000000E+00  1.
        6    2    1    2  502    0  2.47901957379E+01  1.65992271845E+02  1.26311059171E+02  2.72562242859E+02  1.73688527101E+02  0.00000000000E+00  1.
       -5    1    1    2    0  502  2.47365666678E+01  3.92256380166E+01 -9.71723433320E+01  1.07670853609E+02  1.34869915235E-06  0.00000000000E+00  1.
        5    1    4    4  502    0  4.66654334072E+01  4.14085878573E+01  1.00322852483E+02  1.18235236092E+02  4.75000000000E+00  0.00000000000E+00  1.
       24    2    4    4    0    0 -2.18752376694E+01  1.24583683988E+02  2.59882066880E+01  1.54327006767E+02  8.45092763650E+01  0.00000000000E+00  1.
       -1    1    7    7    0  703  3.08610224451E+01  3.24526889996E+01 -9.94798580347E-01  4.47947469451E+01  1.97008341747E-06  0.00000000000E+00  1.
        2    1    7    7  703    0 -5.27362601144E+01  9.21309949882E+01  2.69830052683E+01  1.09532259822E+02  2.95869675779E-06  0.00000000000E+00  1.
</event>
<event>
 9 112   1.0000000E+00   7.4550000E+01   7.8125000E-03   1.3429423E-01
        2   -1    0    0  501    0  0.00000000000E+00  0.00000000000E+00  1.73521468039E+03  1.73521468039E+03  0.00000000000E+00  0.00000000000E+00  1.
       -1   -1    0    0    0  501  0.00000000000E+00  0.00000000000E+00 -5.77946518803E+01  5.77946518803E+01  0.00000000000E+00  0.00000000000E+00  1.
       25    1    1    2    0    0  1.63113630114E+01 -1.68183440952E+02  3.27734925592E+02  3.89341638957E+02  1.25000000000E+02  0.00000000000E+00  1.
        6    2    1    2  502    0 -8.93149913498E+01  2.15840224298E+02  1.14189192194E+03  1.17832638594E+03  1.73123482799E+02  0.00000000000E+00  1.
       -5    1    1    2    0  502  7.30036283383E+01 -4.76567833460E+01  2.07793180982E+02  2.25341307381E+02  1.14440917969E-05  0.00000000000E+00  1.
        5    1    4    4  502    0 -7.47706312382E+01  9.88293658117E+01  7.68921189443E+02  7.78858298356E+02  4.75000000001E+00  0.00000000000E+00  1.
       24    2    4    4    0    0 -1.45443601116E+01  1.17010858486E+02  3.72970732496E+02  3.99468087579E+02  8.10216408209E+01  0.00000000000E+00  1.
       -1    1    7    7    0  703  1.92780350884E+01  7.53170191588E+00  2.17296752950E+01  3.00091312611E+01  6.98367048067E-06  0.00000000000E+00  1.
        2    1    7    7  703    0 -3.38223952000E+01  1.09479156570E+02  3.51241057201E+02  3.69458956318E+02  8.52992239952E-06  0.00000000000E+00  1.
</event>
<event>
 9 112   1.0000000E+00   7.4550000E+01   7.8125000E-03   1.3429423E-01
        2   -1    0    0  501    0  0.00000000000E+00  0.00000000000E+00  3.94521890744E+02  3.94521890744E+02  0.00000000000E+00  0.00000000000E+00  1.
       -1   -1    0    0    0  501  0.00000000000E+00  0.00000000000E+00 -3.51010888374E+02  3.51010888374E+02  0.00000000000E+00  0.00000000000E+00  1.
       25    1    1    2    0    0  1.49996335749E+02  4.87233570937E+01  5.17771085068E+01  2.07794935525E+02  1.25000000000E+02  0.00000000000E+00  1.
        6    2    1    2  502    0  1.48136111030E+02  3.36531684007E+01 -1.22390065413E+01  2.28408517935E+02  1.70128817811E+02  0.00000000000E+00  1.
       -5    1    1    2    0  502 -2.98132446778E+02 -8.23765254944E+01  3.97290040412E+00  3.09329325658E+02  2.17903690462E-06  0.00000000000E+00  1.
        5    1    4    4  502    0  6.37441783780E+01 -5.19311103136E+01 -1.44061296505E+01  8.36077721686E+01  4.75000000000E+00  0.00000000000E+00  1.
       24    2    4    4    0    0  8.43919326516E+01  8.55842787143E+01  2.16712310920E+00  1.44800745766E+02  8.07210783633E+01  0.00000000000E+00  1.
       -3    1    7    7    0  703  3.51075803605E+01  4.99900459434E+01 -3.79949653984E+01  7.19386147199E+01  6.74349576174E-07  0.00000000000E+00  1.
        4    1    7    7  703    0  4.92843522912E+01  3.55942327709E+01  4.01620885076E+01  7.28621310463E+01  8.25906184945E-07  0.00000000000E+00  1.
</event>
<event>
 9 112   1.0000000E+00   7.4550000E+01   7.8125000E-03   1.3429423E-01
       -1   -1    0    0    0  501  0.00000000000E+00  0.00000000000E+00  9.19603909884E+02  9.19603909884E+02  0.00000000000E+00  0.00000000000E+00  1.
        2   -1    0    0  501    0  0.00000000000E+00  0.00000000000E+00 -1.03187664441E+02  1.03187664441E+02  0.00000000000E+00  0.00000000000E+00  1.
       25    1    1    2    0    0 -8.45437331087E+01 -1.11121391488E+02  1.64739887791E+02  2.49519211853E+02  1.25000000000E+02  0.00000000000E+00  1.
        6    2    1    2  502    0  2.63155778251E+01 -8.49582067357E+01  2.09212102531E+02  2.85817396381E+02  1.73238199311E+02  0.00000000000E+00  1.
       -5    1    1    2    0  502  5.82281552836E+01  1.96079598223E+02  4.42464255122E+02  4.87454966092E+02  9.34406182397E-06  0.00000000000E+00  1.
        5    1    4    4  502    0  1.95539702559E-01 -1.05757865738E+02  1.00049377988E+02  1.45661267800E+02  4.75000000000E+00  0.00000000000E+00  1.
       24    2    4    4    0    0  2.61200381225E+01  2.07996590024E+01  1.09162724543E+02  1.40156128581E+02  8.13164051286E+01  0.00000000000E+00  1.
       -3    1    7    7    0  703 -1.51302608237E+01 -1.31426045928E+01  7.28662011099E+01  7.55720590713E+01  0.00000000000E+00  0.00000000000E+00  1.
        4    1    7    7  703    0  4.12502989462E+01  3.39422635952E+01  3.62965234330E+01  6.45840695097E+01  4.76837158203E-07  0.00000000000E+00  1.
</event>
<event>
 9 112   1.0000000E+00   7.4550000E+01   7.8125000E-03   1.3429423E-01
        2   -1    0    0  501    0  0.00000000000E+00  0.00000000000E+00  1.24259474180E+03  1.24259474180E+03  0.00000000000E+00  0.00000000000E+00  1.
       -1   -1    0    0    0  501  0.00000000000E+00  0.00000000000E+00 -4.06187932151E+01  4.06187932151E+01  0.00000000000E+00  0.00000000000E+00  1.
       25    1    1    2    0    0 -3.79780121519E+00 -2.19190312751E+01  2.88162888256E+02  3.14893184103E+02  1.25000000000E+02  0.00000000000E+00  1.
        6    2    1    2  502    0  6.28147298241E+01 -8.35107812627E+00  8.69266381414E+02  8.88422391066E+02  1.72205900890E+02  0.00000000000E+00  1.
       -5    1    1    2    0  502 -5.90169286089E+01  3.02701094014E+01  4.45466789175E+01  7.98979598499E+01  1.06624029994E-06  0.00000000000E+00  1.
        5    1    4    4  502    0  2.08102875279E+01  4.19480991528E+01  5.64445034003E+02  5.66403981271E+02  4.75000000001E+00  0.00000000000E+00  1.
       24    2    4    4    0    0  4.20044422962E+01 -5.02991772790E+01  3.04821347411E+02  3.22018409794E+02  8.05321178243E+01  0.00000000000E+00  1.
      -15    1    7    7    0    0 -2.05202492211E+00 -3.50820292444E+01  4.06374815486E+01  5.37542696633E+01  1.77680000000E+00  0.00000000000E+00  1.
       16    1    7    7    0    0  4.40564672183E+01 -1.52171480347E+01  2.64183865863E+02  2.68264140131E+02  0.00000000000E+00  0.00000000000E+00  1.
</event>
<event>
 9 112   1.0000000E+00   7.4550000E+01   7.8125000E-03   1.3429423E-01
       -1   -1    0    0    0  501  0.00000000000E+00  0.00000000000E+00  2.08925152489E+02  2.08925152489E+02  0.00000000000E+00  0.00000000000E+00  1.
        2   -1    0    0  501    0  0.00000000000E+00  0.00000000000E+00 -2.33746124269E+03  2.33746124269E+03  0.00000000000E+00  0.00000000000E+00  1.
       25    1    1    2    0    0 -1.81285657233E+02 -1.98536581091E+02 -7.14934572926E+02  7.73975262599E+02  1.25000000000E+02  0.00000000000E+00  1.
        6    2    1    2  502    0 -3.79556503874E+02  2.62538720806E+02 -5.27997433330E+02  7.22204106769E+02  1.72649247537E+02  0.00000000000E+00  1.
       -5    1    1    2    0  502  5.60842161107E+02 -6.40021397157E+01 -8.85604083948E+02  1.05020702581E+03  1.07895932188E-05  0.00000000000E+00  1.
        5    1    4    4  502    0 -2.52146254091E+02  1.17425853211E+02 -3.54979033808E+02  4.50998050326E+02  4.74999999999E+00  0.00000000000E+00  1.
       24    2    4    4    0    0 -1.27410249783E+02  1.45112867595E+02 -1.73018399521E+02  2.71206056443E+02  7.95376790377E+01  0.00000000000E+00  1.
      -13    1    7    7    0    0 -1.23299905287E+02  1.42959204750E+02 -1.81280213317E+02  2.61730257652E+02  1.05659999987E-01  0.00000000000E+00  1.
       14    1    7    7    0    0 -4.11034449579E+00  2.15366284537E+00  8.26181379531E+00  9.47579879028E+00  1.19209289551E-07  0.00000000000E+00  1.
</event>
<event>
 9 112   1.0000000E+00   7.4550000E+01   7.8125000E-03   1.3429423E-01
       -1   -1    0    0    0  501  0.00000000000E+00  0.00000000000E+00  1.22333748772E+02  1.22333748772E+02  0.00000000000E+00  0.00000000000E+00  1.
        2   -1    0    0  501    0  0.00000000000E+00  0.00000000000E+00 -7.70987605690E+02  7.70987605690E+02  0.00000000000E+00  0.00000000000E+00  1.
       25    1    1    2    0    0  1.14347516659E+02 -3.95857396193E+01 -2.71970327694E+02  3.22854835016E+02  1.25000000000E+02  0.00000000000E+00  1.
        6    2    1    2  502    0  4.19860125735E+01  5.84470701587E+01 -3.67900678584E+02  4.12754564866E+02  1.72732557016E+02  0.00000000000E+00  1.
       -5    1    1    2    0  502 -1.56333529232E+02 -1.88613305394E+01 -8.78285064023E+00  1.57711954579E+02  7.95403829461E-06  0.00000000000E+00  1.
        5    1    4    4  502    0 -4.07325534633E+01  2.48887934718E+00 -1.85613433215E+02  1.90105877137E+02  4.75000000000E+00  0.00000000000E+00  1.
       24    2    4    4    0    0  8.27185660368E+01  5.59581908115E+01 -1.82287245369E+02  2.22648687729E+02  7.98130192218E+01  0.00000000000E+00  1.
       -3    1    7    7    0  703  3.32865053032E+01  5.34349156746E+01 -4.69196509242E+01  7.85158282852E+01  1.50789149292E-06  0.00000000000E+00  1.
        4    1    7    7  703    0  4.94320607336E+01  2.52327513685E+00 -1.35367594445E+02  1.44132859444E+02  1.90734863281E-06  0.00000000000E+00  1.
</event>
<event>
 9 112   1.0000000E+00   7.4550000E+01   7.8125000E-03   1.3429423E-01
       -1   -1    0    0    0  501  0.00000000000E+00  0.00000000000E+00  2.60262433585E+02  2.60262433585E+02  0.00000000000E+00  0.00000000000E+00  1.
        2   -1    0    0  501    0  0.00000000000E+00  0.00000000000E+00 -6.32595760858E+02  6.32595760858E+02  0.00000000000E+00  0.00000000000E+00  1.
       25    1    1    2    0    0  1.74427732459E+01  1.32722997457E+02 -4.74614053629E+01  1.89201557582E+02  1.25000000000E+02  0.00000000000E+00  1.
        6    2    1    2  502    0  2.78473010524E+00  1.54008045134E+02 -3.44994226571E+02  4.15509539318E+02  1.72918848623E+02  0.00000000000E+00  1.
       -5    1    1    2    0  502 -2.02275033511E+01 -2.86731042591E+02  2.01223046613E+01  2.88147097542E+02  7.15255737305E-06  0.00000000000E+00  1.
        5    1    4    4  502    0 -2.36333241253E+01  9.26492388876E+01 -2.71700256088E+02  2.88072919821E+02  4.75000000000E+00  0.00000000000E+00  1.
       24    2    4    4    0    0  2.64180542306E+01  6.13588062466E+01 -7.32939704830E+01  1.27436619498E+02  8.00329256398E+01  0.00000000000E+00  1.
      -11    1    7    7    0    0  5.46907569677E+01  4.27544641242E+01 -5.72528887473E+01  8.99828670938E+01  5.10999932583E-04  0.00000000000E+00  1.
       12    1    7    7    0    0 -2.82727027371E+01  1.86043421224E+01 -1.60410817356E+01  3.74537524037E+01  1.03924249257E-06  0.00000000000E+00  1.
</event>
<event>
 9 112   1.0000000E+00   7.4550000E+01   7.8125000E-03   1.3429423E-01
       -1   -1    0    0    0  501  0.00000000000E+00  0.00000000000E+00  9.85221439060E+02  9.85221439060E+02  0.00000000000E+00  0.00000000000E+00  1.
        2   -1    0    0  501    0  0.00000000000E+00  0.00000000000E+00 -1.01983191096E+03  1.01983191096E+03  0.00000000000E+00  0.00000000000E+00  1.
       25    1    1    2    0    0  5.44941026786E+02  7.03133687132E+02  2.52526202269E+02  9.33141033010E+02  1.25000000000E+02  0.00000000000E+00  1.
        6    2    1    2  502    0 -8.77965420014E+00 -1.08426870628E+02 -1.67599581903E+02  2.62323327786E+02  1.69971879569E+02  0.00000000000E+00  1.
       -5    1    1    2    0  502 -5.36161372586E+02 -5.94706816504E+02 -1.19537092269E+02  8.09588989228E+02  1.36211937495E-05  0.00000000000E+00  1.
        5    1    4    4  502    0 -4.78718053641E+01 -9.77893637797E+00 -1.03062161457E+02  1.14156510851E+02  4.75000000000E+00  0.00000000000E+00  1.
       24    2    4    4    0    0  3.90921511640E+01 -9.86479342499E+01 -6.45374204468E+01  1.48166816935E+02  8.08004689858E+01  0.00000000000E+00  1.
      -11    1    7    7    0    0  1.04930888228E+01 -2.58592221020E+00  1.61934102614E+01  1.94683960016E+01  5.11003158521E-04  0.00000000000E+00  1.
       12    1    7    7    0    0  2.85990623412E+01 -9.60620120397E+01 -8.07308307082E+01  1.28698420933E+02  2.13248059988E-06  0.00000000000E+00  1.
</event>
<event>
 9 112   1.0000000E+00   7.4550000E+01   7.8125000E-03   1.3429423E-01
        2   -1    0    0  501    0  0.00000000000E+00  0.00000000000E+00  1.33483176113E+03  1.33483176113E+03  0.00000000000E+00  0.00000000000E+00  1.
       -1   -1    0    0    0  501  0.00000000000E+00  0.00000000000E+00 -3.09579014144E+01  3.09579014144E+01  0.00000000000E+00  0.00000000000E+00  1.
       25    1    1    2    0    0 -5.46136648591E+00 -2.43288661232E+01  7.48548316046E+02  7.59322923206E+02  1.25000000000E+02  0.00000000000E+00  1.
        6    2    1    2  502    0  1.91269800146E+01  3.53112696736E+01  5.60531431827E+02  5.88178397355E+02  1.73624923092E+02  0.00000000000E+00  1.
       -5    1    1    2    0  502 -1.36656135287E+01 -1.09824035504E+01 -5.20588816021E+00  1.82883419805E+01  4.29443089439E-06  0.00000000000E+00  1.
        5    1    4    4  502    0  3.26674340221E+01  7.83996910543E+01  3.08754086835E+02  3.20258210574E+02  4.75000000000E+00  0.00000000000E+00  1.
       24    2    4    4    0    0 -1.35404540076E+01 -4.30884213806E+01  2.51777344992E+02  2.67920186781E+02  7.96833676595E+01  0.00000000000E+00  1.
      -11    1    7    7    0    0  5.25474410414E+00  2.13479964010E+01  3.85586396864E+01  4.43860110920E+01  5.10992813200E-04  0.00000000000E+00  1.
       12    1    7    7    0    0 -1.87951981117E+01 -6.44364177816E+01  2.13218705306E+02  2.23534175689E+02  2.69739830470E-06  0.00000000000E+00  1.
</event>
<event>
 9 112   1.0000000E+00   7.4550000E+01   7.8125000E-03   1.3429423E-01
       -1   -1    0    0    0  501  0.00000000000E+00  0.00000000000E+00  1.59183256971E+02  1.59183256971E+02  0.00000000000E+00  0.00000000000E+00  1.
        2   -1    0    0  501    0  0.00000000000E+00  0.00000000000E+00 -7.59237550909E+02  7.59237550909E+02  0.00000000000E+00  0.00000000000E+00  1.
       25    1    1    2    0    0  5.54227886632E+01  1.14589159519E+02 -1.84343964380E+02  2.56534711464E+02  1.25000000000E+02  0.00000000000E+00  1.
        6    2    1    2  502    0  1.75902750329E+02 -1.53560121047E+01 -2.94064055747E+02  3.82321187195E+02  1.68873433715E+02  0.00000000000E+00  1.
       -5    1    1    2    0  502 -2.31325538992E+02 -9.92331474146E+01 -1.21646273811E+02  2.79564909221E+02  3.81469726562E-06  0.00000000000E+00  1.
        5    1    4    4  502    0  5.71307746943E+01 -1.63172502320E+01 -4.18218619722E+00  5.97514121481E+01  4.75000000000E+00  0.00000000000E+00  1.
       24    2    4    4    0    0  1.18771975635E+02  9.61238127279E-01 -2.89881869550E+02  3.22569775047E+02  7.68898907865E+01  0.00000000000E+00  1.
       -1    1    7    7    0  703  1.30295329591E+01  2.29740267986E+01 -2.43999771164E+01  3.59573847736E+01  4.14327316212E-06  0.00000000000E+00  1.
        2    1    7    7  703    0  1.05742442675E+02 -2.20127886714E+01 -2.65481892433E+02  2.86612390273E+02  3.81469726562E-06  0.00000000000E+00  1.
</event>
<event>
 9 112   1.0000000E+00   7.4550000E+01   7.8125000E-03   1.3429423E-01
       -1   -1    0    0    0  501  0.00000000000E+00  0.00000000000E+00  5.83701451761E+02  5.83701451761E+02  0.00000000000E+00  0.00000000000E+00  1.
        2   -1    0    0  501    0  0.00000000000E+00  0.00000000000E+00 -1.98144278871E+02  1.98144278871E+02  0.00000000000E+00  0.00000000000E+00  1.
       25    1    1    2    0    0  1.23701465349E+02 -3.72322064484E+00  4.04169763974E+01  1.80483924167E+02  1.25000000000E+02  0.00000000000E+00  1.
        6    2    1    2  502    0 -3.70956035221E+01 -9.68314470884E+01 -2.78653523904E+01  2.05451518644E+02  1.75161170650E+02  0.00000000000E+00  1.
       -5    1    1    2    0  502 -8.66058618269E+01  1.00554667733E+02  3.73005548883E+02  3.95910287822E+02  7.62939453125E-06  0.00000000000E+00  1.
        5    1    4    4  502    0 -6.04354775618E+01 -3.00852650153E+01 -5.91535988264E+01  8.98848200380E+01  4.75000000000E+00  0.00000000000E+00  1.
       24    2    4    4    0    0  2.33398740397E+01 -6.67461820732E+01  3.12882464360E+01  1.15566698606E+02  8.58889103445E+01  0.00000000000E+00  1.
      -15    1    7    7    0    0 -1.32070972733E+00  1.69481541761E+01 -9.16372466005E+00  1.93936863965E+01  1.77680000000E+00  0.00000000000E+00  1.
       16    1    7    7    0    0  2.46605837670E+01 -8.36943362492E+01  4.04519710960E+01  9.61730122097E+01  1.50789149292E-06  0.00000000000E+00  1.
</event>
<event>
 9 112   1.0000000E+00   7.4550000E+01   7.8125000E-03   1.3429423E-01
        2   -1    0    0  501    0  0.00000000000E+00  0.00000000000E+00  1.02506941207E+03  1.02506941207E+03  0.00000000000E+00  0.00000000000E+00  1.
       -1   -1    0    0    0  501  0.00000000000E+00  0.00000000000E+00 -1.31341184217E+02  1.31341184217E+02  0.00000000000E+00  0.00000000000E+00  1.
       25    1    1    2    0    0  2.35054037231E+01 -7.51076859941E+01  4.35037786708E+02  4.59430674165E+02  1.25000000000E+02  0.00000000000E+00  1.
        6    2    1    2  502    0  1.99594456985E+01  1.05270294829E+02  5.52916921087E+02  5.88916951457E+02  1.72121583895E+02  0.00000000000E+00  1.
       -5    1    1    2    0  502 -4.34648494217E+01 -3.01626088346E+01 -9.42264799423E+01  1.08062970667E+02  5.72204589844E-06  0.00000000000E+00  1.
        5    1    4    4  502    0  1.78297111480E+01  1.04873103001E+02  3.88872771731E+02  4.03188369657E+02  4.75000000002E+00  0.00000000000E+00  1.
       24    2    4    4    0    0  2.12973455057E+00  3.97191827600E-01  1.64044149356E+02  1.85728581800E+02  8.70627912990E+01  0.00000000000E+00  1.
       -3    1    7    7    0  703 -2.00494428108E+01  2.94379520200E+01  2.93080134205E+01  4.61251864691E+01  1.21570098724E-06  0.00000000000E+00  1.
        4    1    7    7  703    0  2.21791773613E+01 -2.90407601924E+01  1.34736135936E+02  1.39603395331E+02  2.69739830470E-06  0.00000000000E+00  1.
</event>
<event>
 9 112   1.0000000E+00   7.4550000E+01   7.8125000E-03   1.3429423E-01
        2   -1    0    0  501    0  0.00000000000E+00  0.00000000000E+00  2.65522012076E+02  2.65522012076E+02  0.00000000000E+00  0.00000000000E+00  1.
       -1   -1    0    0    0  501  0.00000000000E+00  0.00000000000E+00 -4.09839628610E+02  4.09839628610E+02  0.00000000000E+00  0.00000000000E+00  1.
       25    1    1    2    0    0  8.74126711788E+01  1.06622622014E+02 -6.24443727229E+01  1.96299919237E+02  1.25000000000E+02  0.00000000000E+00  1.
        6    2    1    2  502    0 -3.57579395817E+01  1.36784782465E+02 -3.50714570856E+01  2.25870522763E+02  1.72623228431E+02  0.00000000000E+00  1.
       -5    1    1    2    0  502 -5.16547315971E+01 -2.43407404479E+02 -4.68017867250E+01  2.53191198686E+02  9.53674316406E-07  0.00000000000E+00  1.
        5    1    4    4  502    0  1.69991607428E+01  1.20870295286E+02  1.56902829116E+00  1.22162285908E+02  4.75000000000E+00  0.00000000000E+00  1.
       24    2    4    4    0    0 -5.27571003245E+01  1.59144871791E+01 -3.66404853767E+01  1.03708236855E+02  7.98516792945E+01  0.00000000000E+00  1.
       -1    1    7    7    0  703 -2.78134389058E+01 -3.07384511479E+01 -4.23566739234E+00  4.16699008998E+01  1.88486436615E-07  0.00000000000E+00  1.
        2    1    7    7  703    0 -2.49436614187E+01  4.66529383270E+01 -3.24048179844E+01  6.20383359554E+01  1.26159253648E-06  0.00000000000E+00  1.
</event>
<event>
 9 112   1.0000000E+00   7.4550000E+01   7.8125000E-03   1.3429423E-01
       -1   -1    0    0    0  501  0.00000000000E+00  0.00000000000E+00  1.71093974829E+03  1.71093974829E+03  0.00000000000E+00  0.00000000000E+00  1.
        2   -1    0    0  501    0  0.00000000000E+00  0.00000000000E+00 -2.08227250733E+02  2.08227250733E+02  0.00000000000E+00  0.00000000000E+00  1.
       25    1    1    2    0    0 -2.54603412263E+02  1.98890643765E+02  2.46175480212E+02  4.24979708658E+02  1.25000000000E+02  0.00000000000E+00  1.
        6    2    1    2  502    0  3.85959178884E+02 -1.54076566020E+02  3.32413881813E+02  5.59700153688E+02  1.73381652013E+02  0.00000000000E+00  1.
       -5    1    1    2    0  502 -1.31355766621E+02 -4.48140777456E+01  9.24123135529E+02  9.34487136674E+02  1.07895932188E-05  0.00000000000E+00  1.
        5    1    4    4  502    0  2.17397041269E+02 -3.91703160235E+01  1.06762698741E+02  2.45390756860E+02  4.75000000000E+00  0.00000000000E+00  1.
       24    2    4    4    0    0  1.68562137615E+02 -1.14906249996E+02  2.25651183072E+02  3.14309396827E+02  7.90904544613E+01  0.00000000000E+00  1.
       -3    1    7    7    0  703  9.63838892237E+01 -4.17148506994E+01  6.47641240772E+01  1.23387092673E+02  2.69739830470E-06  0.00000000000E+00  1.
        4    1    7    7  703    0  7.21782483913E+01 -7.31913992968E+01  1.60887058994E+02  1.90922304155E+02  2.69739830470E-06  0.00000000000E+00  1.
</event>
<event>
 9 112   1.0000000E+00   7.4550000E+01   7.8125000E-03   1.3429423E-01
       -1   -1    0    0    0  501  0.00000000000E+00  0.00000000000E+00  7.53717581526E+01  7.53717581526E+01  0.00000000000E+00  0.00000000000E+00  1.
        2   -1    0    0  501    0  0.00000000000E+00  0.00000000000E+00 -1.08613708241E+03  1.08613708241E+03  0.00000000000E+00  0.00000000000E+00  1.
       25    1    1    2    0    0 -1.40717641507E+02 -1.92652733014E+01 -2.36396022090E+02  3.02788184457E+02  1.25000000000E+02  0.00000000000E+00  1.
        6    2    1    2  502    0 -4.38257368390E+01  3.55779340944E+01 -4.17090919354E+02  4.56265435964E+02  1.76144339802E+02  0.00000000000E+00  1.
       -5    1    1    2    0  502  1.84543378346E+02 -1.63126607930E+01 -3.57278382814E+02  4.02455220143E+02  6.60724947956E-06  0.00000000000E+00  1.
        5    1    4    4  502    0 -4.31679721199E+01 -4.61849416698E+01 -8.67165454014E+01  1.07419013216E+02  4.75000000000E+00  0.00000000000E+00  1.
       24    2    4    4    0    0 -6.57764719083E-01  8.17628757642E+01 -3.30374373953E+02  3.48846422748E+02  7.65571629039E+01  0.00000000000E+00  1.
       -3    1    7    7    0  703  2.05423918033E+00  7.22977048666E+01 -1.34405228577E+02  1.52630087127E+02  1.90734863281E-06  0.00000000000E+00  1.
        4    1    7    7  703    0 -2.71200389941E+00  9.46517089758E+00 -1.95969145376E+02  1.96216335621E+02  0.00000000000E+00  0.00000000000E+00  1.
</event>
<event>
 9 112   1.0000000E+00   7.4550000E+01   7.8125000E-03   1.3429423E-01
        2   -1    0    0  501    0  0.00000000000E+00  0.00000000000E+00  1.09222492657E+02  1.09222492657E+02  0.00000000000E+00  0.00000000000E+00  1.
       -1   -1    0    0    0  501  0.00000000000E+00  0.00000000000E+00 -5.26633222334E+02  5.26633222334E+02  0.00000000000E+00  0.00000000000E+00  1.
       25    1    1    2    0    0 -3.43537615240E-01  6.14587881326E+01 -1.34812878430E+02  1.93847395771E+02  1.25000000000E+02  0.00000000000E+00  1.
        6    2    1    2  502    0 -3.48090285883E+01  7.43291845851E+01 -2.10464535438E+02  2.84282951269E+02  1.72583253976E+02  0.00000000000E+00  1.
       -5    1    1    2    0  502  3.51525662036E+01 -1.35787972718E+02 -7.21333158089E+01  1.57725367950E+02  3.56832255056E-06  0.00000000000E+00  1.
        5    1    4    4  502    0 -6.28136063071E+01 -1.24691481456E+01 -4.46540392555E+01  7.82149251397E+01  4.75000000000E+00  0.00000000000E+00  1.
       24    2    4    4    0    0  2.80045777188E+01  8.67983327307E+01 -1.65810496183E+02  2.06068026130E+02  8.15641085928E+01  0.00000000000E+00  1.
       -1    1    7    7    0  703  6.77075163678E+00  6.08062715473E+01 -1.60910442393E+02  1.72149400836E+02  0.00000000000E+00  0.00000000000E+00  1.
        2    1    7    7  703    0  2.12338260820E+01  2.59920611834E+01 -4.90005378977E+00  3.39186252932E+01  2.15320490219E-06  0.00000000000E+00  1.
</event>
<event>
 9 112   1.0000000E+00   7.4550000E+01   7.8125000E-03   1.3429423E-01
       -1   -1    0    0    0  501  0.00000000000E+00  0.00000000000E+00  8.23113371705E+02  8.23113371705E+02  0.00000000000E+00  0.00000000000E+00  1.
        2   -1    0    0  501    0  0.00000000000E+00  0.00000000000E+00 -8.98191025970E+01  8.98191025970E+01  0.00000000000E+00  0.00000000000E+00  1.
       25    1    1    2    0    0 -8.32433037240E+01 -2.98879442626E+01  2.38541529731E+02  2.83460399763E+02  1.25000000000E+02  0.00000000000E+00  1.
        6    2    1    2  502    0  1.93045267656E+02  3.14069205473E+01  2.51976484265E+02  3.63015532833E+02  1.73306833197E+02  0.00000000000E+00  1.
       -5    1    1    2    0  502 -1.09801963932E+02 -1.51897628467E+00  2.42776255112E+02  2.66456541707E+02  0.00000000000E+00  0.00000000000E+00  1.
        5    1    4    4  502    0  1.69651829135E+02  1.18003315244E+00  1.88704139427E+02  2.53801005404E+02  4.75000000000E+00  0.00000000000E+00  1.
       24    2    4    4    0    0  2.33934385210E+01  3.02268873949E+01  6.32723448385E+01  1.09214527429E+02  8.03959308228E+01  0.00000000000E+00  1.
       -1    1    7    7    0  703  2.51390347553E+01 -1.87310878711E+01  4.90321400573E+01  5.81977274459E+01  1.50789149292E-06  0.00000000000E+00  1.
        2    1    7    7  703    0 -1.74559623426E+00  4.89579752660E+01  1.42402047812E+01  5.10167999836E+01  1.58148993986E-06  0.00000000000E+00  1.
</event>
<event>
 9 112   1.0000000E+00   7.4550000E+01   7.8125000E-03   1.3429423E-01
       -1   -1    0    0    0  501  0.00000000000E+00  0.00000000000E+00  1.74011032050E+01  1.74011032050E+01  0.00000000000E+00  0.00000000000E+00  1.
        2   -1    0    0  501    0  0.00000000000E+00  0.00000000000E+00 -2.82644037162E+03  2.82644037162E+03  0.00000000000E+00  0.00000000000E+00  1.
       25    1    1    2    0    0  1.34151800374E+01  1.59410959188E+01 -1.14340325459E+03  1.15040431510E+03  1.25000000000E+02  0.00000000000E+00  1.
        6    2    1    2  502    0  9.01609725936E+01  6.76597724491E+00 -1.08963618734E+03  1.10775855274E+03  1.77896630059E+02  0.00000000000E+00  1.
       -5    1    1    2    0  502 -1.03576152631E+02 -2.27070731637E+01 -5.75999826481E+02  5.85678606978E+02  1.07895932188E-05  0.00000000000E+00  1.
        5    1    4    4  502    0 -1.02084337725E+01  5.90343431803E+01 -2.86558949684E+02  2.92793203369E+02  4.75000000002E+00  0.00000000000E+00  1.
       24    2    4    4    0    0  1.00369406366E+02 -5.22683659354E+01 -8.03077237656E+02  8.14965349374E+02  8.01839836090E+01  0.00000000000E+00  1.
       -1    1    7    7    0  703  1.23036293666E+01 -1.68824117609E+01 -3.29644688591E+01  3.90262902364E+01  8.36845816364E-06  0.00000000000E+00  1.
        2    1    7    7  703    0  8.80657769995E+01 -3.53859541744E+01 -7.70112768797E+02  7.75939059138E+02  1.07895932188E-05  0.00000000000E+00  1.
</event>
<event>
 9 112   1.0000000E+00   7.4550000E+01   7.8125000E-03   1.3429423E-01
       -1   -1    0    0    0  501  0.00000000000E+00  0.00000000000E+00  2.03054283565E+01  2.03054283565E+01  0.00000000000E+00  0.00000000000E+00  1.
        2   -1    0    0  501    0  0.00000000000E+00  0.00000000000E+00 -2.25121347126E+03  2.25121347126E+03  0.00000000000E+00  0.00000000000E+00  1.
       25    1    1    2    0    0  9.19637867964E+01  4.15553400464E+00 -8.31211538451E+02  8.45583956919E+02  1.25000000000E+02  0.00000000000E+00  1.
        6    2    1    2  502    0 -1.35430144104E+02 -1.10908167965E+01 -9.95457817628E+02  1.01930693298E+03  1.72005891717E+02  0.00000000000E+00  1.
       -5    1    1    2    0  502  4.34663573079E+01  6.93528279181E+00 -4.04238686822E+02  4.06628009719E+02  5.39479660939E-06  0.00000000000E+00  1.
        5    1    4    4  502    0 -6.94188925077E+01  3.66206567245E+01 -6.66908564223E+02  6.71527848022E+02  4.74999999999E+00  0.00000000000E+00  1.
       24    2    4    4    0    0 -6.60112515966E+01 -4.77114735210E+01 -3.28549253405E+02  3.47779084953E+02  7.98236178997E+01  0.00000000000E+00  1.
      -11    1    7    7    0    0 -6.53256706486E+01 -6.76572239859E+01 -2.67580582632E+02  2.83627063951E+02  5.10970119505E-04  0.00000000000E+00  1.
       12    1    7    7    0    0 -6.85580947955E-01  1.99457504649E+01 -6.09686707730E+01  6.41520210022E+01  2.02304872852E-06  0.00000000000E+00  1.
</event>
<event>
 9 112   1.0000000E+00   7.4550000E+01   7.8125000E-03   1.3429423E-01
       -1   -1    0    0    0  501  0.00000000000E+00  0.00000000000E+00  1.85193674655E+02  1.85193674655E+02  0.00000000000E+00  0.00000000000E+00  1.
        2   -1    0    0  501    0  0.00000000000E+00  0.00000000000E+00 -5.13290378180E+02  5.13290378180E+02  0.00000000000E+00  0.00000000000E+00  1.
       25    1    1    2    0    0  8.47246501404E+01 -5.61318457819E+01 -1.78394107080E+02  2.40371603758E+02  1.25000000000E+02  0.00000000000E+00  1.
        6    2    1    2  502    0 -1.23695134246E+02 -7.95243466775E+01 -2.05582452593E+02  3.06310408554E+02  1.73024026146E+02  0.00000000000E+00  1.
       -5    1    1    2    0  502  3.89704841058E+01  1.35656192459E+02  5.58798561473E+01  1.51802040523E+02  3.75461953831E-06  0.00000000000E+00  1.
        5    1    4    4  502    0 -1.33857210654E+01  8.23057392094E+00  2.12618988815E+01  2.68616961407E+01  4.75000000000E+00  0.00000000000E+00  1.
       24    2    4    4    0    0 -1.10309413181E+02 -8.77549205984E+01 -2.26844351474E+02  2.79448712414E+02  8.22443332286E+01  0.00000000000E+00  1.
       -1    1    7    7    0  703 -9.68302909976E+01 -5.58544681618E+01 -1.07149378370E+02  1.54844490226E+02  3.01578298585E-06  0.00000000000E+00  1.
        2    1    7    7  703    0 -1.34791221832E+01 -3.19004524366E+01 -1.19694973104E+02  1.24604222187E+02  3.30362473978E-06  0.00000000000E+00  1.
</event>
<event>
 9 112   1.0000000E+00   7.4550000E+01   7.8125000E-03   1.3429423E-01
        2   -1    0    0  501    0  0.00000000000E+00  0.00000000000E+00  1.75197899948E+02  1.75197899948E+02  0.00000000000E+00  0.00000000000E+00  1.
       -1   -1    0    0    0  501  0.00000000000E+00  0.00000000000E+00 -5.75474062119E+02  5.75474062119E+02  0.00000000000E+00  0.00000000000E+00  1.
       25    1    1    2    0    0 -3.04725189594E+01  3.13257020532E+01  2.10250619311E+01  1.34078064015E+02  1.25000000000E+02  0.00000000000E+00  1.
        6    2    1    2  502    0 -1.55642193389E+02  3.94042630130E+01 -1.47959441124E+02  2.78426566051E+02  1.72777799960E+02  0.00000000000E+00  1.
       -5    1    1    2    0  502  1.86114712349E+02 -7.07299650662E+01 -2.73341782978E+02  3.38167332001E+02  5.39479660939E-06  0.00000000000E+00  1.
        5    1    4    4  502    0 -1.47401186363E+02  5.13684386503E+00 -9.32930122622E+01  1.74584207599E+02  4.75000000000E+00  0.00000000000E+00  1.
       24    2    4    4    0    0 -8.24100702660E+00  3.42674191480E+01 -5.46664288618E+01  1.03842358452E+02  8.09484203218E+01  0.00000000000E+00  1.
      -13    1    7    7    0    0  1.23026362946E-01 -1.99662597959E+01  7.12676552501E+00  2.12006749092E+01  1.05660000006E-01  0.00000000000E+00  1.
       14    1    7    7    0    0 -8.36403338955E+00  5.42336789439E+01 -6.17931943868E+01  8.26416835432E+01  1.16800772800E-06  0.00000000000E+00  1.
</event>
<event>
 9 112   1.0000000E+00   7.4550000E+01   7.8125000E-03   1.3429423E-01
        2   -1    0    0  501    0  0.00000000000E+00  0.00000000000E+00  2.12961448479E+03  2.12961448479E+03  0.00000000000E+00  0.00000000000E+00  1.
       -1   -1    0    0    0  501  0.00000000000E+00  0.00000000000E+00 -5.51104341936E+01  5.51104341936E+01  0.00000000000E+00  0.00000000000E+00  1.
       25    1    1    2    0    0  4.81329927726E+01 -8.15308322579E+01  9.81422610596E+02  9.93870918274E+02  1.25000000000E+02  0.00000000000E+00  1.
        6    2    1    2  502    0 -1.44770651210E+02 -9.40408138879E+01  3.98747971517E+02  4.68176198771E+02  1.74318077600E+02  0.00000000000E+00  1.
       -5    1    1    2    0  502  9.66376584375E+01  1.75571646146E+02  6.94333468487E+02  7.22677801942E+02  7.62939453125E-06  0.00000000000E+00  1.
        5    1    4    4  502    0 -9.77245159516E+00 -9.18085730601E+00  1.99850674189E+02  2.00356291204E+02  4.75000000000E+00  0.00000000000E+00  1.
       24    2    4    4    0    0 -1.34998199615E+02 -8.48599565819E+01  1.98897297327E+02  2.67819907567E+02  8.21075019387E+01  0.00000000000E+00  1.
       -1    1    7    7    0  703 -7.51544258813E+01 -2.24116547796E+01  4.27554404151E+01  8.93224366248E+01  1.90734863281E-06  0.00000000000E+00  1.
        2    1    7    7  703    0 -5.98437737337E+01 -6.24483018023E+01  1.56141856912E+02  1.78497470942E+02  1.90734863281E-06  0.00000000000E+00  1.
</event>
<event>
 9 112   1.0000000E+00   7.4550000E+01   7.8125000E-03   1.3429423E-01
       -1   -1    0    0    0  501  0.00000000000E+00  0.00000000000E+00  1.37273948678E+02  1.37273948678E+02  0.00000000000E+00  0.00000000000E+00  1.
        2   -1    0    0  501    0  0.00000000000E+00  0.00000000000E+00 -7.94851638788E+02  7.94851638788E+02  0.00000000000E+00  0.00000000000E+00  1.
       25    1    1    2    0    0  1.11867588280E+02 -1.51645183795E+02 -4.63423884882E+02  5.15652321002E+02  1.25000000000E+02  0.00000000000E+00  1.
        6    2    1    2  502    0 -3.04990791030E+01  1.95192352081E+02 -1.86398118759E+02  3.23859332177E+02  1.76381292160E+02  0.00000000000E+00  1.
       -5    1    1    2    0  502 -8.13685091768E+01 -4.35471682857E+01 -7.75568646837E+00  9.26139342861E+01  2.60083964220E-06  0.00000000000E+00  1.
        5    1    4    4  502    0  1.49381450569E+00  1.38119306456E+02 -1.67620576161E+02  2.17251914492E+02  4.75000000000E+00  0.00000000000E+00  1.
       24    2    4    4    0    0 -3.19928936087E+01  5.70730456250E+01 -1.87775425982E+01  1.06607417685E+02  8.20467404660E+01  0.00000000000E+00  1.
       -3    1    7    7    0  703 -4.98437564377E+01  6.34601458212E+01 -2.81430583475E+01  8.54612303715E+01  5.84003863998E-07  0.00000000000E+00  1.
        4    1    7    7  703    0  1.78508628289E+01 -6.38710019622E+00  9.36551574931E+00  2.11461873137E+01  4.46040318820E-07  0.00000000000E+00  1.
</event>
<event>
 9 112   1.0000000E+00   7.4550000E+01   7.8125000E-03   1.3429423E-01
        2   -1    0    0  501    0  0.00000000000E+00  0.00000000000E+00  1.39001255121E+03  1.39001255121E+03  0.00000000000E+00  0.00000000000E+00  1.
       -1   -1    0    0    0  501  0.00000000000E+00  0.00000000000E+00 -4.12887792568E+02  4.12887792568E+02  0.00000000000E+00  0.00000000000E+00  1.
       25    1    1    2    0    0  2.53928988701E+02 -1.07993882793E+02  4.33729765155E+02  5.29045479335E+02  1.25000000000E+02  0.00000000000E+00  1.
        6    2    1    2  502    0  2.30978679503E+02 -1.11517977759E+02  6.60332330915E+02  7.28882163759E+02  1.71589660661E+02  0.00000000000E+00  1.
       -5    1    1    2    0  502 -4.84907668204E+02  2.19511860552E+02 -1.16937337428E+02  5.44972700684E+02  2.16633161385E-05  0.00000000000E+00  1.
        5    1    4    4  502    0  2.01297233281E+02 -8.75145546480E+01  4.36854862923E+02  4.88921371144E+02  4.75000000000E+00  0.00000000000E+00  1.
       24    2    4    4    0    0  2.96814462222E+01 -2.40034231113E+01  2.23477467992E+02  2.39960792615E+02  7.86247462405E+01  0.00000000000E+00  1.
      -13    1    7    7    0    0 -2.33517343912E+01 -2.46110633806E+01  7.57228173773E+01  8.29756842417E+01  1.05660000000E-01  0.00000000000E+00  1.
       14    1    7    7    0    0  5.30331806134E+01  6.07640269283E-01  1.47754650615E+02  1.56985108373E+02  1.90734863281E-06  0.00000000000E+00  1.
</event>
<event>
 9 112   1.0000000E+00   7.4550000E+01   7.8125000E-03   1.3429423E-01
        2   -1    0    0  501    0  0.00000000000E+00  0.00000000000E+00  2.01553953629E+03  2.01553953629E+03  0.00000000000E+00  0.00000000000E+00  1.
       -1   -1    0    0    0  501  0.00000000000E+00  0.00000000000E+00 -2.91374363538E+02  2.91374363538E+02  0.00000000000E+00  0.00000000000E+00  1.
       25    1    1    2    0    0  3.20007613979E+02  1.70696341122E+02  9.87382765613E+02  1.05928836476E+03  1.25000000000E+02  0.00000000000E+00  1.
        6    2    1    2  502    0  2.56550994410E+02  1.09595907390E+02  4.18399749846E+02  5.31838492755E+02  1.73101577275E+02  0.00000000000E+00  1.
       -5    1    1    2    0  502 -5.76558608389E+02 -2.80292248512E+02  3.18382657292E+02  7.15787042316E+02  1.07895932188E-05  0.00000000000E+00  1.
        5    1    4    4  502    0  2.22414742313E+01 -2.67962853049E+01  1.25452978818E+01  3.73185085590E+01  4.75000000000E+00  0.00000000000E+00  1.
       24    2    4    4    0    0  2.34309520179E+02  1.36392192695E+02  4.05854451965E+02  4.94519984196E+02  7.95512232169E+01  0.00000000000E+00  1.
       -3    1    7    7    0  703  1.89775655101E+02  1.23086700964E+02  2.77506136230E+02  3.58015070729E+02  0.00000000000E+00  0.00000000000E+00  1.
        4    1    7    7  703    0  4.45338650775E+01  1.33054917307E+01  1.28348315734E+02  1.36504913467E+02  1.90734863281E-06  0.00000000000E+00  1.
</event>
<event>
 9 112   1.0000000E+00   7.4550000E+01   7.8125000E-03   1.3429423E-01
        2   -1    0    0  501    0  0.00000000000E+00  0.00000000000E+00  1.04526474874E+03  1.04526474874E+03  0.00000000000E+00  0.00000000000E+00  1.
       -1   -1    0    0    0  501  0.00000000000E+00  0.00000000000E+00 -1.28397329507E+02  1.28397329507E+02  0.00000000000E+00  0.00000000000E+00  1.
       25    1    1    2    0    0  7.80616900056E+00 -1.87159416447E+02  5.17238178044E+02  5.64136434088E+02  1.25000000000E+02  0.00000000000E+00  1.
        6    2    1    2  502    0  4.63580345251E+01  3.31589895756E+01  4.07037483358E+02  4.46109688778E+02  1.73452459216E+02  0.00000000000E+00  1.
       -5    1    1    2    0  502 -5.41642035256E+01  1.54000426872E+02 -7.40824217197E+00  1.63415955379E+02  8.25906184945E-07  0.00000000000E+00  1.
        5    1    4    4  502    0 -2.13095338763E+01 -4.33152620244E+01  8.19611409731E+01  9.52391688743E+01  4.75000000000E+00  0.00000000000E+00  1.
       24    2    4    4    0    0  6.76675684013E+01  7.64742516000E+01  3.25076342385E+02  3.50870519903E+02  8.37154847541E+01  0.00000000000E+00  1.
       -3    1    7    7    0  703  4.99520674892E+01  9.38391951660E+01  2.78510080076E+02  2.98108819561E+02  0.00000000000E+00  0.00000000000E+00  1.
        4    1    7    7  703    0  1.77155009121E+01 -1.73649435660E+01  4.65662623087E+01  5.27617003424E+01  3.30362473978E-06  0.00000000000E+00  1.
</event>
<event>
 9 112   1.0000000E+00   7.4550000E+01   7.8125000E-03   1.3429423E-01
        2   -1    0    0  501    0  0.00000000000E+00  0.00000000000E+00  2.18055852839E+02  2.18055852839E+02  0.00000000000E+00  0.00000000000E+00  1.
       -1   -1    0    0    0  501  0.00000000000E+00  0.00000000000E+00 -4.31723517313E+02  4.31723517313E+02  0.00000000000E+00  0.00000000000E+00  1.
       25    1    1    2    0    0 -4.33609558271E+01 -1.51578215957E+02  4.72112110400E+01  2.06664042569E+02  1.25000000000E+02  0.00000000000E+00  1.
        6    2    1    2  502    0  3.02580765478E+01  8.77479618261E+01 -2.43235745154E+01  1.97749483956E+02  1.72910283462E+02  0.00000000000E+00  1.
       -5    1    1    2    0  502  1.31028792793E+01  6.38302541310E+01 -2.36555300999E+02  2.45365843626E+02  2.69739830470E-06  0.00000000000E+00  1.
        5    1    4    4  502    0 -1.66354024926E+01  7.01759172364E+01  4.21791713237E+01  8.36841739495E+01  4.75000000000E+00  0.00000000000E+00  1.
       24    2    4    4    0    0  4.68934790405E+01  1.75720445897E+01 -6.65027458390E+01  1.14065310007E+02  7.79775904682E+01  0.00000000000E+00  1.
       -1    1    7    7    0  703  3.22111577309E+01  4.86011244341E+01 -4.02495501003E+01  7.08495184310E+01  1.43051147461E-06  0.00000000000E+00  1.
        2    1    7    7  703    0  1.46823213095E+01 -3.10290798444E+01 -2.62531957387E+01  4.32157915758E+01  3.37174788087E-07  0.00000000000E+00  1.
</event>
<event>
 9 112   1.0000000E+00   7.4550000E+01   7.8125000E-03   1.3429423E-01
        2   -1    0    0  501    0  0.00000000000E+00  0.00000000000E+00  9.26529429205E+02  9.26529429205E+02  0.00000000000E+00  0.00000000000E+00  1.
       -1   -1    0    0    0  501  0.00000000000E+00  0.00000000000E+00 -7.58998200269E+01  7.58998200269E+01  0.00000000000E+00  0.00000000000E+00  1.
       25    1    1    2    0    0 -4.30451005071E+01  1.25474740484E+01  5.78495123837E+02  5.93541850324E+02  1.25000000000E+02  0.00000000000E+00  1.
        6    2    1    2  502    0  5.21526667800E+01  5.17584474769E+01  2.85975579414E+02  3.42481260699E+02  1.73529664239E+02  0.00000000000E+00  1.
       -5    1    1    2    0  502 -9.10756627287E+00 -6.43059215253E+01 -1.38410940738E+01  6.64061382087E+01  1.55429897432E-06  0.00000000000E+00  1.
        5    1    4    4  502    0  8.69944707418E+01  1.36137886575E+01  1.75511583447E+02  1.96418562273E+02  4.75000000000E+00  0.00000000000E+00  1.
       24    2    4    4    0    0 -3.48418039617E+01  3.81446588194E+01  1.10463995967E+02  1.46062698425E+02  8.03931039742E+01  0.00000000000E+00  1.
       -1    1    7    7    0  703 -4.10449312055E+01  5.00454855532E+01  1.14944020244E+02  1.31914232711E+02  0.00000000000E+00  0.00000000000E+00  1.
        4    1    7    7  703    0  6.20312724380E+00 -1.19008267338E+01 -4.48002427699E+00  1.41484657145E+01  1.35526859771E-06  0.00000000000E+00  1.
</event>
<event>
 9 112   1.0000000E+00   7.4550000E+01   7.8125000E-03   1.3429423E-01
        2   -1    0    0  501    0  0.00000000000E+00  0.00000000000E+00  1.44233479885E+02  1.44233479885E+02  0.00000000000E+00  0.00000000000E+00  1.
       -1   -1    0    0    0  501  0.00000000000E+00  0.00000000000E+00 -4.13819015649E+02  4.13819015649E+02  0.00000000000E+00  0.00000000000E+00  1.
       25    1    1    2    0    0  2.88675858903E+01 -5.93346721476E+01 -1.02944478169E+02  1.74861392021E+02  1.25000000000E+02  0.00000000000E+00  1.
        6    2    1    2  502    0 -5.06888174331E+01  1.55478188090E+02 -7.71057898813E+01  2.50013380270E+02  1.72680526686E+02  0.00000000000E+00  1.
       -5    1    1    2    0  502  2.18212315428E+01 -9.61435159421E+01 -8.95352677131E+01  1.33177723243E+02  4.15696997027E-06  0.00000000000E+00  1.
        5    1    4    4  502    0  2.63261592755E+01  1.12574452438E+02 -5.46306925852E+01  1.27957606559E+02  4.75000000000E+00  0.00000000000E+00  1.
       24    2    4    4    0    0 -7.70149767087E+01  4.29037356514E+01 -2.24750972962E+01  1.22055773711E+02  8.13661153519E+01  0.00000000000E+00  1.
      -13    1    7    7    0    0  3.12269716246E+00 -5.60674030082E+00 -2.75051961718E+01  2.82441809025E+01  1.05660000005E-01  0.00000000000E+00  1.
       14    1    7    7    0    0 -8.01376738712E+01  4.85104759522E+01  5.03009887563E+00  9.38115928086E+01  4.17232513428E-07  0.00000000000E+00  1.
</event>
<event>
 9 112   1.0000000E+00   7.4550000E+01   7.8125000E-03   1.3429423E-01
       -1   -1    0    0    0  501  0.00000000000E+00  0.00000000000E+00  8.09711113972E+02  8.09711113972E+02  0.00000000000E+00  0.00000000000E+00  1.
        2   -1    0    0  501    0  0.00000000000E+00  0.00000000000E+00 -5.34449374753E+01  5.34449374753E+01  0.00000000000E+00  0.00000000000E+00  1.
       25    1    1    2    0    0 -4.12329231056E+01  5.76183915539E+01  4.30101926426E+02  4.53467419015E+02  1.25000000000E+02  0.00000000000E+00  1.
        6    2    1    2  502    0  2.40441791485E+01 -8.94212170457E+01  2.20254771614E+02  2.97779337666E+02  1.77724767304E+02  0.00000000000E+00  1.
       -5    1    1    2    0  502  1.71887439571E+01  3.18028254918E+01  1.05909478456E+02  1.11909294766E+02  2.33601545599E-06  0.00000000000E+00  1.
        5    1    4    4  502    0  3.59896843927E+01 -6.57679397822E+00  1.72086616722E+02  1.75996811780E+02  4.75000000000E+00  0.00000000000E+00  1.
       24    2    4    4    0    0 -1.19455052442E+01 -8.28444230674E+01  4.81681548922E+01  1.21782525887E+02  7.41951409236E+01  0.00000000000E+00  1.
       -3    1    7    7    0  703 -1.86594167668E+01 -1.02397086642E+01  4.38471720845E+01  4.87401268711E+01  1.34869915235E-06  0.00000000000E+00  1.
        4    1    7    7  703    0  6.71391152256E+00 -7.26047144032E+01  4.32098280767E+00  7.30423990154E+01  1.34869915235E-06  0.00000000000E+00  1.
</event>
<event>
 9 112   1.0000000E+00   7.4550000E+01   7.8125000E-03   1.3429423E-01
       -1   -1    0    0    0  501  0.00000000000E+00  0.00000000000E+00  4.23826407383E+01  4.23826407383E+01  0.00000000000E+00  0.00000000000E+00  1.
        2   -1    0    0  501    0  0.00000000000E+00  0.00000000000E+00 -1.39862784871E+03  1.39862784871E+03  0.00000000000E+00  0.00000000000E+00  1.
       25    1    1    2    0    0  7.48183340265E+01  7.45426619532E+01 -7.14135804267E+02  7.32645438459E+02  1.25000000000E+02  0.00000000000E+00  1.
        6    2    1    2  502    0 -2.74346924747E+01  1.09089933892E+01 -5.34832543680E+02  5.63259849209E+02  1.74195693012E+02  0.00000000000E+00  1.
       -5    1    1    2    0  502 -4.73836415518E+01 -8.54516553424E+01 -1.07276860029E+02  1.45105201786E+02  3.01578298585E-06  0.00000000000E+00  1.
        5    1    4    4  502    0  5.33878900800E+00 -4.08345005761E+01 -3.51580027745E+02  3.54015589366E+02  4.75000000000E+00  0.00000000000E+00  1.
       24    2    4    4    0    0 -3.27734814827E+01  5.17434939652E+01 -1.83252515935E+02  2.09244259843E+02  8.03130464146E+01  0.00000000000E+00  1.
       -1    1    7    7    0  703  6.91076918973E+00  4.18997956636E+01 -3.37280295515E+01  5.42303566729E+01  2.73922092750E-06  0.00000000000E+00  1.
        2    1    7    7  703    0 -3.96842506725E+01  9.84369830163E+00 -1.49524486384E+02  1.55013903170E+02  0.00000000000E+00  0.00000000000E+00  1.
</event>
<event>
 9 112   1.0000000E+00   7.4550000E+01   7.8125000E-03   1.3429423E-01
       -1   -1    0    0    0  501  0.00000000000E+00  0.00000000000E+00  5.35775558121E+02  5.35775558121E+02  0.00000000000E+00  0.00000000000E+00  1.
        2   -1    0    0  501    0  0.00000000000E+00  0.00000000000E+00 -4.29873277706E+02  4.29873277706E+02  0.00000000000E+00  0.00000000000E+00  1.
       25    1    1    2    0    0 -7.08078197075E+00 -2.18615458074E+02  2.32568835944E+02  3.42864578857E+02  1.25000000000E+02  0.00000000000E+00  1.
        6    2    1    2  502    0 -1.08709677858E+02 -9.48258461542E+01  6.91176360920E+01  2.35506150859E+02  1.72847228253E+02  0.00000000000E+00  1.
       -5    1    1    2    0  502  1.15790459829E+02  3.13441304228E+02 -1.95784191620E+02  3.87278106110E+02  8.09219491409E-06  0.00000000000E+00  1.
        5    1    4    4  502    0  1.44341478531E+01 -6.70967387605E+01  4.97105686784E+01  8.48764991907E+01  4.75000000000E+00  0.00000000000E+00  1.
       24    2    4    4    0    0 -1.23143825712E+02 -2.77291073937E+01  1.94070674136E+01  1.50629651669E+02  7.98708488030E+01  0.00000000000E+00  1.
      -13    1    7    7    0    0 -2.33708258367E+01  2.40429261334E+01 -8.94678643510E+00  3.47032267793E+01  1.05660000005E-01  0.00000000000E+00  1.
       14    1    7    7    0    0 -9.97729998749E+01 -5.17720335271E+01  2.83538538487E+01  1.15926424889E+02  1.43051147461E-06  0.00000000000E+00  1.
</event>
<event>
 9 112   1.0000000E+00   7.4550000E+01   7.8125000E-03   1.3429423E-01
        2   -1    0    0  501    0  0.00000000000E+00  0.00000000000E+00  1.20341073564E+03  1.20341073564E+03  0.00000000000E+00  0.00000000000E+00  1.
       -1   -1    0    0    0  501  0.00000000000E+00  0.00000000000E+00 -6.81035780463E+01  6.81035780463E+01  0.00000000000E+00  0.00000000000E+00  1.
       25    1    1    2    0    0 -3.69151802359E+01 -1.68629938899E+02  2.53384863016E+02  3.31100703156E+02  1.25000000000E+02  0.00000000000E+00  1.
        6    2    1    2  502    0 -2.60929044139E+01  3.48084581513E+01  5.03341536192E+02  5.33963615992E+02  1.72835102706E+02  0.00000000000E+00  1.
       -5    1    1    2    0  502  6.30080846498E+01  1.33821480747E+02  3.78580758390E+02  4.06449994543E+02  7.62939453125E-06  0.00000000000E+00  1.
        5    1    4    4  502    0 -6.73726215684E+01 -8.60701071430E+00  2.93062921120E+02  3.00868059132E+02  4.75000000000E+00  0.00000000000E+00  1.
       24    2    4    4    0    0  4.12797171545E+01  4.34154688656E+01  2.10278615072E+02  2.33095556859E+02  8.07930980096E+01  0.00000000000E+00  1.
       -3    1    7    7    0  703  5.15704814189E+01  8.17251883620E-01  1.49636752191E+02  1.58276151270E+02  3.81469726562E-06  0.00000000000E+00  1.
        4    1    7    7  703    0 -1.02907642644E+01  4.25982169820E+01  6.06418628802E+01  7.48194055895E+01  2.02304872852E-06  0.00000000000E+00  1.
</event>
<event>
 9 112   1.0000000E+00   7.4550000E+01   7.8125000E-03   1.3429423E-01
        2   -1    0    0  501    0  0.00000000000E+00  0.00000000000E+00  1.59931373575E+03  1.59931373575E+03  0.00000000000E+00  0.00000000000E+00  1.
       -1   -1    0    0    0  501  0.00000000000E+00  0.00000000000E+00 -6.60704112152E+01  6.60704112152E+01  0.00000000000E+00  0.00000000000E+00  1.
       25    1    1    2    0    0 -9.54861187586E+01 -2.01007205442E+02  7.47456665842E+02  7.89834136276E+02  1.25000000000E+02  0.00000000000E+00  1.
        6    2    1    2  502    0  1.40749978466E+02  2.09309210743E+02  5.02633334372E+02  5.88681494882E+02  1.74025088578E+02  0.00000000000E+00  1.
       -5    1    1    2    0  502 -4.52638597070E+01 -8.30200530131E+00  2.83153324323E+02  2.86868515810E+02  3.81469726562E-06  0.00000000000E+00  1.
        5    1    4    4  502    0  5.90569572751E+01  1.04529729704E+02  3.55658312517E+02  3.75405895474E+02  4.75000000000E+00  0.00000000000E+00  1.
       24    2    4    4    0    0  8.16930211906E+01  1.04779481039E+02  1.46975021855E+02  2.13275599408E+02  7.89451385164E+01  0.00000000000E+00  1.
       -1    1    7    7    0  703  7.27634094240E+01  1.11430219193E+02  1.51145818308E+02  2.01385863189E+02  1.90734863281E-06  0.00000000000E+00  1.
        2    1    7    7  703    0  8.92961176652E+00 -6.65073815390E+00 -4.17079645317E+00  1.18897362185E+01  2.52388898846E-06  0.00000000000E+00  1.
</event>
<event>
 9 112   1.0000000E+00   7.4550000E+01   7.8125000E-03   1.3429423E-01
       -1   -1    0    0    0  501  0.00000000000E+00  0.00000000000E+00  5.78988018384E+01  5.78988018384E+01  0.00000000000E+00  0.00000000000E+00  1.
        2   -1    0    0  501    0  0.00000000000E+00  0.00000000000E+00 -2.44773012752E+03  2.44773012752E+03  0.00000000000E+00  0.00000000000E+00  1.
       25    1    1    2    0    0 -1.59350794213E+02  1.82949901434E+02 -1.35800947526E+03  1.38516355603E+03  1.25000000000E+02  0.00000000000E+00  1.
        6    2    1    2  502    0  5.23174120487E+01 -6.89621198998E+01 -8.85587884628E+02  9.06377232630E+02  1.72513480185E+02  0.00000000000E+00  1.
       -5    1    1    2    0  502  1.07033382164E+02 -1.13987781535E+02 -1.46233965791E+02  2.14088140698E+02  7.13664510112E-06  0.00000000000E+00  1.
        5    1    4    4  502    0  1.76580155674E+01 -4.22796009562E+01 -6.03060660949E+01  7.58864564903E+01  4.75000000001E+00  0.00000000000E+00  1.
       24    2    4    4    0    0  3.46593964813E+01 -2.66825189435E+01 -8.25281818533E+02  8.30490776140E+02  8.19244693012E+01  0.00000000000E+00  1.
      -13    1    7    7    0    0  3.40694437864E+01 -4.85130353648E+01 -3.72945657197E+02  3.77627747903E+02  1.05660000090E-01  0.00000000000E+00  1.
       14    1    7    7    0    0  5.89952694890E-01  2.18305164213E+01 -4.52336161337E+02  4.52863028237E+02  0.00000000000E+00  0.00000000000E+00  1.
</event>
<event>
 9 112   1.0000000E+00   7.4550000E+01   7.8125000E-03   1.3429423E-01
       -1   -1    0    0    0  501  0.00000000000E+00  0.00000000000E+00  2.69836939872E+02  2.69836939872E+02  0.00000000000E+00  0.00000000000E+00  1.
        2   -1    0    0  501    0  0.00000000000E+00  0.00000000000E+00 -1.79332928226E+02  1.79332928226E+02  0.00000000000E+00  0.00000000000E+00  1.
       25    1    1    2    0    0  8.96941826655E+01  2.64146168350E+01 -6.81114402991E+00  1.56250344222E+02  1.25000000000E+02  0.00000000000E+00  1.
        6    2    1    2  502    0 -9.22434630667E+01 -5.24274984322E+01  1.31657877164E+01  2.04804343755E+02  1.74682518256E+02  0.00000000000E+00  1.
       -5    1    1    2    0  502  2.54928040121E+00  2.60128815972E+01  8.41493679603E+01  8.81151801205E+01  1.65181236989E-06  0.00000000000E+00  1.
        5    1    4    4  502    0 -3.13193159877E+01  2.33603495243E+01 -5.02276197785E+01  6.38120817122E+01  4.75000000000E+00  0.00000000000E+00  1.
       24    2    4    4    0    0 -6.09241470790E+01 -7.57878479565E+01  6.33934074948E+01  1.40992262043E+02  8.00283965041E+01  0.00000000000E+00  1.
      -15    1    7    7    0    0 -4.86100552411E+01 -6.71450172312E+01  8.23043435483E+01  1.16827020824E+02  1.77680000000E+00  0.00000000000E+00  1.
       16    1    7    7    0    0 -1.23140918379E+01 -8.64283072535E+00 -1.89109360535E+01  2.41652412187E+01  1.58148993986E-06  0.00000000000E+00  1.
</event>
<event>
 9 112   1.0000000E+00   7.4550000E+01   7.8125000E-03   1.3429423E-01
       -1   -1    0    0    0  501  0.00000000000E+00  0.00000000000E+00  6.64756570741E+01  6.64756570741E+01  0.00000000000E+00  0.00000000000E+00  1.
        2   -1    0    0  501    0  0.00000000000E+00  0.00000000000E+00 -8.70928183779E+02  8.70928183779E+02  0.00000000000E+00  0.00000000000E+00  1.
       25    1    1    2    0    0  4.49870340509E+01 -4.87786424663E+00 -1.42762316528E+02  1.95073590762E+02  1.25000000000E+02  0.00000000000E+00  1.
        6    2    1    2  502    0 -2.80919571608E+01  4.38688582677E+01 -6.74589776089E+02  6.97921466742E+02  1.71199804184E+02  0.00000000000E+00  1.
       -5    1    1    2    0  502 -1.68950768902E+01 -3.89909940210E+01  1.28995659118E+01  4.44087833495E+01  4.13640775034E-06  0.00000000000E+00  1.
        5    1    4    4  502    0  4.58469255215E+00 -4.91656359973E+01 -1.44621299029E+02  1.52892647964E+02  4.75000000001E+00  0.00000000000E+00  1.
       24    2    4    4    0    0 -3.26766497129E+01  9.30344942650E+01 -5.29968477060E+02  5.45028818777E+02  8.04154590914E+01  0.00000000000E+00  1.
       -1    1    7    7    0  703 -4.16363231172E+01  7.38802448706E+01 -2.44719722553E+02  2.58997329313E+02  2.69739830470E-06  0.00000000000E+00  1.
        2    1    7    7  703    0  8.95967340422E+00  1.91542493944E+01 -2.85248754507E+02  2.86031489464E+02  3.81469726562E-06  0.00000000000E+00  1.
</event>
<event>
 9 112   1.0000000E+00   7.4550000E+01   7.8125000E-03   1.3429423E-01
       -1   -1    0    0    0  501  0.00000000000E+00  0.00000000000E+00  6.27366345147E+01  6.27366345147E+01  0.00000000000E+00  0.00000000000E+00  1.
        2   -1    0    0  501    0  0.00000000000E+00  0.00000000000E+00 -9.38032326078E+02  9.38032326078E+02  0.00000000000E+00  0.00000000000E+00  1.
       25    1    1    2    0    0 -3.67317311542E+01  1.32062910051E+02 -2.38158876759E+02  3.01884883464E+02  1.25000000000E+02  0.00000000000E+00  1.
        6    2    1    2  502    0  7.11538388715E+01 -6.50382480671E+01 -5.43647586473E+02  5.78811504792E+02  1.73715909761E+02  0.00000000000E+00  1.
       -5    1    1    2    0  502 -3.44221077173E+01 -6.70246619835E+01 -9.34892283315E+01  1.20072572337E+02  3.01578298585E-06  0.00000000000E+00  1.
        5    1    4    4  502    0  3.24676512443E+01 -2.17351481656E+01 -4.14327020254E+02  4.16192271980E+02  4.75000000000E+00  0.00000000000E+00  1.
       24    2    4    4    0    0  3.86861876272E+01 -4.33030999015E+01 -1.29320566219E+02  1.62619232812E+02  7.96832884553E+01  0.00000000000E+00  1.
      -11    1    7    7    0    0  3.90609975452E+01 -6.24417425699E+00 -1.17091721782E+02  1.23592971286E+02  5.10996817865E-04  0.00000000000E+00  1.
       12    1    7    7    0    0 -3.74809917966E-01 -3.70589256445E+01 -1.22288444372E+01  3.90262615257E+01  5.33120149970E-07  0.00000000000E+00  1.
</event>
<event>
 9 112   1.0000000E+00   7.4550000E+01   7.8125000E-03   1.3429423E-01
        2   -1    0    0  501    0  0.00000000000E+00  0.00000000000E+00  1.63052638770E+02  1.63052638770E+02  0.00000000000E+00  0.00000000000E+00  1.
       -1   -1    0    0    0  501  0.00000000000E+00  0.00000000000E+00 -5.94409825788E+02  5.94409825788E+02  0.00000000000E+00  0.00000000000E+00  1.
       25    1    1    2    0    0  1.15272276855E+02  1.47684062627E+02 -7.86623471402E+01  2.38560359286E+02  1.25000000000E+02  0.00000000000E+00  1.
        6    2    1    2  502    0 -1.92317596985E+02 -6.89687880730E+01 -2.71941325152E+02  3.82325365150E+02  1.74579061382E+02  0.00000000000E+00  1.
       -5    1    1    2    0  502  7.70453201303E+01 -7.87152745539E+01 -8.07535147254E+01  1.36576740123E+02  3.81469726562E-06  0.00000000000E+00  1.
        5    1    4    4  502    0  2.56587913710E+01 -1.06594394545E+01 -2.11129873588E+01  3.52181481529E+01  4.75000000000E+00  0.00000000000E+00  1.
       24    2    4    4    0    0 -2.17976388356E+02 -5.83093486185E+01 -2.50828337794E+02  3.47107216997E+02  8.15774419427E+01  0.00000000000E+00  1.
      -13    1    7    7    0    0 -8.78250510948E+01 -4.37383239382E+01 -1.60148890211E+02  1.87813627782E+02  1.05659999987E-01  0.00000000000E+00  1.
       14    1    7    7    0    0 -1.30151337261E+02 -1.45710246803E+01 -9.06794475828E+01  1.59293589215E+02  3.56832255056E-06  0.00000000000E+00  1.
</event>
<event>
 9 112   1.0000000E+00   7.4550000E+01   7.8125000E-03   1.3429423E-01
       -1   -1    0    0    0  501  0.00000000000E+00  0.00000000000E+00  1.65997900311E+02  1.65997900311E+02  0.00000000000E+00  0.00000000000E+00  1.
        2   -1    0    0  501    0  0.00000000000E+00  0.00000000000E+00 -7.29421969311E+02  7.29421969311E+02  0.00000000000E+00  0.00000000000E+00  1.
       25    1    1    2    0    0 -1.46847899053E+02 -8.26233151606E+01 -1.12684680478E+02  2.38146498775E+02  1.25000000000E+02  0.00000000000E+00  1.
        6    2    1    2  502    0  1.66075481047E+02 -7.51083453126E+01 -4.28132632156E+02  4.96774018641E+02  1.73967082917E+02  0.00000000000E+00  1.
       -5    1    1    2    0  502 -1.92275819932E+01  1.57731660473E+02 -2.26067563657E+01  1.60499352205E+02  4.99542399401E-06  0.00000000000E+00  1.
        5    1    4    4  502    0 -2.34690531423E+00  1.62750836671E+00 -1.65930282210E+02  1.66022823137E+02  4.75000000000E+00  0.00000000000E+00  1.
       24    2    4    4    0    0  1.68422386361E+02 -7.67358536794E+01 -2.62202349947E+02  3.30751195504E+02  7.99486681719E+01  0.00000000000E+00  1.
       -3    1    7    7    0  703  5.10536142795E+01 -5.53463896073E+01 -1.45668455097E+02  1.63978636365E+02  2.69739830470E-06  0.00000000000E+00  1.
        4    1    7    7  703    0  1.17368772081E+02 -2.13894640720E+01 -1.16533894849E+02  1.66772559140E+02  2.33601545599E-06  0.00000000000E+00  1.
</event>
<event>
 9 112   1.0000000E+00   7.4550000E+01   7.8125000E-03   1.3429423E-01
       -1   -1    0    0    0  501  0.00000000000E+00  0.00000000000E+00  2.20905238325E+01  2.20905238325E+01  0.00000000000E+00  0.00000000000E+00  1.
        2   -1    0    0  501    0  0.00000000000E+00  0.00000000000E+00 -2.33357453947E+03  2.33357453947E+03  0.00000000000E+00  0.00000000000E+00  1.
       25    1    1    2    0    0 -2.47094248629E+01 -5.34832222171E+01 -3.89169296216E+02  4.12975485777E+02  1.25000000000E+02  0.00000000000E+00  1.
        6    2    1    2  502    0 -6.60958551271E+00  1.00669936438E+02 -1.07190555982E+03  1.09039666711E+03  1.72641940873E+02  0.00000000000E+00  1.
       -5    1    1    2    0  502  3.13190103756E+01 -4.71867142207E+01 -8.50409159600E+02  8.52292910414E+02  1.86881236479E-05  0.00000000000E+00  1.
        5    1    4    4  502    0 -3.38467677002E+01  7.63634086224E+01 -2.48402459441E+02  2.62113178258E+02  4.75000000002E+00  0.00000000000E+00  1.
       24    2    4    4    0    0  2.72371821874E+01  2.43065278154E+01 -8.23503100380E+02  8.28283488853E+02  8.10154934748E+01  0.00000000000E+00  1.
       -3    1    7    7    0  703 -6.85500989649E+00 -2.23072852248E+01 -1.10063898539E+02  1.12510745693E+02  6.87704329579E-06  0.00000000000E+00  1.
        4    1    7    7  703    0  3.40921920839E+01  4.66138130402E+01 -7.13439201841E+02  7.15772743160E+02  0.00000000000E+00  0.00000000000E+00  1.
</event>
<event>
 9 112   1.0000000E+00   7.4550000E+01   7.8125000E-03   1.3429423E-01
       -1   -1    0    0    0  501  0.00000000000E+00  0.00000000000E+00  2.91515815294E+02  2.91515815294E+02  0.00000000000E+00  0.00000000000E+00  1.
        2   -1    0    0  501    0  0.00000000000E+00  0.00000000000E+00 -2.28288485062E+02  2.28288485062E+02  0.00000000000E+00  0.00000000000E+00  1.
       25    1    1    2    0    0 -4.37573231960E+01 -1.90298162084E+01 -1.01627103118E+02  1.68017574457E+02  1.25000000000E+02  0.00000000000E+00  1.
        6    2    1    2  502    0  2.62358545392E+01  1.21986689556E+02  9.84100122559E+01  2.28004737193E+02  1.63500939380E+02  0.00000000000E+00  1.
       -5    1    1    2    0  502  1.75214686568E+01 -1.02956873347E+02  6.64444210943E+01  1.23781988706E+02  2.52318507296E-06  0.00000000000E+00  1.
        5    1    4    4  502    0  1.13475241274E+01 -2.97154592183E+01  2.35541057248E+01  3.98639337857E+01  4.75000000000E+00  0.00000000000E+00  1.
       24    2    4    4    0    0  1.48883304118E+01  1.51702148774E+02  7.48559065311E+01  1.88140803408E+02  8.09836455047E+01  0.00000000000E+00  1.
       -3    1    7    7    0  703 -8.75050130139E+00  8.01789393461E+01 -1.78977196333E+00  8.06748837704E+01  1.68797996742E-06  0.00000000000E+00  1.
        4    1    7    7  703    0  2.36388317132E+01  7.15232094280E+01  7.66456784944E+01  1.07465919637E+02  2.13248059988E-06  0.00000000000E+00  1.
</event>
<event>
 9 112   1.0000000E+00   7.4550000E+01   7.8125000E-03   1.3429423E-01
       -1   -1    0    0    0  501  0.00000000000E+00  0.00000000000E+00  1.65816803235E+02  1.65816803235E+02  0.00000000000E+00  0.00000000000E+00  1.
        2   -1    0    0  501    0  0.00000000000E+00  0.00000000000E+00 -1.33321095266E+03  1.33321095266E+03  0.00000000000E+00  0.00000000000E+00  1.
       25    1    1    2    0    0 -5.18629658895E+00  1.20939847566E+02 -2.72583674238E+02  3.23388626675E+02  1.25000000000E+02  0.00000000000E+00  1.
        6    2    1    2  502    0 -1.93645740878E+02  2.19183010897E+02 -5.75136199815E+02  6.68283849060E+02  1.74016635269E+02  0.00000000000E+00  1.
       -5    1    1    2    0  502  1.98832037467E+02 -3.40122858463E+02 -3.19674275372E+02  5.07355280161E+02  1.00927402918E-05  0.00000000000E+00  1.
        5    1    4    4  502    0 -6.52216102400E+00  1.06220696573E+02 -1.82725118126E+02  2.11509825443E+02  4.75000000001E+00  0.00000000000E+00  1.
       24    2    4    4    0    0 -1.87123579854E+02  1.12962314324E+02 -3.92411081689E+02  4.56774023617E+02  8.29477728663E+01  0.00000000000E+00  1.
      -13    1    7    7    0    0 -3.96097895252E+00 -3.27674675251E+00  2.86232279684E+00  5.88476672191E+00  1.05660000281E-01  0.00000000000E+00  1.
       14    1    7    7    0    0 -1.83162600902E+02  1.16239061076E+02 -3.95273404486E+02  4.50889256895E+02  1.07895932188E-05  0.00000000000E+00  1.
</event>
<event>
 9 112   1.0000000E+00   7.4550000E+01   7.8125000E-03   1.3429423E-01
       -1   -1    0    0    0  501  0.00000000000E+00  0.00000000000E+00  1.17309790115E+03  1.17309790115E+03  0.00000000000E+00  0.00000000000E+00  1.
        2   -1    0    0  501    0  0.00000000000E+00  0.00000000000E+00 -1.20339517936E+02  1.20339517936E+02  0.00000000000E+00  0.00000000000E+00  1.
       25    1    1    2    0    0 -1.75107794694E+02  7.12086880234E+01  2.63473178916E+02  3.47529182977E+02  1.25000000000E+02  0.00000000000E+00  1.
        6    2    1    2  502    0 -9.45172950453E+01  7.05250079757E+01  2.44681024638E+02  3.21905157509E+02  1.72762353540E+02  0.00000000000E+00  1.
       -5    1    1    2    0  502  2.69625089739E+02 -1.41733695999E+02  5.44604179661E+02  6.24003078600E+02  7.62939453125E-06  0.00000000000E+00  1.
        5    1    4    4  502    0 -8.20802554110E+00  6.45111106652E+01  2.07951814108E+01  6.84401720662E+01  4.75000000000E+00  0.00000000000E+00  1.
       24    2    4    4    0    0 -8.63092695042E+01  6.01389731048E+00  2.23885843227E+02  2.53464985443E+02  8.14504210240E+01  0.00000000000E+00  1.
       -3    1    7    7    0  703 -2.49218727658E+01 -6.55645345516E-01  4.21981677406E+00  2.52851036498E+01  2.74181365967E-06  0.00000000000E+00  1.
        4    1    7    7  703    0 -6.13873967384E+01  6.66954265600E+00  2.19666026453E+02  2.28179881793E+02  2.69739830470E-06  0.00000000000E+00  1.
</event>
<event>
 9 112   1.0000000E+00   7.4550000E+01   7.8125000E-03   1.3429423E-01
       -1   -1    0    0    0  501  0.00000000000E+00  0.00000000000E+00  1.42004784859E+02  1.42004784859E+02  0.00000000000E+00  0.00000000000E+00  1.
        2   -1    0    0  501    0  0.00000000000E+00  0.00000000000E+00 -2.51497643835E+03  2.51497643835E+03  0.00000000000E+00  0.00000000000E+00  1.
       25    1    1    2    0    0 -3.01562634770E+02 -1.14485489874E+01 -1.02436985329E+03  1.07518821064E+03  1.25000000000E+02  0.00000000000E+00  1.
        6    2    1    2  502    0 -1.89821711427E+02  5.14307978032E+01 -1.94304830321E+02  3.26620255308E+02  1.73922439610E+02  0.00000000000E+00  1.
       -5    1    1    2    0  502  4.91384346196E+02 -3.99822488157E+01 -1.15429696988E+03  1.25517275727E+03  0.00000000000E+00  0.00000000000E+00  1.
        5    1    4    4  502    0 -3.61495006889E+01  1.78014332700E+01  2.40107736360E+01  4.71461257912E+01  4.75000000000E+00  0.00000000000E+00  1.
       24    2    4    4    0    0 -1.53672210738E+02  3.36293645331E+01 -2.18315603957E+02  2.79474129517E+02  7.54851218855E+01  0.00000000000E+00  1.
      -15    1    7    7    0    0 -5.42849339278E+01  6.39814381443E+00 -2.44171954240E+01  5.98927937771E+01  1.77680000000E+00  0.00000000000E+00  1.
       16    1    7    7    0    0 -9.93872768100E+01  2.72312207187E+01 -1.93898408533E+02  2.19581335740E+02  0.00000000000E+00  0.00000000000E+00  1.
</event>
<event>
 9 112   1.0000000E+00   7.4550000E+01   7.8125000E-03   1.3429423E-01
       -1   -1    0    0    0  501  0.00000000000E+00  0.00000000000E+00  1.51603842495E+02  1.51603842495E+02  0.00000000000E+00  0.00000000000E+00  1.
        2   -1    0    0  501    0  0.00000000000E+00  0.00000000000E+00 -4.09764633599E+02  4.09764633599E+02  0.00000000000E+00  0.00000000000E+00  1.
       25    1    1    2    0    0  3.56777377061E+01 -3.15310746414E+01 -1.46709562643E+02  1.98534141665E+02  1.25000000000E+02  0.00000000000E+00  1.
        6    2    1    2  502    0 -5.24079197064E+01  6.88149683437E+01 -1.91940175455E+02  2.72565523051E+02  1.73115116285E+02  0.00000000000E+00  1.
       -5    1    1    2    0  502  1.67301820003E+01 -3.72838937023E+01  8.04889469940E+01  9.02688113779E+01  2.69739830470E-06  0.00000000000E+00  1.
        5    1    4    4  502    0 -1.67567977896E+01  6.19083297551E+01 -1.68083261784E+02  1.79966599560E+02  4.75000000000E+00  0.00000000000E+00  1.
       24    2    4    4    0    0 -3.56511219168E+01  6.90663858863E+00 -2.38569136705E+01  9.25989234907E+01  8.17722700628E+01  0.00000000000E+00  1.
       -3    1    7    7    0  703  4.06102382536E+00 -2.70654770283E+01 -2.92542074252E+01  4.00604619714E+01  1.30587233902E-06  0.00000000000E+00  1.
        4    1    7    7  703    0 -3.97121457422E+01  3.39721156170E+01  5.39729375476E+00  5.25384615193E+01  1.46850168642E-06  0.00000000000E+00  1.
</event>
<event>
 9 112   1.0000000E+00   7.4550000E+01   7.8125000E-03   1.3429423E-01
        2   -1    0    0  501    0  0.00000000000E+00  0.00000000000E+00  4.32666903427E+02  4.32666903427E+02  0.00000000000E+00  0.00000000000E+00  1.
       -1   -1    0    0    0  501  0.00000000000E+00  0.00000000000E+00 -6.81069697426E+02  6.81069697426E+02  0.00000000000E+00  0.00000000000E+00  1.
       25    1    1    2    0    0  4.10325597711E+01 -6.64654930391E+01  2.02556113963E+02  2.50510103649E+02  1.25000000000E+02  0.00000000000E+00  1.
        6    2    1    2  502    0  1.96582745007E+02 -3.60446095520E+01 -5.30407472426E+02  5.92521069491E+02  1.72641656252E+02  0.00000000000E+00  1.
       -5    1    1    2    0  502 -2.37615304778E+02  1.02510102591E+02  7.94485644636E+01  2.70705427713E+02  2.33601545599E-06  0.00000000000E+00  1.
        5    1    4    4  502    0  8.03148304522E+00 -6.47684870350E+00 -2.12926477417E+02  2.13229223077E+02  4.75000000000E+00  0.00000000000E+00  1.
       24    2    4    4    0    0  1.88551261961E+02 -2.95677608485E+01 -3.17480995009E+02  3.79291846414E+02  8.15002557977E+01  0.00000000000E+00  1.
       -1    1    7    7    0  703  1.67104318419E+02 -4.56173083251E+01 -3.02541181864E+02  3.48620077988E+02  0.00000000000E+00  0.00000000000E+00  1.
        2    1    7    7  703    0  2.14469435425E+01  1.60495474766E+01 -1.49398131454E+01  3.06717684254E+01  5.04355330498E-06  0.00000000000E+00  1.
</event>
<event>
 9 112   1.0000000E+00   7.4550000E+01   7.8125000E-03   1.3429423E-01
        2   -1    0    0  501    0  0.00000000000E+00  0.00000000000E+00  6.63394392583E+02  6.63394392583E+02  0.00000000000E+00  0.00000000000E+00  1.
       -1   -1    0    0    0  501  0.00000000000E+00  0.00000000000E+00 -1.59662824581E+02  1.59662824581E+02  0.00000000000E+00  0.00000000000E+00  1.
       25    1    1    2    0    0 -2.52329284879E+02  7.68019075162E+01  2.92617681275E+02  4.13302199849E+02  1.25000000000E+02  0.00000000000E+00  1.
        6    2    1    2  502    0  1.88816017297E+02 -6.20218380588E+01  2.21138896782E+02  3.43778609116E+02  1.72577877006E+02  0.00000000000E+00  1.
       -5    1    1    2    0  502  6.35132675821E+01 -1.47800694575E+01 -1.00250100546E+01  6.59764081981E+01  1.58597644516E-06  0.00000000000E+00  1.
        5    1    4    4  502    0  3.02609310887E+01 -6.53826458221E+01  1.17299663540E+02  1.37740291461E+02  4.75000000000E+00  0.00000000000E+00  1.
       24    2    4    4    0    0  1.58555086208E+02  3.36080776332E+00  1.03839233242E+02  2.06038317656E+02  8.07353181132E+01  0.00000000000E+00  1.
       -1    1    7    7    0  703  1.18485696343E+02  3.00538009069E+01  9.96514295553E+01  1.57710172783E+02  1.90734863281E-06  0.00000000000E+00  1.
        2    1    7    7  703    0  4.00693898651E+01 -2.66929931435E+01  4.18780368680E+00  4.83281448727E+01  3.90853793877E-07  0.00000000000E+00  1.
</event>
<event>
 9 112   1.0000000E+00   7.4550000E+01   7.8125000E-03   1.3429423E-01
       -1   -1    0    0    0  501  0.00000000000E+00  0.00000000000E+00  8.28540054408E+02  8.28540054408E+02  0.00000000000E+00  0.00000000000E+00  1.
        2   -1    0    0  501    0  0.00000000000E+00  0.00000000000E+00 -1.58883942428E+02  1.58883942428E+02  0.00000000000E+00  0.00000000000E+00  1.
       25    1    1    2    0    0  6.93793154488E+01 -9.48386255164E+01  3.95781402105E+01  1.76066133838E+02  1.25000000000E+02  0.00000000000E+00  1.
        6    2    1    2  502    0 -2.05596811530E+01 -1.02946065082E+02  7.09230897423E+01  2.16247518086E+02  1.75249284206E+02  0.00000000000E+00  1.
       -5    1    1    2    0  502 -4.88196342958E+01  1.97784690598E+02  5.59154882027E+02  5.95110344913E+02  1.07895932188E-05  0.00000000000E+00  1.
        5    1    4    4  502    0  4.22090853792E+01 -5.94992782063E+01  7.43540945583E+01  1.04273030421E+02  4.75000000000E+00  0.00000000000E+00  1.
       24    2    4    4    0    0 -6.27687665322E+01 -4.34467868754E+01 -3.43100481609E+00  1.11974487665E+02  8.18472525618E+01  0.00000000000E+00  1.
       -1    1    7    7    0  703 -1.40569912950E+01 -1.71605706824E+01 -3.99259331851E+01  4.56745479574E+01  1.06624029994E-06  0.00000000000E+00  1.
        2    1    7    7  703    0 -4.87117752373E+01 -2.62862161929E+01  3.64949283690E+01  6.62999397071E+01  1.26159253648E-06  0.00000000000E+00  1.
</event>
<event>
 9 112   1.0000000E+00   7.4550000E+01   7.8125000E-03   1.3429423E-01
        2   -1    0    0  501    0  0.00000000000E+00  0.00000000000E+00  9.60306758313E+02  9.60306758313E+02  0.00000000000E+00  0.00000000000E+00  1.
       -1   -1    0    0    0  501  0.00000000000E+00  0.00000000000E+00 -3.83909627201E+01  3.83909627201E+01  0.00000000000E+00  0.00000000000E+00  1.
       25    1    1    2    0    0 -5.74254816985E+01 -2.18731825816E+01  4.84348002241E+02  5.03978282607E+02  1.25000000000E+02  0.00000000000E+00  1.
        6    2    1    2  502    0  2.49488708197E+01  2.27886498605E+01  4.27015317503E+02  4.60559182556E+02  1.69206709492E+02  0.00000000000E+00  1.
       -5    1    1    2    0  502  3.24766108788E+01 -9.15467278890E-01  1.05524758481E+01  3.41602558690E+01  1.65181236989E-06  0.00000000000E+00  1.
        5    1    4    4  502    0 -1.96972590942E+00  6.87946369916E+01  2.48402796650E+02  2.57804371147E+02  4.75000000000E+00  0.00000000000E+00  1.
       24    2    4    4    0    0  2.69185967291E+01 -4.60059871311E+01  1.78612520853E+02  2.02754811409E+02  7.97867109386E+01  0.00000000000E+00  1.
       -1    1    7    7    0  703 -1.31869614795E+01  2.81019219462E-01 -7.62881698599E-01  1.32119988401E+01  2.60098904276E-06  0.00000000000E+00  1.
        2    1    7    7  703    0  4.01055582086E+01 -4.62870063506E+01  1.79375402552E+02  1.89542812569E+02  3.30362473978E-06  0.00000000000E+00  1.
</event>
<event>
 9 112   1.0000000E+00   7.4550000E+01   7.8125000E-03   1.3429423E-01
        2   -1    0    0  501    0  0.00000000000E+00  0.00000000000E+00  1.58891296243E+03  1.58891296243E+03  0.00000000000E+00  0.00000000000E+00  1.
       -1   -1    0    0    0  501  0.00000000000E+00  0.00000000000E+00 -6.07269427116E+01  6.07269427116E+01  0.00000000000E+00  0.00000000000E+00  1.
       25    1    1    2    0    0  7.48727541364E+01  2.19268717719E+02  7.65786574577E+02  8.09776992563E+02  1.25000000000E+02  0.00000000000E+00  1.
        6    2    1    2  502    0 -1.17418621446E+01 -1.87754295160E+02  7.01641868783E+02  7.46749264611E+02  1.73042207251E+02  0.00000000000E+00  1.
       -5    1    1    2    0  502 -6.31308919918E+01 -3.15144225589E+01  6.07575763594E+01  9.31136479683E+01  2.43140197448E-06  0.00000000000E+00  1.
        5    1    4    4  502    0  5.76255494607E+01 -9.20519060771E+01  2.49758503939E+02  2.72389666018E+02  4.75000000000E+00  0.00000000000E+00  1.
       24    2    4    4    0    0 -6.93674116053E+01 -9.57023890828E+01  4.51883364843E+02  4.74359598593E+02  8.27506391914E+01  0.00000000000E+00  1.
       -3    1    7    7    0  703 -3.28126529646E+01 -8.89082567835E+01  3.96393226939E+02  4.07564643562E+02  7.62939453125E-06  0.00000000000E+00  1.
        4    1    7    7  703    0 -3.65547586407E+01 -6.79413229931E+00  5.54901379042E+01  6.67949550311E+01  4.67203091199E-06  0.00000000000E+00  1.
</event>
<event>
 9 112   1.0000000E+00   7.4550000E+01   7.8125000E-03   1.3429423E-01
        2   -1    0    0  501    0  0.00000000000E+00  0.00000000000E+00  4.07668043294E+02  4.07668043294E+02  0.00000000000E+00  0.00000000000E+00  1.
       -1   -1    0    0    0  501  0.00000000000E+00  0.00000000000E+00 -7.67241148145E+02  7.67241148145E+02  0.00000000000E+00  0.00000000000E+00  1.
       25    1    1    2    0    0 -1.03451438316E+02 -1.17759904945E+02 -2.74515821111E+02  3.39931656870E+02  1.25000000000E+02  0.00000000000E+00  1.
        6    2    1    2  502    0 -2.94639828374E+02 -9.94673741617E+01  5.33395646942E+01  3.60827732228E+02  1.75057579659E+02  0.00000000000E+00  1.
       -5    1    1    2    0  502  3.98091266691E+02  2.17227279106E+02 -1.38396848434E+02  4.74149802341E+02  8.94625808682E-06  0.00000000000E+00  1.
        5    1    4    4  502    0 -2.49947971995E+02 -7.38642437302E+01  5.38145474484E+01  2.66173783877E+02  4.75000000000E+00  0.00000000000E+00  1.
       24    2    4    4    0    0 -4.46918563790E+01 -2.56031304315E+01 -4.74982754204E-01  9.46539483510E+01  7.94119765232E+01  0.00000000000E+00  1.
      -15    1    7    7    0    0 -5.25424605777E+01 -4.10360526166E+01 -1.89513257719E+01  6.93323701071E+01  1.77680000000E+00  0.00000000000E+00  1.
       16    1    7    7    0    0  7.85060419869E+00  1.54329221851E+01  1.84763430177E+01  2.53215782439E+01  4.12953092472E-07  0.00000000000E+00  1.
</event>
<event>
 9 112   1.0000000E+00   7.4550000E+01   7.8125000E-03   1.3429423E-01
       -1   -1    0    0    0  501  0.00000000000E+00  0.00000000000E+00  8.06579312453E+01  8.06579312453E+01  0.00000000000E+00  0.00000000000E+00  1.
        2   -1    0    0  501    0  0.00000000000E+00  0.00000000000E+00 -1.23953009537E+03  1.23953009537E+03  0.00000000000E+00  0.00000000000E+00  1.
       25    1    1    2    0    0 -6.90937485702E+01 -3.32657178327E+00 -6.79591198767E+02  6.94445253143E+02  1.25000000000E+02  0.00000000000E+00  1.
        6    2    1    2  502    0  6.97887479487E+01 -1.45397338549E+02 -3.77640751638E+02  4.45603889349E+02  1.73030152018E+02  0.00000000000E+00  1.
       -5    1    1    2    0  502 -6.94999378556E-01  1.48723910333E+02 -1.01640213723E+02  1.80138884127E+02  4.26496119976E-06  0.00000000000E+00  1.
        5    1    4    4  502    0  4.44423709081E+01 -5.85108941636E+01 -2.81851770054E+02  2.91310198672E+02  4.74999999999E+00  0.00000000000E+00  1.
       24    2    4    4    0    0  2.53463770407E+01 -8.68864443859E+01 -9.57889815846E+01  1.54293690677E+02  8.02453795721E+01  0.00000000000E+00  1.
       -1    1    7    7    0  703 -2.16011950017E+01 -5.25776365400E+01 -2.34692819163E+01  6.14965583046E+01  9.53674316406E-07  0.00000000000E+00  1.
        2    1    7    7  703    0  4.69475720424E+01 -3.43088078459E+01 -7.23196996682E+01  9.27971323726E+01  1.90734863281E-06  0.00000000000E+00  1.
</event>
<event>
 9 112   1.0000000E+00   7.4550000E+01   7.8125000E-03   1.3429423E-01
        2   -1    0    0  501    0  0.00000000000E+00  0.00000000000E+00  3.92279546793E+02  3.92279546793E+02  0.00000000000E+00  0.00000000000E+00  1.
       -1   -1    0    0    0  501  0.00000000000E+00  0.00000000000E+00 -2.57819772525E+02  2.57819772525E+02  0.00000000000E+00  0.00000000000E+00  1.
       25    1    1    2    0    0 -4.27317078048E+01 -4.43735450225E+01  2.54195380383E+02  2.89888429845E+02  1.25000000000E+02  0.00000000000E+00  1.
        6    2    1    2  502    0 -9.21100772575E+01  1.69318389917E+01 -3.59039686068E+01  1.99080204388E+02  1.71967669384E+02  0.00000000000E+00  1.
       -5    1    1    2    0  502  1.34841785062E+02  2.74417060307E+01 -8.38316375086E+01  1.61130685085E+02  2.33601545599E-06  0.00000000000E+00  1.
        5    1    4    4  502    0 -1.04350770795E+02  1.19086573465E+01  8.14661946117E+00  1.05450601677E+02  4.75000000000E+00  0.00000000000E+00  1.
       24    2    4    4    0    0  1.22406935375E+01  5.02318164527E+00 -4.40505880679E+01  9.36296027113E+01  8.15535484367E+01  0.00000000000E+00  1.
       -1    1    7    7    0  703 -1.30151796156E+01  3.77847891694E+01 -2.98961027361E+01  4.99085378649E+01  1.84678237257E-06  0.00000000000E+00  1.
        4    1    7    7  703    0  2.52558731531E+01 -3.27616075242E+01 -1.41544853319E+01  4.37210648464E+01  2.16554428632E-06  0.00000000000E+00  1.
</event>
<event>
 9 112   1.0000000E+00   7.4550000E+01   7.8125000E-03   1.3429423E-01
        2   -1    0    0  501    0  0.00000000000E+00  0.00000000000E+00  8.20421032331E+02  8.20421032331E+02  0.00000000000E+00  0.00000000000E+00  1.
       -1   -1    0    0    0  501  0.00000000000E+00  0.00000000000E+00 -6.71271818331E+01  6.71271818331E+01  0.00000000000E+00  0.00000000000E+00  1.
       25    1    1    2    0    0 -2.45232516550E+01  2.03404463454E+01  3.44736907512E+02  3.68081049540E+02  1.25000000000E+02  0.00000000000E+00  1.
        6    2    1    2  502    0 -7.84784551884E+00 -3.21819257072E+01  4.38815561357E+02  4.73601136330E+02  1.75047634725E+02  0.00000000000E+00  1.
       -5    1    1    2    0  502  3.23710971738E+01  1.18414793619E+01 -3.02586183713E+01  4.58660282939E+01  5.42631467664E-06  0.00000000000E+00  1.
        5    1    4    4  502    0  2.71306258345E+01  2.36135632470E+01  1.88565638234E+01  4.08876965189E+01  4.75000000000E+00  0.00000000000E+00  1.
       24    2    4    4    0    0 -3.49784713534E+01 -5.57954889542E+01  4.19958997533E+02  4.32713439811E+02  8.08624222867E+01  0.00000000000E+00  1.
       -3    1    7    7    0  703  1.11055313085E+01 -4.49975114455E+01  1.13142358600E+02  1.22267338940E+02  0.00000000000E+00  0.00000000000E+00  1.
        4    1    7    7  703    0 -4.60840026619E+01 -1.07979775087E+01  3.06816638934E+02  3.10446100871E+02  0.00000000000E+00  0.00000000000E+00  1.
</event>
<event>
 9 112   1.0000000E+00   7.4550000E+01   7.8125000E-03   1.3429423E-01
       -1   -1    0    0    0  501  0.00000000000E+00  0.00000000000E+00  6.17338648458E+01  6.17338648458E+01  0.00000000000E+00  0.00000000000E+00  1.
        2   -1    0    0  501    0  0.00000000000E+00  0.00000000000E+00 -2.47843209881E+03  2.47843209881E+03  0.00000000000E+00  0.00000000000E+00  1.
       25    1    1    2    0    0 -1.70286171933E+02 -3.88372031030E+01 -1.30632897699E+03  1.32386785776E+03  1.25000000000E+02  0.00000000000E+00  1.
        6    2    1    2  502    0  1.92541285114E+02 -8.78431096356E+01 -3.44308840151E+02  4.39515154276E+02  1.72732264062E+02  0.00000000000E+00  1.
       -5    1    1    2    0  502 -2.22551131812E+01  1.26680312739E+02 -7.66060416824E+02  7.76782951617E+02  1.07895932188E-05  0.00000000000E+00  1.
        5    1    4    4  502    0 -7.85618433028E+00 -4.05207234334E+01 -1.75769322518E+01  4.51127443987E+01  4.75000000000E+00  0.00000000000E+00  1.
       24    2    4    4    0    0  2.00397469444E+02 -4.73223862023E+01 -3.26731907899E+02  3.94402409877E+02  8.00060452831E+01  0.00000000000E+00  1.
       -3    1    7    7    0  703  1.98014698041E+02 -3.46173811372E+01 -2.72322507333E+02  3.38478554295E+02  9.34406182397E-06  0.00000000000E+00  1.
        4    1    7    7  703    0  2.38277140327E+00 -1.27050050650E+01 -5.44094005661E+01  5.59238555826E+01  3.43852164790E-06  0.00000000000E+00  1.
</event>
<event>
 9 112   1.0000000E+00   7.4550000E+01   7.8125000E-03   1.3429423E-01
       -1   -1    0    0    0  501  0.00000000000E+00  0.00000000000E+00  6.91700862436E+02  6.91700862436E+02  0.00000000000E+00  0.00000000000E+00  1.
        2   -1    0    0  501    0  0.00000000000E+00  0.00000000000E+00 -4.23803830444E+02  4.23803830444E+02  0.00000000000E+00  0.00000000000E+00  1.
       25    1    1    2    0    0  6.97156170696E+01  1.66549268018E+02 -8.84433387273E+01  2.36740681138E+02  1.25000000000E+02  0.00000000000E+00  1.
        6    2    1    2  502    0  1.11086163257E+00  2.82098745992E+02  5.25228439601E+01  3.32315002112E+02  1.67611679148E+02  0.00000000000E+00  1.
       -5    1    1    2    0  502 -7.08264787022E+01 -4.48648014010E+02  3.03817526759E+02  5.46449009631E+02  1.32144989591E-05  0.00000000000E+00  1.
        5    1    4    4  502    0 -5.46643945300E+01  1.39312068653E+02 -5.06910763826E+00  1.49814241158E+02  4.75000000000E+00  0.00000000000E+00  1.
       24    2    4    4    0    0  5.57752561625E+01  1.42786677340E+02  5.75919515984E+01  1.82500760953E+02  8.05653798722E+01  0.00000000000E+00  1.
       -3    1    7    7    0  703 -2.50201093833E+00 -1.46723570438E+00  2.29205480334E+01  2.31033409164E+01  8.25906184945E-07  0.00000000000E+00  1.
        4    1    7    7  703    0  5.82772671009E+01  1.44253913044E+02  3.46714035649E+01  1.59397420037E+02  1.43051147461E-06  0.00000000000E+00  1.
</event>
<event>
 9 112   1.0000000E+00   7.4550000E+01   7.8125000E-03   1.3429423E-01
       -1   -1    0    0    0  501  0.00000000000E+00  0.00000000000E+00  1.37172042534E+02  1.37172042534E+02  0.00000000000E+00  0.00000000000E+00  1.
        2   -1    0    0  501    0  0.00000000000E+00  0.00000000000E+00 -9.05077112406E+02  9.05077112406E+02  0.00000000000E+00  0.00000000000E+00  1.
       25    1    1    2    0    0 -1.24671698030E+02  3.91268999133E+00 -4.78050771650E+02  5.09623274300E+02  1.25000000000E+02  0.00000000000E+00  1.
        6    2    1    2  502    0 -1.00804303777E+02 -2.26640467652E+01 -2.14446527592E+02  2.94136105926E+02  1.72781853610E+02  0.00000000000E+00  1.
       -5    1    1    2    0  502  2.25476001807E+02  1.87513567739E+01 -7.54077706292E+01  2.38489774714E+02  2.52318507296E-06  0.00000000000E+00  1.
        5    1    4    4  502    0 -1.11053127360E+02  6.19511226656E+00 -1.50646448947E+02  1.87318156068E+02  4.75000000000E+00  0.00000000000E+00  1.
       24    2    4    4    0    0  1.02488235828E+01 -2.88591590317E+01 -6.38000786450E+01  1.06817949857E+02  8.00108425889E+01  0.00000000000E+00  1.
      -15    1    7    7    0    0  3.20529490939E+01  1.30468981566E+01 -4.29400548654E+01  5.51780611041E+01  1.77680000000E+00  0.00000000000E+00  1.
       16    1    7    7    0    0 -2.18041255111E+01 -4.19060571883E+01 -2.08600237796E+01  5.16398887533E+01  1.16800772800E-06  0.00000000000E+00  1.
</event>
<event>
 9 112   1.0000000E+00   7.4550000E+01   7.8125000E-03   1.3429423E-01
       -1   -1    0    0    0  501  0.00000000000E+00  0.00000000000E+00  2.09463451858E+02  2.09463451858E+02  0.00000000000E+00  0.00000000000E+00  1.
        2   -1    0    0  501    0  0.00000000000E+00  0.00000000000E+00 -4.20359921141E+02  4.20359921141E+02  0.00000000000E+00  0.00000000000E+00  1.
       25    1    1    2    0    0 -1.04353911096E+01 -1.03184702889E+02 -1.35608105932E+02  2.11590497642E+02  1.25000000000E+02  0.00000000000E+00  1.
        6    2    1    2  502    0  7.70150608959E+01  9.69573361812E+01 -1.89215663842E+02  2.86130406332E+02  1.75316848421E+02  0.00000000000E+00  1.
       -5    1    1    2    0  502 -6.65796697863E+01  6.22736670821E+00  1.13927300492E+02  1.32102469024E+02  4.86280394897E-06  0.00000000000E+00  1.
        5    1    4    4  502    0 -7.38132155847E+00 -3.42246690697E+01 -5.88434300717E+01  6.86361686247E+01  4.75000000000E+00  0.00000000000E+00  1.
       24    2    4    4    0    0  8.43963824544E+01  1.31182005251E+02 -1.30372233770E+02  2.17494237707E+02  7.73004283598E+01  0.00000000000E+00  1.
      -13    1    7    7    0    0 -8.95017524918E+00  4.46488175745E+01 -2.32408411901E+01  5.11250468073E+01  1.05660000029E-01  0.00000000000E+00  1.
       14    1    7    7    0    0  9.33465577036E+01  8.65331876763E+01 -1.07131392580E+02  1.66369190900E+02  1.34869915235E-06  0.00000000000E+00  1.
</event>
<event>
 9 112   1.0000000E+00   7.4550000E+01   7.8125000E-03   1.3429423E-01
        2   -1    0    0  501    0  0.00000000000E+00  0.00000000000E+00  5.84803322311E+02  5.84803322311E+02  0.00000000000E+00  0.00000000000E+00  1.
       -1   -1    0    0    0  501  0.00000000000E+00  0.00000000000E+00 -5.50036867215E+02  5.50036867215E+02  0.00000000000E+00  0.00000000000E+00  1.
       25    1    1    2    0    0  1.22273415303E+02 -2.90937084442E+01  1.91697886573E+01  1.78296698674E+02  1.25000000000E+02  0.00000000000E+00  1.
        6    2    1    2  502    0  3.25733991755E+02 -2.10609490227E+02  1.12463269423E+02  4.39289782304E+02  1.72825157628E+02  0.00000000000E+00  1.
       -5    1    1    2    0  502 -4.48007407058E+02  2.39703198671E+02 -9.68666029845E+01  5.17253708547E+02  1.47742589806E-05  0.00000000000E+00  1.
        5    1    4    4  502    0  5.26196656598E+01  2.07026161132E+01  2.64303632169E+01  6.25983556323E+01  4.75000000000E+00  0.00000000000E+00  1.
       24    2    4    4    0    0  2.73114326095E+02 -2.31312106340E+02  8.60329062062E+01  3.76691426672E+02  7.99877760658E+01  0.00000000000E+00  1.
      -15    1    7    7    0    0  1.10522709708E+02 -1.41022560735E+02  5.96578416233E+01  1.88851388882E+02  1.77680000000E+00  0.00000000000E+00  1.
       16    1    7    7    0    0  1.62591616387E+02 -9.02895456052E+01  2.63750645828E+01  1.87840037790E+02  5.84003863998E-07  0.00000000000E+00  1.
</event>
<event>
 9 112   1.0000000E+00   7.4550000E+01   7.8125000E-03   1.3429423E-01
       -1   -1    0    0    0  501  0.00000000000E+00  0.00000000000E+00  2.60045184734E+02  2.60045184734E+02  0.00000000000E+00  0.00000000000E+00  1.
        2   -1    0    0  501    0  0.00000000000E+00  0.00000000000E+00 -3.13470700096E+02  3.13470700096E+02  0.00000000000E+00  0.00000000000E+00  1.
       25    1    1    2    0    0  5.86304312978E+01  2.21329749088E+01 -2.05468315878E+02  2.48534957063E+02  1.25000000000E+02  0.00000000000E+00  1.
        6    2    1    2  502    0  2.30587613197E+01 -2.49602794071E+01  3.28865984670E+01  1.80484151581E+02  1.74178869532E+02  0.00000000000E+00  1.
       -5    1    1    2    0  502 -8.16891926176E+01  2.82730449829E+00  1.19156202049E+02  1.44496776186E+02  3.81469726562E-06  0.00000000000E+00  1.
        5    1    4    4  502    0 -5.66512087952E+01 -2.49541248923E+00  3.16520728300E+01  6.51153035460E+01  4.75000000000E+00  0.00000000000E+00  1.
       24    2    4    4    0    0  7.97099701149E+01 -2.24648669179E+01  1.23452563696E+00  1.15368848035E+02  8.03124987911E+01  0.00000000000E+00  1.
      -15    1    7    7    0    0  5.20766823288E+01 -2.45564265649E+01  3.82372180242E+01  6.91392854207E+01  1.77680000000E+00  0.00000000000E+00  1.
       16    1    7    7    0    0  2.76332877861E+01  2.09155964699E+00 -3.70026923873E+01  4.62295626146E+01  1.16800772800E-06  0.00000000000E+00  1.
</event>
<event>
 9 112   1.0000000E+00   7.4550000E+01   7.8125000E-03   1.3429423E-01
        2   -1    0    0  501    0  0.00000000000E+00  0.00000000000E+00  7.48989525647E+02  7.48989525647E+02  0.00000000000E+00  0.00000000000E+00  1.
       -1   -1    0    0    0  501  0.00000000000E+00  0.00000000000E+00 -3.25242760342E+02  3.25242760342E+02  0.00000000000E+00  0.00000000000E+00  1.
       25    1    1    2    0    0  2.53555280536E+01 -3.64144911375E+02  2.67859221457E+02  4.69699884823E+02  1.25000000000E+02  0.00000000000E+00  1.
        6    2    1    2  502    0 -4.14805332503E+01  7.71239614444E+01  2.36853476533E+02  3.05874530439E+02  1.72600460481E+02  0.00000000000E+00  1.
       -5    1    1    2    0  502  1.61250051967E+01  2.87020949930E+02 -8.09659326853E+01  2.98657870727E+02  5.39479660939E-06  0.00000000000E+00  1.
        5    1    4    4  502    0 -5.73570652476E+01  7.98976755573E+01  1.80614248055E+02  2.05712276235E+02  4.75000000000E+00  0.00000000000E+00  1.
       24    2    4    4    0    0  1.58765319973E+01 -2.77371411288E+00  5.62392284775E+01  1.00162254204E+02  8.13010983276E+01  0.00000000000E+00  1.
       -1    1    7    7    0  703  2.17227753835E+01  3.55786570232E+01  1.71101253382E+01  4.50608055301E+01  6.30796268240E-07  0.00000000000E+00  1.
        2    1    7    7  703    0 -5.84624338619E+00 -3.83523711361E+01  3.91291031393E+01  5.51014486740E+01  0.00000000000E+00  0.00000000000E+00  1.
</event>
<event>
 9 112   1.0000000E+00   7.4550000E+01   7.8125000E-03   1.3429423E-01
        2   -1    0    0  501    0  0.00000000000E+00  0.00000000000E+00  5.22156758769E+02  5.22156758769E+02  0.00000000000E+00  0.00000000000E+00  1.
       -1   -1    0    0    0  501  0.00000000000E+00  0.00000000000E+00 -9.52224527550E+01  9.52224527550E+01  0.00000000000E+00  0.00000000000E+00  1.
       25    1    1    2    0    0 -1.07407707735E+02  1.68472311754E+01  1.42216196791E+02  2.18336189188E+02  1.25000000000E+02  0.00000000000E+00  1.
        6    2    1    2  502    0  8.97010066872E+00  1.90292429767E+01  1.61449173015E+02  2.37264425123E+02  1.72586202135E+02  0.00000000000E+00  1.
       -5    1    1    2    0  502  9.84376070667E+01 -3.58764741521E+01  1.23268936207E+02  1.61778597213E+02  2.33601545599E-06  0.00000000000E+00  1.
        5    1    4    4  502    0  5.62382988327E+01  1.53809304126E+01  1.39175226509E+02  1.50968955251E+02  4.75000000000E+00  0.00000000000E+00  1.
       24    2    4    4    0    0 -4.72681981639E+01  3.64831256407E+00  2.22739465067E+01  8.62954698715E+01  6.85797833558E+01  0.00000000000E+00  1.
       -3    1    7    7    0  703  4.08276892717E+00 -8.75695098486E+00 -1.76206873239E+01  2.00958158438E+01  1.56341517551E-06  0.00000000000E+00  1.
        4    1    7    7  703    0 -5.13509670911E+01  1.24052635489E+01  3.98946338305E+01  6.61996540277E+01  2.02304872852E-06  0.00000000000E+00  1.
</event>
<event>
 9 112   1.0000000E+00   7.4550000E+01   7.8125000E-03   1.3429423E-01
       -1   -1    0    0    0  501  0.00000000000E+00  0.00000000000E+00  5.47381324488E+01  5.47381324488E+01  0.00000000000E+00  0.00000000000E+00  1.
        2   -1    0    0  501    0  0.00000000000E+00  0.00000000000E+00 -1.34248050282E+03  1.34248050282E+03  0.00000000000E+00  0.00000000000E+00  1.
       25    1    1    2    0    0 -4.00486295903E+01 -5.07473775884E+01 -5.91887017227E+02  6.08386743959E+02  1.25000000000E+02  0.00000000000E+00  1.
        6    2    1    2  502    0 -1.03235112968E+02  7.50772972472E+01 -5.01348017449E+02  5.46024808399E+02  1.74640109012E+02  0.00000000000E+00  1.
       -5    1    1    2    0  502  1.43283742558E+02 -2.43299196588E+01 -1.94507335696E+02  2.42807082911E+02  0.00000000000E+00  0.00000000000E+00  1.
        5    1    4    4  502    0 -5.97074717384E+01 -3.76804807328E+01 -1.59162705950E+02  1.74184184916E+02  4.75000000000E+00  0.00000000000E+00  1.
       24    2    4    4    0    0 -4.35276412292E+01  1.12757777980E+02 -3.42185311499E+02  3.71840623483E+02  8.10289443373E+01  0.00000000000E+00  1.
       -3    1    7    7    0  703  1.76418245239E+01  3.62403321404E+00 -2.44914834794E+01  3.04006636818E+01  5.35248382584E-06  0.00000000000E+00  1.
        4    1    7    7  703    0 -6.11694657532E+01  1.09133744766E+02 -3.17693828020E+02  3.41439959801E+02  7.62939453125E-06  0.00000000000E+00  1.
</event>
<event>
 9 112   1.0000000E+00   7.4550000E+01   7.8125000E-03   1.3429423E-01
        2   -1    0    0  501    0  0.00000000000E+00  0.00000000000E+00  8.12094033507E+02  8.12094033507E+02  0.00000000000E+00  0.00000000000E+00  1.
       -1   -1    0    0    0  501  0.00000000000E+00  0.00000000000E+00 -2.85944681850E+02  2.85944681850E+02  0.00000000000E+00  0.00000000000E+00  1.
       25    1    1    2    0    0 -1.07500289629E+01 -3.68945190079E+01  1.81202031673E+02  2.23463520374E+02  1.25000000000E+02  0.00000000000E+00  1.
        6    2    1    2  502    0  1.46467733073E+02 -3.31259447627E+02  2.44528435693E+02  4.69555947687E+02  1.71764413287E+02  0.00000000000E+00  1.
       -5    1    1    2    0  502 -1.35717704111E+02  3.68153966635E+02  1.00418884292E+02  4.05019247297E+02  4.47312904341E-06  0.00000000000E+00  1.
        5    1    4    4  502    0  2.43791765605E+01 -1.56073655633E+02  1.66204913745E+02  2.29346824886E+02  4.75000000000E+00  0.00000000000E+00  1.
       24    2    4    4    0    0  1.22088556513E+02 -1.75185791995E+02  7.83235219478E+01  2.40209122801E+02  7.72668831920E+01  0.00000000000E+00  1.
       -3    1    7    7    0  703  4.11428317973E+00  7.95421982454E+00  8.55500129090E-01  8.99604466257E+00  3.35387039383E-06  0.00000000000E+00  1.
        4    1    7    7  703    0  1.17974273333E+02 -1.83140011819E+02  7.74680218187E+01  2.31213078138E+02  3.30362473978E-06  0.00000000000E+00  1.
</event>
<event>
 9 112   1.0000000E+00   7.4550000E+01   7.8125000E-03   1.3429423E-01
       -1   -1    0    0    0  501  0.00000000000E+00  0.00000000000E+00  3.02685157841E+02  3.02685157841E+02  0.00000000000E+00  0.00000000000E+00  1.
        2   -1    0    0  501    0  0.00000000000E+00  0.00000000000E+00 -1.66167225288E+02  1.66167225288E+02  0.00000000000E+00  0.00000000000E+00  1.
       25    1    1    2    0    0  1.55003006522E+01 -1.26998948514E+01  8.01220271722E+01  1.49820178507E+02  1.25000000000E+02  0.00000000000E+00  1.
        6    2    1    2  502    0  4.81712294147E+01 -8.37019622473E+01  3.53983454292E+01  2.01608700514E+02  1.73397057174E+02  0.00000000000E+00  1.
       -5    1    1    2    0  502 -6.36715300669E+01  9.64018570987E+01  2.09975599513E+01  1.17423504108E+02  2.67624191292E-06  0.00000000000E+00  1.
        5    1    4    4  502    0 -1.05765902774E+01 -5.41634120433E+01 -4.39001850736E+01  7.06776358940E+01  4.75000000000E+00  0.00000000000E+00  1.
       24    2    4    4    0    0  5.87478196921E+01 -2.95385502040E+01  7.92985305028E+01  1.30931064620E+02  8.08137022783E+01  0.00000000000E+00  1.
       -1    1    7    7    0  703  4.90825077898E+01  1.65112861399E+01  2.06754201662E+01  5.57600945119E+01  1.03924249257E-06  0.00000000000E+00  1.
        2    1    7    7  703    0  9.66531190229E+00 -4.60498363439E+01  5.86231103366E+01  7.51709701082E+01  6.74349576174E-07  0.00000000000E+00  1.
</event>
<event>
 9 112   1.0000000E+00   7.4550000E+01   7.8125000E-03   1.3429423E-01
       -1   -1    0    0    0  501  0.00000000000E+00  0.00000000000E+00  4.75127668407E+02  4.75127668407E+02  0.00000000000E+00  0.00000000000E+00  1.
        2   -1    0    0  501    0  0.00000000000E+00  0.00000000000E+00 -3.26030324535E+02  3.26030324535E+02  0.00000000000E+00  0.00000000000E+00  1.
       25    1    1    2    0    0  5.63769516778E+01  3.05446409660E+02  1.97757560716E+01  3.35398196749E+02  1.25000000000E+02  0.00000000000E+00  1.
        6    2    1    2  502    0  5.20395020855E+00 -3.32336332710E+02  8.53822439670E+01  3.85473176041E+02  1.75570278594E+02  0.00000000000E+00  1.
       -5    1    1    2    0  502 -6.15809018864E+01  2.68899230501E+01  4.39393438340E+01  8.02866201514E+01  4.34419325788E-06  0.00000000000E+00  1.
        5    1    4    4  502    0  3.62260261252E+01 -1.69458593714E+01 -1.46553603178E+01  4.28582454693E+01  4.75000000000E+00  0.00000000000E+00  1.
       24    2    4    4    0    0 -3.10220759167E+01 -3.15390473338E+02  1.00037604285E+02  3.42614930572E+02  8.33303576897E+01  0.00000000000E+00  1.
       -3    1    7    7    0  703 -3.00215398004E+01 -2.00872797576E+02  1.03676546462E+02  2.28035084898E+02  4.26496119976E-06  0.00000000000E+00  1.
        4    1    7    7  703    0 -1.00053611631E+00 -1.14517675762E+02 -3.63894217668E+00  1.14579845674E+02  2.70627405280E-06  0.00000000000E+00  1.
</event>
<event>
 9 112   1.0000000E+00   7.4550000E+01   7.8125000E-03   1.3429423E-01
       -1   -1    0    0    0  501  0.00000000000E+00  0.00000000000E+00  1.08669159915E+02  1.08669159915E+02  0.00000000000E+00  0.00000000000E+00  1.
        2   -1    0    0  501    0  0.00000000000E+00  0.00000000000E+00 -2.05467780784E+03  2.05467780784E+03  0.00000000000E+00  0.00000000000E+00  1.
       25    1    1    2    0    0  2.09034018130E+02  2.78505389156E+01 -1.38469229967E+03  1.40622495996E+03  1.25000000000E+02  0.00000000000E+00  1.
        6    2    1    2  502    0 -9.65119667540E+01  4.32807801852E+01 -5.86146187136E+02  6.21706360616E+02  1.78223624910E+02  0.00000000000E+00  1.
       -5    1    1    2    0  502 -1.12522051376E+02 -7.11313191008E+01  2.48298388767E+01  1.35415647182E+02  2.82100667148E-06  0.00000000000E+00  1.
        5    1    4    4  502    0 -7.98685716790E+01  3.52722439827E-01 -1.06785541833E+02  1.33434731609E+02  4.75000000000E+00  0.00000000000E+00  1.
       24    2    4    4    0    0 -1.66433950750E+01  4.29280577454E+01 -4.79360645304E+02  4.88271629007E+02  8.06395355006E+01  0.00000000000E+00  1.
       -3    1    7    7    0  703 -1.68697146979E+01  6.11643717714E+01 -4.43744594372E+02  4.48257663272E+02  9.34406182397E-06  0.00000000000E+00  1.
        4    1    7    7  703    0  2.26319622910E-01 -1.82363140261E+01 -3.56160509317E+01  4.00139657345E+01  6.41518785814E-06  0.00000000000E+00  1.
</event>
<event>
 9 112   1.0000000E+00   7.4550000E+01   7.8125000E-03   1.3429423E-01
        2   -1    0    0  501    0  0.00000000000E+00  0.00000000000E+00  1.12027657012E+03  1.12027657012E+03  0.00000000000E+00  0.00000000000E+00  1.
       -1   -1    0    0    0  501  0.00000000000E+00  0.00000000000E+00 -3.77709798087E+02  3.77709798087E+02  0.00000000000E+00  0.00000000000E+00  1.
       25    1    1    2    0    0  1.43202579140E+02 -1.15740841025E+02  5.78192019190E+02  6.19543325368E+02  1.25000000000E+02  0.00000000000E+00  1.
        6    2    1    2  502    0 -2.98801510357E+02  1.24719341374E+01  4.31294901323E+02  5.52679539379E+02  1.73209380833E+02  0.00000000000E+00  1.
       -5    1    1    2    0  502  1.55598931216E+02  1.03268906888E+02 -2.66920148477E+02  3.25763503463E+02  5.39479660939E-06  0.00000000000E+00  1.
        5    1    4    4  502    0 -6.99368394248E+01 -3.18640739180E+01  2.93912923261E+01  8.24189982952E+01  4.75000000000E+00  0.00000000000E+00  1.
       24    2    4    4    0    0 -2.28864670932E+02  4.43360080554E+01  4.01903608997E+02  4.70260541084E+02  7.26205643381E+01  0.00000000000E+00  1.
       -3    1    7    7    0  703 -3.91800856567E+01 -1.61462946206E+01  4.66662390968E+01  6.30358613289E+01  3.37174788087E-06  0.00000000000E+00  1.
        4    1    7    7  703    0 -1.89684585275E+02  6.04823026761E+01  3.55237369900E+02  4.07224679755E+02  6.60724947956E-06  0.00000000000E+00  1.
</event>
<event>
 9 112   1.0000000E+00   7.4550000E+01   7.8125000E-03   1.3429423E-01
        2   -1    0    0  501    0  0.00000000000E+00  0.00000000000E+00  6.72516323196E+02  6.72516323196E+02  0.00000000000E+00  0.00000000000E+00  1.
       -1   -1    0    0    0  501  0.00000000000E+00  0.00000000000E+00 -2.35204617990E+02  2.35204617990E+02  0.00000000000E+00  0.00000000000E+00  1.
       25    1    1    2    0    0  2.85809933260E+02 -1.91834305927E+01  2.46246507134E+02  3.97891523200E+02  1.25000000000E+02  0.00000000000E+00  1.
        6    2    1    2  502    0  8.92449554489E+00  3.26474314154E+00  5.36383822294E+01  1.84240846556E+02  1.76003716787E+02  0.00000000000E+00  1.
       -5    1    1    2    0  502 -2.94734428805E+02  1.59186874512E+01  1.37426815843E+02  3.25588571430E+02  6.32595975944E-06  0.00000000000E+00  1.
        5    1    4    4  502    0  3.42633491420E+01  1.84378120369E+01  8.49486539720E+01  9.35562200967E+01  4.75000000000E+00  0.00000000000E+00  1.
       24    2    4    4    0    0 -2.53388535971E+01 -1.51730688953E+01 -3.13102717426E+01  9.06846264589E+01  7.98191007096E+01  0.00000000000E+00  1.
       -1    1    7    7    0  703  2.24934996029E+01 -2.60684351585E+01 -4.34475881873E+00  3.47044343736E+01  7.60981162477E-07  0.00000000000E+00  1.
        2    1    7    7  703    0 -4.78323532000E+01  1.08953662632E+01 -2.69655129239E+01  5.59801920853E+01  1.26159253648E-06  0.00000000000E+00  1.
</event>
<event>
 9 112   1.0000000E+00   7.4550000E+01   7.8125000E-03   1.3429423E-01
       -1   -1    0    0    0  501  0.00000000000E+00  0.00000000000E+00  3.01745153702E+02  3.01745153702E+02  0.00000000000E+00  0.00000000000E+00  1.
        2   -1    0    0  501    0  0.00000000000E+00  0.00000000000E+00 -4.69382068774E+02  4.69382068774E+02  0.00000000000E+00  0.00000000000E+00  1.
       25    1    1    2    0    0 -9.13164729196E+00 -1.56558858060E+02 -2.32202627426E+02  3.06817736128E+02  1.25000000000E+02  0.00000000000E+00  1.
        6    2    1    2  502    0 -1.47701841789E+02  5.77171892779E+01 -6.68415490149E+01  2.37077694722E+02  1.63067264201E+02  0.00000000000E+00  1.
       -5    1    1    2    0  502  1.56833489081E+02  9.88416687819E+01  1.31407261369E+02  2.27231791626E+02  4.26496119976E-06  0.00000000000E+00  1.
        5    1    4    4  502    0 -1.32866654709E+02  1.13777407533E+01 -4.21168899143E+01  1.39926394344E+02  4.75000000000E+00  0.00000000000E+00  1.
       24    2    4    4    0    0 -1.48351870801E+01  4.63394485245E+01 -2.47246591006E+01  9.71513003776E+01  8.03718802328E+01  0.00000000000E+00  1.
       -1    1    7    7    0  703 -2.82214634318E+01  3.38663970117E+01  2.03132168720E+01  4.85387538414E+01  1.65181236989E-06  0.00000000000E+00  1.
        2    1    7    7  703    0  1.33862763518E+01  1.24730515128E+01 -4.50378759726E+01  4.86125465362E+01  2.07848498513E-06  0.00000000000E+00  1.
</event>
<event>
 9 112   1.0000000E+00   7.4550000E+01   7.8125000E-03   1.3429423E-01
        2   -1    0    0  501    0  0.00000000000E+00  0.00000000000E+00  3.32087294680E+02  3.32087294680E+02  0.00000000000E+00  0.00000000000E+00  1.
       -1   -1    0    0    0  501  0.00000000000E+00  0.00000000000E+00 -4.12933632569E+02  4.12933632569E+02  0.00000000000E+00  0.00000000000E+00  1.
       25    1    1    2    0    0  1.56978119588E+01 -1.04477131647E+02  9.76088465318E+01  1.90563320864E+02  1.25000000000E+02  0.00000000000E+00  1.
        6    2    1    2  502    0  1.78116770190E+01 -1.68310359561E+02 -1.30892295550E+02  2.75534445624E+02  1.73611073141E+02  0.00000000000E+00  1.
       -5    1    1    2    0  502 -3.35094889778E+01  2.72787491208E+02 -4.75628888710E+01  2.78923160761E+02  3.75461953831E-06  0.00000000000E+00  1.
        5    1    4    4  502    0 -1.88585566180E+01 -3.47863949908E+01  2.92266093074E+01  4.94216109184E+01  4.75000000000E+00  0.00000000000E+00  1.
       24    2    4    4    0    0  3.66702336370E+01 -1.33523964570E+02 -1.60118904857E+02  2.26112834705E+02  7.94707189864E+01  0.00000000000E+00  1.
      -13    1    7    7    0    0 -1.51798783418E+01 -2.60314931715E+01 -7.11098914626E+01  7.72314390068E+01  1.05660000017E-01  0.00000000000E+00  1.
       14    1    7    7    0    0  5.18501119788E+01 -1.07492471399E+02 -8.90090133946E+01  1.48881395698E+02  1.65181236989E-06  0.00000000000E+00  1.
</event>
<event>
 9 112   1.0000000E+00   7.4550000E+01   7.8125000E-03   1.3429423E-01
        2   -1    0    0  501    0  0.00000000000E+00  0.00000000000E+00  7.59462567314E+02  7.59462567314E+02  0.00000000000E+00  0.00000000000E+00  1.
       -1   -1    0    0    0  501  0.00000000000E+00  0.00000000000E+00 -1.26466903409E+02  1.26466903409E+02  0.00000000000E+00  0.00000000000E+00  1.
       25    1    1    2    0    0  9.98383930310E+01 -2.43080584653E+01  4.42326599003E+02  4.70995123770E+02  1.25000000000E+02  0.00000000000E+00  1.
        6    2    1    2  502    0 -1.39397060787E+02  6.70561134979E+01  2.43185728817E+02  3.36510598047E+02  1.73700952745E+02  0.00000000000E+00  1.
       -5    1    1    2    0  502  3.95586677556E+01 -4.27480550327E+01 -5.25166639150E+01  7.84237489058E+01  2.33601545599E-06  0.00000000000E+00  1.
        5    1    4    4  502    0 -6.18298154476E+00 -3.97742919536E+01  2.08073551520E+01  4.55602029145E+01  4.75000000000E+00  0.00000000000E+00  1.
       24    2    4    4    0    0 -1.33214079242E+02  1.06830405452E+02  2.22378373665E+02  2.90950395133E+02  7.77255744075E+01  0.00000000000E+00  1.
       -1    1    7    7    0  703 -6.35728812454E+01  5.69892084622E+00  6.22027431025E+01  8.91244645321E+01  1.65181236989E-06  0.00000000000E+00  1.
        2    1    7    7  703    0 -6.96411979965E+01  1.01131484605E+02  1.60175630562E+02  2.01825930601E+02  3.30362473978E-06  0.00000000000E+00  1.
</event>
<event>
 9 112   1.0000000E+00   7.4550000E+01   7.8125000E-03   1.3429423E-01
        2   -1    0    0  501    0  0.00000000000E+00  0.00000000000E+00  1.14236167187E+03  1.14236167187E+03  0.00000000000E+00  0.00000000000E+00  1.
       -1   -1    0    0    0  501  0.00000000000E+00  0.00000000000E+00 -3.18118965273E+02  3.18118965273E+02  0.00000000000E+00  0.00000000000E+00  1.
       25    1    1    2    0    0 -1.00953605836E+02 -7.75065520730E+01  3.33927403397E+02  3.78591345497E+02  1.25000000000E+02  0.00000000000E+00  1.
        6    2    1    2  502    0  1.21413569103E+02  1.70011596696E+01  7.67501963400E+02  7.97439019721E+02  1.78380021744E+02  0.00000000000E+00  1.
       -5    1    1    2    0  502 -2.04599632672E+01  6.05053924034E+01 -2.77186660199E+02  2.84450271927E+02  1.26519195189E-05  0.00000000000E+00  1.
        5    1    4    4  502    0  8.82970230984E+01 -2.43609908110E+01  5.73507640885E+02  5.80795487943E+02  4.74999999999E+00  0.00000000000E+00  1.
       24    2    4    4    0    0  3.31165460046E+01  4.13621504806E+01  1.93994322515E+02  2.16643531778E+02  8.05797094892E+01  0.00000000000E+00  1.
       -3    1    7    7    0  703  5.10705808008E+01  5.05114349766E+01  1.74058530605E+02  1.88297587247E+02  2.69739830470E-06  0.00000000000E+00  1.
        4    1    7    7  703    0 -1.79540347961E+01 -9.14928449599E+00  1.99357919104E+01  2.83459445308E+01  3.37174788087E-07  0.00000000000E+00  1.
</event>
<event>
 9 112   1.0000000E+00   7.4550000E+01   7.8125000E-03   1.3429423E-01
        2   -1    0    0  501    0  0.00000000000E+00  0.00000000000E+00  2.92792177107E+02  2.92792177107E+02  0.00000000000E+00  0.00000000000E+00  1.
       -1   -1    0    0    0  501  0.00000000000E+00  0.00000000000E+00 -3.56612543310E+02  3.56612543310E+02  0.00000000000E+00  0.00000000000E+00  1.
       25    1    1    2    0    0  5.72276287228E+01  8.90364501322E+01  4.75992696361E+01  1.70567234284E+02  1.25000000000E+02  0.00000000000E+00  1.
        6    2    1    2  502    0  6.45878822785E+01  9.99652846321E+01  4.17286368951E+01  2.06780382007E+02  1.63866392457E+02  0.00000000000E+00  1.
       -5    1    1    2    0  502 -1.21815511001E+02 -1.89001734764E+02 -1.53148272734E+02  2.72057104127E+02  5.04637014592E-06  0.00000000000E+00  1.
        5    1    4    4  502    0  4.08852308481E+01  7.98559892902E+00  6.81683229845E+01  8.00303358126E+01  4.75000000000E+00  0.00000000000E+00  1.
       24    2    4    4    0    0  2.37026514303E+01  9.19796857030E+01 -2.64396860894E+01  1.26750046194E+02  7.96519864339E+01  0.00000000000E+00  1.
       -3    1    7    7    0  703  2.45488951133E+01  1.83366324421E+01 -4.14919469207E+01  5.15796665351E+01  1.16800772800E-06  0.00000000000E+00  1.
        4    1    7    7  703    0 -8.46243683006E-01  7.36430532610E+01  1.50522608312E+01  7.51703796592E+01  5.05762182131E-07  0.00000000000E+00  1.
</event>
<event>
 9 112   1.0000000E+00   7.4550000E+01   7.8125000E-03   1.3429423E-01
        2   -1    0    0  501    0  0.00000000000E+00  0.00000000000E+00  2.43292169354E+03  2.43292169354E+03  0.00000000000E+00  0.00000000000E+00  1.
       -1   -1    0    0    0  501  0.00000000000E+00  0.00000000000E+00 -1.73065276171E+02  1.73065276171E+02  0.00000000000E+00  0.00000000000E+00  1.
       25    1    1    2    0    0  2.55357906375E+02  4.18523067887E+02  9.16080835774E+02  1.04651723176E+03  1.25000000000E+02  0.00000000000E+00  1.
        6    2    1    2  502    0 -6.99266227027E+00 -2.46386597358E+01  8.97647186552E+02  9.14597063441E+02  1.73382109951E+02  0.00000000000E+00  1.
       -5    1    1    2    0  502 -2.48365244105E+02 -3.93884408151E+02  4.46128395042E+02  6.44872674508E+02  1.32144989591E-05  0.00000000000E+00  1.
        5    1    4    4  502    0  5.76402588119E+01 -3.46006911619E+01  4.59568708580E+02  4.64484195287E+02  4.75000000001E+00  0.00000000000E+00  1.
       24    2    4    4    0    0 -6.46329210821E+01  9.96203142609E+00  4.38078477971E+02  4.50112868154E+02  8.00761179041E+01  0.00000000000E+00  1.
      -15    1    7    7    0    0 -5.44045499200E+01 -1.38534681165E+01  1.39092223610E+02  1.50005257634E+02  1.77680000000E+00  0.00000000000E+00  1.
       16    1    7    7    0    0 -1.02283711621E+01  2.38154995426E+01  2.98986254361E+02  3.00107610520E+02  3.81469726562E-06  0.00000000000E+00  1.
</event>
<event>
 9 112   1.0000000E+00   7.4550000E+01   7.8125000E-03   1.3429423E-01
        2   -1    0    0  501    0  0.00000000000E+00  0.00000000000E+00  1.22735182767E+03  1.22735182767E+03  0.00000000000E+00  0.00000000000E+00  1.
       -1   -1    0    0    0  501  0.00000000000E+00  0.00000000000E+00 -1.11196682200E+02  1.11196682200E+02  0.00000000000E+00  0.00000000000E+00  1.
       25    1    1    2    0    0  1.02342539288E+02 -8.35365320901E+01  3.24168803514E+02  3.71702516420E+02  1.25000000000E+02  0.00000000000E+00  1.
        6    2    1    2  502    0  9.24340921998E+01 -1.30840476904E+02  2.05828875980E+02  3.13029495434E+02  1.73085663840E+02  0.00000000000E+00  1.
       -5    1    1    2    0  502 -1.94776631487E+02  2.14377008994E+02  5.86157465978E+02  6.53816498018E+02  7.62939453125E-06  0.00000000000E+00  1.
        5    1    4    4  502    0  2.68310170202E+01 -3.19997315198E+01 -1.94554501903E+01  4.63137488635E+01  4.75000000000E+00  0.00000000000E+00  1.
       24    2    4    4    0    0  6.56030751795E+01 -9.88407453844E+01  2.25284326171E+02  2.66715746570E+02  7.94418367696E+01  0.00000000000E+00  1.
       -1    1    7    7    0  703  4.02731000321E+01 -1.04433933154E+02  1.50495465830E+02  1.87556002878E+02  1.90734863281E-06  0.00000000000E+00  1.
        2    1    7    7  703    0  2.53299751475E+01  5.59318776948E+00  7.47888603410E+01  7.91597436928E+01  9.53674316406E-07  0.00000000000E+00  1.
</event>
<event>
 9 112   1.0000000E+00   7.4550000E+01   7.8125000E-03   1.3429423E-01
        2   -1    0    0  501    0  0.00000000000E+00  0.00000000000E+00  2.18391380756E+03  2.18391380756E+03  0.00000000000E+00  0.00000000000E+00  1.
       -1   -1    0    0    0  501  0.00000000000E+00  0.00000000000E+00 -7.80687997315E+01  7.80687997315E+01  0.00000000000E+00  0.00000000000E+00  1.
       25    1    1    2    0    0  6.20114632648E+00  3.49697896372E+01  2.68059507435E+02  2.97896357698E+02  1.25000000000E+02  0.00000000000E+00  1.
        6    2    1    2  502    0  5.78225594264E+01  2.25261392874E+02  1.52390900318E+03  1.55136629762E+03  1.74219964235E+02  0.00000000000E+00  1.
       -5    1    1    2    0  502 -6.40237057529E+01 -2.60231182511E+02  3.13876497211E+02  4.12719951966E+02  2.08939574244E-05  0.00000000000E+00  1.
        5    1    4    4  502    0  1.99578808118E+01  7.06024504177E+01  8.93808971269E+02  8.96827777577E+02  4.74999999994E+00  0.00000000000E+00  1.
       24    2    4    4    0    0  3.78646786146E+01  1.54658942456E+02  6.30100031910E+02  6.54538520048E+02  7.77270972449E+01  0.00000000000E+00  1.
       -3    1    7    7    0  703  1.13668472396E+01 -6.14930345208E+00  7.10999324389E+01  7.22649260840E+01  5.80097439794E-06  0.00000000000E+00  1.
        4    1    7    7  703    0  2.64978313750E+01  1.60808245908E+02  5.59000099471E+02  5.82273593964E+02  0.00000000000E+00  0.00000000000E+00  1.
</event>
<event>
 9 112   1.0000000E+00   7.4550000E+01   7.8125000E-03   1.3429423E-01
        2   -1    0    0  501    0  0.00000000000E+00  0.00000000000E+00  2.36787620434E+01  2.36787620434E+01  0.00000000000E+00  0.00000000000E+00  1.
       -1   -1    0    0    0  501  0.00000000000E+00  0.00000000000E+00 -1.68393320624E+03  1.68393320624E+03  0.00000000000E+00  0.00000000000E+00  1.
       25    1    1    2    0    0 -4.45016225077E+01  8.10512038813E+00 -1.07627841684E+03  1.08445669251E+03  1.25000000000E+02  0.00000000000E+00  1.
        6    2    1    2  502    0  2.68948530843E+01  2.12365625198E+01 -4.13705016695E+02  4.49479860822E+02  1.72354227497E+02  0.00000000000E+00  1.
       -5    1    1    2    0  502  1.76067694233E+01 -2.93416829079E+01 -1.70271010662E+02  1.73675414948E+02  3.30362473978E-06  0.00000000000E+00  1.
        5    1    4    4  502    0  6.04148293480E+01  4.53633289604E+00 -6.38563386806E+01  8.81517124676E+01  4.75000000000E+00  0.00000000000E+00  1.
       24    2    4    4    0    0 -3.35199762637E+01  1.67002296238E+01 -3.49848678014E+02  3.61328148355E+02  8.22280171644E+01  0.00000000000E+00  1.
       -3    1    7    7    0  703  5.26730468700E+00 -2.72453280853E+01 -6.79081370127E+01  7.33591676185E+01  3.30362473978E-06  0.00000000000E+00  1.
        4    1    7    7  703    0 -3.87872809507E+01  4.39455577091E+01 -2.81940541002E+02  2.87968980736E+02  3.81469726562E-06  0.00000000000E+00  1.
</event>
<event>
 9 112   1.0000000E+00   7.4550000E+01   7.8125000E-03   1.3429423E-01
        2   -1    0    0  501    0  0.00000000000E+00  0.00000000000E+00  7.89516992315E+02  7.89516992315E+02  0.00000000000E+00  0.00000000000E+00  1.
       -1   -1    0    0    0  501  0.00000000000E+00  0.00000000000E+00 -1.49691177738E+02  1.49691177738E+02  0.00000000000E+00  0.00000000000E+00  1.
       25    1    1    2    0    0  9.28548448954E+01 -2.90806236889E+00  3.36931274225E+02  3.71184809223E+02  1.25000000000E+02  0.00000000000E+00  1.
        6    2    1    2  502    0  3.48100954373E+01 -1.38208185002E+02  3.04322602184E+02  3.77723146372E+02  1.72479807396E+02  0.00000000000E+00  1.
       -5    1    1    2    0  502 -1.27664940333E+02  1.41116247371E+02 -1.42806183113E+00  1.90300214458E+02  3.76371593187E-06  0.00000000000E+00  1.
        5    1    4    4  502    0  6.13312848332E+01 -8.96404436182E+01  8.69702193094E+01  1.39223982051E+02  4.75000000000E+00  0.00000000000E+00  1.
       24    2    4    4    0    0 -2.65211893959E+01 -4.85677413836E+01  2.17352382874E+02  2.38499164321E+02  8.11023677250E+01  0.00000000000E+00  1.
      -15    1    7    7    0    0  1.72571540260E+01  1.10072239006E+01  2.45778238751E+01  3.20342752025E+01  1.77680000000E+00  0.00000000000E+00  1.
       16    1    7    7    0    0 -4.37783434219E+01 -5.95749652842E+01  1.92774558999E+02  2.06464889118E+02  0.00000000000E+00  0.00000000000E+00  1.
</event>
<event>
 9 112   1.0000000E+00   7.4550000E+01   7.8125000E-03   1.3429423E-01
        2   -1    0    0  501    0  0.00000000000E+00  0.00000000000E+00  1.88115572403E+03  1.88115572403E+03  0.00000000000E+00  0.00000000000E+00  1.
       -1   -1    0    0    0  501  0.00000000000E+00  0.00000000000E+00 -2.32145663766E+01  2.32145663766E+01  0.00000000000E+00  0.00000000000E+00  1.
       25    1    1    2    0    0 -4.09184038567E+01 -9.34912059896E+01  4.04364351995E+02  4.35373920367E+02  1.25000000000E+02  0.00000000000E+00  1.
        6    2    1    2  502    0  3.35187868963E+01  7.83657059226E+01  1.26757220884E+03  1.28223115614E+03  1.73530228564E+02  0.00000000000E+00  1.
       -5    1    1    2    0  502  7.39961696047E+00  1.51255000670E+01  1.86004596823E+02  1.86765213899E+02  0.00000000000E+00  0.00000000000E+00  1.
        5    1    4    4  502    0  2.40128427426E+01  9.98867192630E+01  7.16363267894E+02  7.23707722351E+02  4.75000000001E+00  0.00000000000E+00  1.
       24    2    4    4    0    0  9.50594415368E+00 -2.15210133404E+01  5.51208940941E+02  5.58523433789E+02  8.69690320139E+01  0.00000000000E+00  1.
       -1    1    7    7    0  703 -4.00208573863E+00  3.28971705718E+01  1.68374149868E+02  1.71604472161E+02  6.03156597170E-06  0.00000000000E+00  1.
        2    1    7    7  703    0  1.35080298923E+01 -5.44181839122E+01  3.82834791073E+02  3.86918961628E+02  0.00000000000E+00  0.00000000000E+00  1.
</event>
<event>
 9 112   1.0000000E+00   7.4550000E+01   7.8125000E-03   1.3429423E-01
        2   -1    0    0  501    0  0.00000000000E+00  0.00000000000E+00  3.11304774386E+02  3.11304774386E+02  0.00000000000E+00  0.00000000000E+00  1.
       -1   -1    0    0    0  501  0.00000000000E+00  0.00000000000E+00 -5.44125266041E+02  5.44125266041E+02  0.00000000000E+00  0.00000000000E+00  1.
       25    1    1    2    0    0  2.47275096670E+01  8.14627302095E+01  6.30975409558E+01  1.63871674862E+02  1.25000000000E+02  0.00000000000E+00  1.
        6    2    1    2  502    0  1.07912910285E+02  1.03018994492E+02  8.79835119148E+01  2.45455929299E+02  1.73923562023E+02  0.00000000000E+00  1.
       -5    1    1    2    0  502 -1.32640419952E+02 -1.84481724702E+02 -3.83901544526E+02  4.46102436267E+02  9.34406182397E-06  0.00000000000E+00  1.
        5    1    4    4  502    0  3.99729242442E+01  1.07692674039E+02  3.15493624744E+01  1.19220264581E+02  4.75000000000E+00  0.00000000000E+00  1.
       24    2    4    4    0    0  6.79399860409E+01 -4.67367954640E+00  5.64341494403E+01  1.26235664718E+02  9.00718870679E+01  0.00000000000E+00  1.
       -3    1    7    7    0  703  4.64460273009E+01 -1.20163347899E+00  8.10190320876E+01  9.33957222546E+01  9.53674316406E-07  0.00000000000E+00  1.
        4    1    7    7  703    0  2.14939587401E+01 -3.47204606741E+00 -2.45848826472E+01  3.28399424633E+01  4.76837158203E-07  0.00000000000E+00  1.
</event>
<event>
 9 112   1.0000000E+00   7.4550000E+01   7.8125000E-03   1.3429423E-01
        2   -1    0    0  501    0  0.00000000000E+00  0.00000000000E+00  4.53494993473E+02  4.53494993473E+02  0.00000000000E+00  0.00000000000E+00  1.
       -1   -1    0    0    0  501  0.00000000000E+00  0.00000000000E+00 -2.15585445567E+02  2.15585445567E+02  0.00000000000E+00  0.00000000000E+00  1.
       25    1    1    2    0    0  1.43327546135E+02 -3.45867727953E+01  2.78303937017E+02  3.38846737763E+02  1.25000000000E+02  0.00000000000E+00  1.
        6    2    1    2  502    0 -7.49901204546E+01 -5.42628372961E+01  2.91467992781E+01  1.98323755312E+02  1.72958961420E+02  0.00000000000E+00  1.
       -5    1    1    2    0  502 -6.83374256806E+01  8.88496100914E+01 -6.95411883890E+01  1.31909945965E+02  0.00000000000E+00  0.00000000000E+00  1.
        5    1    4    4  502    0 -5.45861307373E+01  2.41690761078E+01  5.68372521226E+01  8.25640698950E+01  4.75000000000E+00  0.00000000000E+00  1.
       24    2    4    4    0    0 -2.04039897173E+01 -7.84319134040E+01 -2.76904528446E+01  1.15759685417E+02  7.78823198968E+01  0.00000000000E+00  1.
       -3    1    7    7    0  703 -4.42073264398E+01 -7.62668025466E+01 -1.80191364508E+01  8.99755642387E+01  1.26159253648E-06  0.00000000000E+00  1.
        4    1    7    7  703    0  2.38033367225E+01 -2.16511085737E+00 -9.67131639373E+00  2.57841211783E+01  7.81707587755E-07  0.00000000000E+00  1.
</event>
<event>
 9 112   1.0000000E+00   7.4550000E+01   7.8125000E-03   1.3429423E-01
        2   -1    0    0  501    0  0.00000000000E+00  0.00000000000E+00  1.42184541560E+03  1.42184541560E+03  0.00000000000E+00  0.00000000000E+00  1.
       -1   -1    0    0    0  501  0.00000000000E+00  0.00000000000E+00 -1.15413297842E+02  1.15413297842E+02  0.00000000000E+00  0.00000000000E+00  1.
       25    1    1    2    0    0  4.40907083642E+01 -1.12170279396E+01  3.64585667590E+02  3.88094732368E+02  1.25000000000E+02  0.00000000000E+00  1.
        6    2    1    2  502    0 -2.27305364277E+01 -1.26037708742E+02  9.81267221789E+02  1.00477174817E+03  1.74007827576E+02  0.00000000000E+00  1.
       -5    1    1    2    0  502 -2.13601719365E+01  1.37254736681E+02 -3.94207716215E+01  1.44392232900E+02  1.61280961278E-05  0.00000000000E+00  1.
        5    1    4    4  502    0 -7.60559412228E+01 -5.55729861247E+01  5.28124929516E+02  5.36480537073E+02  4.75000000001E+00  0.00000000000E+00  1.
       24    2    4    4    0    0  5.33254047951E+01 -7.04647226168E+01  4.53142292274E+02  4.68291211100E+02  7.84209501138E+01  0.00000000000E+00  1.
       -3    1    7    7    0  703  1.80794034294E+00  2.11484157986E-02 -3.19836785277E+00  3.67405123274E+00  3.86971422151E-06  0.00000000000E+00  1.
        4    1    7    7  703    0  5.15174644522E+01 -7.04858710326E+01  4.56340660126E+02  4.64617159867E+02  1.32144989591E-05  0.00000000000E+00  1.
</event>
<event>
 9 112   1.0000000E+00   7.4550000E+01   7.8125000E-03   1.3429423E-01
        2   -1    0    0  501    0  0.00000000000E+00  0.00000000000E+00  2.14000182562E+02  2.14000182562E+02  0.00000000000E+00  0.00000000000E+00  1.
       -1   -1    0    0    0  501  0.00000000000E+00  0.00000000000E+00 -3.94096640150E+02  3.94096640150E+02  0.00000000000E+00  0.00000000000E+00  1.
       25    1    1    2    0    0 -7.79901128940E+01  1.05692980372E+02  5.63789918174E+01  1.89886951967E+02  1.25000000000E+02  0.00000000000E+00  1.
        6    2    1    2  502    0  2.31203819927E+01  4.11702627729E+01 -7.49597724592E+01  1.93116971133E+02  1.71597361437E+02  0.00000000000E+00  1.
       -5    1    1    2    0  502  5.48697309014E+01 -1.46863243144E+02 -1.61515676947E+02  2.25092899612E+02  0.00000000000E+00  0.00000000000E+00  1.
        5    1    4    4  502    0  6.25574815814E+01  8.45786819292E+00 -6.45968850144E+01  9.04449782451E+01  4.75000000000E+00  0.00000000000E+00  1.
       24    2    4    4    0    0 -3.94370995888E+01  3.27123945800E+01 -1.03628874448E+01  1.02671992888E+02  8.83672060454E+01  0.00000000000E+00  1.
       -3    1    7    7    0  703 -3.41388942284E+01  1.54012432423E+01 -4.80146892623E+01  6.08939469693E+01  2.02304872852E-06  0.00000000000E+00  1.
        4    1    7    7  703    0 -5.29820536042E+00  1.73111513377E+01  3.76518018175E+01  4.17780459187E+01  1.34869915235E-06  0.00000000000E+00  1.
</event>
<event>
 9 112   1.0000000E+00   7.4550000E+01   7.8125000E-03   1.3429423E-01
        2   -1    0    0  501    0  0.00000000000E+00  0.00000000000E+00  4.83390027415E+02  4.83390027415E+02  0.00000000000E+00  0.00000000000E+00  1.
       -1   -1    0    0    0  501  0.00000000000E+00  0.00000000000E+00 -1.27932883984E+02  1.27932883984E+02  0.00000000000E+00  0.00000000000E+00  1.
       25    1    1    2    0    0 -5.31734593846E+01 -2.90135936805E+01  8.80668525724E+01  1.64468768838E+02  1.25000000000E+02  0.00000000000E+00  1.
        6    2    1    2  502    0  3.29393958086E+01  3.69373219018E+01  3.32817730606E+02  3.77912481212E+02  1.72048923579E+02  0.00000000000E+00  1.
       -5    1    1    2    0  502  2.02340635760E+01 -7.92372822126E+00 -6.54274397472E+01  6.89416613493E+01  4.26496119976E-06  0.00000000000E+00  1.
        5    1    4    4  502    0 -1.05901258834E+01 -1.24079717191E+01 -9.69458372703E+00  1.95615945681E+01  4.75000000000E+00  0.00000000000E+00  1.
       24    2    4    4    0    0  4.35295216920E+01  4.93452936209E+01  3.42512314333E+02  3.58350886644E+02  8.22854496715E+01  0.00000000000E+00  1.
       -3    1    7    7    0  703  6.64465515092E+01  2.88525135718E+01  2.70902795618E+02  2.80420998537E+02  3.81469726562E-06  0.00000000000E+00  1.
        4    1    7    7  703    0 -2.29170298172E+01  2.04927800491E+01  7.16095187146E+01  7.79298881067E+01  3.93209993898E-06  0.00000000000E+00  1.
</event>
<event>
 9 112   1.0000000E+00   7.4550000E+01   7.8125000E-03   1.3429423E-01
        2   -1    0    0  501    0  0.00000000000E+00  0.00000000000E+00  1.21571352382E+03  1.21571352382E+03  0.00000000000E+00  0.00000000000E+00  1.
       -1   -1    0    0    0  501  0.00000000000E+00  0.00000000000E+00 -4.97420730579E+01  4.97420730579E+01  0.00000000000E+00  0.00000000000E+00  1.
       25    1    1    2    0    0  1.64342703048E+02 -2.54744516588E+00  4.09300284386E+02  4.58439457639E+02  1.25000000000E+02  0.00000000000E+00  1.
        6    2    1    2  502    0 -1.17979596182E+02 -2.14109549588E+01  4.72409838220E+02  5.18003950396E+02  1.75440654556E+02  0.00000000000E+00  1.
       -5    1    1    2    0  502 -4.63631068662E+01  2.39584001246E+01  2.84261328158E+02  2.89012188845E+02  3.81469726562E-06  0.00000000000E+00  1.
        5    1    4    4  502    0 -1.21094041748E+02 -6.05467118170E+00  2.00812042613E+02  2.34624092856E+02  4.75000000000E+00  0.00000000000E+00  1.
       24    2    4    4    0    0  3.11444556614E+00 -1.53562837771E+01  2.71597795607E+02  2.83379857540E+02  7.93301068839E+01  0.00000000000E+00  1.
      -11    1    7    7    0    0  1.80988226267E+00  2.34516818899E+01  2.73869502424E+01  3.61012756161E+01  5.11002379848E-04  0.00000000000E+00  1.
       12    1    7    7    0    0  1.30456330347E+00 -3.88079656669E+01  2.44210845365E+02  2.47278581924E+02  2.69739830470E-06  0.00000000000E+00  1.
</event>
<event>
 9 112   1.0000000E+00   7.4550000E+01   7.8125000E-03   1.3429423E-01
        2   -1    0    0  501    0  0.00000000000E+00  0.00000000000E+00  3.15240335245E+02  3.15240335245E+02  0.00000000000E+00  0.00000000000E+00  1.
       -1   -1    0    0    0  501  0.00000000000E+00  0.00000000000E+00 -1.21217143326E+02  1.21217143326E+02  0.00000000000E+00  0.00000000000E+00  1.
       25    1    1    2    0    0  1.25015372024E+01 -1.32594854344E+01  2.15828810288E+02  2.50078343198E+02  1.25000000000E+02  0.00000000000E+00  1.
        6    2    1    2  502    0 -1.56934921569E+01  4.47878844090E+00 -1.27937810793E+01  1.73398286886E+02  1.72153826036E+02  0.00000000000E+00  1.
       -5    1    1    2    0  502  3.19195495450E+00  8.78069699349E+00 -9.01183728952E+00  1.29808484875E+01  2.06476546236E-07  0.00000000000E+00  1.
        5    1    4    4  502    0  1.96915354038E+00 -1.77161248716E+00  6.14457872113E+01  6.16860068612E+01  4.75000000000E+00  0.00000000000E+00  1.
       24    2    4    4    0    0 -1.76626456973E+01  6.25040092806E+00 -7.42395682906E+01  1.11712280025E+02  8.13454574242E+01  0.00000000000E+00  1.
      -13    1    7    7    0    0 -4.48830580368E+00 -3.63449817869E+01 -2.08018097424E+01  4.21168498664E+01  1.05659999996E-01  0.00000000000E+00  1.
       14    1    7    7    0    0 -1.31743398936E+01  4.25953827149E+01 -5.34377585482E+01  6.95954301583E+01  6.74349576174E-07  0.00000000000E+00  1.
</event>
<event>
 9 112   1.0000000E+00   7.4550000E+01   7.8125000E-03   1.3429423E-01
        2   -1    0    0  501    0  0.00000000000E+00  0.00000000000E+00  6.05970051297E+02  6.05970051297E+02  0.00000000000E+00  0.00000000000E+00  1.
       -1   -1    0    0    0  501  0.00000000000E+00  0.00000000000E+00 -2.28323317523E+02  2.28323317523E+02  0.00000000000E+00  0.00000000000E+00  1.
       25    1    1    2    0    0  9.25918044138E+01 -9.68208228761E+01  2.46901422694E+02  3.07461910674E+02  1.25000000000E+02  0.00000000000E+00  1.
        6    2    1    2  502    0  1.24018471013E+02 -7.75627783152E+01  2.21842301741E+01  2.28309834017E+02  1.73886958994E+02  0.00000000000E+00  1.
       -5    1    1    2    0  502 -2.16610275427E+02  1.74383601191E+02  1.08561080906E+02  2.98521624129E+02  5.72204589844E-06  0.00000000000E+00  1.
        5    1    4    4  502    0 -1.93004270664E+01 -3.06611346894E+01 -3.26056320383E+01  4.89724555848E+01  4.75000000000E+00  0.00000000000E+00  1.
       24    2    4    4    0    0  1.43318898079E+02 -4.69016436258E+01  5.47898622124E+01  1.79337378432E+02  8.01242508874E+01  0.00000000000E+00  1.
      -15    1    7    7    0    0  9.98517077440E+00  9.65470364897E+00  2.90314780676E+01  3.22319821757E+01  1.77680000000E+00  0.00000000000E+00  1.
       16    1    7    7    0    0  1.33333727305E+02 -5.65563472748E+01  2.57583841448E+01  1.47105396257E+02  2.15897205785E-06  0.00000000000E+00  1.
</event>
<event>
 9 112   1.0000000E+00   7.4550000E+01   7.8125000E-03   1.3429423E-01
        2   -1    0    0  501    0  0.00000000000E+00  0.00000000000E+00  9.15162117823E+02  9.15162117823E+02  0.00000000000E+00  0.00000000000E+00  1.
       -1   -1    0    0    0  501  0.00000000000E+00  0.00000000000E+00 -6.01211438151E+01  6.01211438151E+01  0.00000000000E+00  0.00000000000E+00  1.
       25    1    1    2    0    0  6.46930635760E+01 -3.50141874683E+01  3.03977621745E+02  3.36806443407E+02  1.25000000000E+02  0.00000000000E+00  1.
        6    2    1    2  502    0 -8.24053313348E+01  5.81094481557E+01  5.69616846804E+02  6.03960913854E+02  1.73603245081E+02  0.00000000000E+00  1.
       -5    1    1    2    0  502  1.77122677589E+01 -2.30952606874E+01 -1.85534945401E+01  3.45159043780E+01  4.40913248274E-06  0.00000000000E+00  1.
        5    1    4    4  502    0 -8.28640090066E+01  7.99089428339E+01  3.29723134831E+02  3.49273232980E+02  4.75000000000E+00  0.00000000000E+00  1.
       24    2    4    4    0    0  4.58677671738E-01 -2.17994946782E+01  2.39893711972E+02  2.54687680873E+02  8.27127160192E+01  0.00000000000E+00  1.
       -1    1    7    7    0  703 -1.20367835392E+01  2.63929611831E+01  4.50309411870E+01  5.35654573599E+01  2.38418579102E-06  0.00000000000E+00  1.
        2    1    7    7  703    0  1.24954612109E+01 -4.81924558613E+01  1.94862770785E+02  2.01122223513E+02  0.00000000000E+00  0.00000000000E+00  1.
</event>
<event>
 9 112   1.0000000E+00   7.4550000E+01   7.8125000E-03   1.3429423E-01
        2   -1    0    0  501    0  0.00000000000E+00  0.00000000000E+00  2.49547147393E+03  2.49547147393E+03  0.00000000000E+00  0.00000000000E+00  1.
       -1   -1    0    0    0  501  0.00000000000E+00  0.00000000000E+00 -8.71642021164E+01  8.71642021164E+01  0.00000000000E+00  0.00000000000E+00  1.
       25    1    1    2    0    0 -3.35127593127E+01 -1.54799743737E+02  1.88665075529E+03  1.89740932277E+03  1.25000000000E+02  0.00000000000E+00  1.
        6    2    1    2  502    0  1.70059965401E+02  9.56122794002E+01  4.49009162008E+02  5.19618583099E+02  1.74161260131E+02  0.00000000000E+00  1.
       -5    1    1    2    0  502 -1.36547206089E+02  5.91874643364E+01  7.26473545168E+01  1.65607770179E+02  4.37028474327E-06  0.00000000000E+00  1.
        5    1    4    4  502    0 -8.33730868349E+00  5.79732263917E+01  1.39491947250E+02  1.51363706158E+02  4.75000000000E+00  0.00000000000E+00  1.
       24    2    4    4    0    0  1.78397274085E+02  3.76390530085E+01  3.09517214758E+02  3.68254876941E+02  8.10460513963E+01  0.00000000000E+00  1.
       -1    1    7    7    0  703  8.98956291748E+01  5.10134971487E+01  1.18090745258E+02  1.56936372941E+02  4.67203091199E-06  0.00000000000E+00  1.
        2    1    7    7  703    0  8.85016449101E+01 -1.33744441402E+01  1.91426469499E+02  2.11318504000E+02  2.69739830470E-06  0.00000000000E+00  1.
</event>
<event>
 9 112   1.0000000E+00   7.4550000E+01   7.8125000E-03   1.3429423E-01
        2   -1    0    0  501    0  0.00000000000E+00  0.00000000000E+00  2.11013191199E+03  2.11013191199E+03  0.00000000000E+00  0.00000000000E+00  1.
       -1   -1    0    0    0  501  0.00000000000E+00  0.00000000000E+00 -1.71458259583E+02  1.71458259583E+02  0.00000000000E+00  0.00000000000E+00  1.
       25    1    1    2    0    0  1.53683830746E+01 -1.81823095318E+02  2.53815591236E+02  3.36664788096E+02  1.25000000000E+02  0.00000000000E+00  1.
        6    2    1    2  502    0 -3.19928891175E+02 -2.50787672747E+02  7.72186886323E+02  8.89995123631E+02  1.74842158725E+02  0.00000000000E+00  1.
       -5    1    1    2    0  502  3.04560508100E+02  4.32610768065E+02  9.12671174845E+02  1.05493025984E+03  1.86881236479E-05  0.00000000000E+00  1.
        5    1    4    4  502    0 -5.57472577542E+01 -1.17596499173E+02  1.68868174811E+02  2.13250360677E+02  4.75000000001E+00  0.00000000000E+00  1.
       24    2    4    4    0    0 -2.64181633421E+02 -1.33191173574E+02  6.03318711511E+02  6.76744762954E+02  8.03628170895E+01  0.00000000000E+00  1.
       -1    1    7    7    0  703 -2.55405476607E+02 -1.41070254998E+02  5.55179559072E+02  6.27181885212E+02  1.07895932188E-05  0.00000000000E+00  1.
        2    1    7    7  703    0 -8.77615681389E+00  7.87908142405E+00  4.81391524392E+01  4.95628777420E+01  2.61174467805E-06  0.00000000000E+00  1.
</event>
<event>
 9 112   1.0000000E+00   7.4550000E+01   7.8125000E-03   1.3429423E-01
        2   -1    0    0  501    0  0.00000000000E+00  0.00000000000E+00  2.93054682749E+03  2.93054682749E+03  0.00000000000E+00  0.00000000000E+00  1.
       -1   -1    0    0    0  501  0.00000000000E+00  0.00000000000E+00 -5.90819675760E+01  5.90819675760E+01  0.00000000000E+00  0.00000000000E+00  1.
       25    1    1    2    0    0  6.61241848413E+01  4.06767983852E+01  1.00063578575E+03  1.01139704641E+03  1.25000000000E+02  0.00000000000E+00  1.
        6    2    1    2  502    0  2.10325182279E+02  9.70204826565E+01  5.46832579215E+02  6.18690828933E+02  1.73501630420E+02  0.00000000000E+00  1.
       -5    1    1    2    0  502 -2.76449367120E+02 -1.37697281042E+02  1.32399649494E+03  1.35954091973E+03  1.52587890625E-05  0.00000000000E+00  1.
        5    1    4    4  502    0  6.57316420417E+00  5.50677792276E+01  5.42692287104E+01  7.77391695449E+01  4.75000000000E+00  0.00000000000E+00  1.
       24    2    4    4    0    0  2.03752018074E+02  4.19527034289E+01  4.92563350505E+02  5.40951659388E+02  8.20678337658E+01  0.00000000000E+00  1.
       -1    1    7    7    0  703  5.63937439111E+01  3.05213599031E+01  7.88664622845E+01  1.01645101387E+02  5.56082906231E-06  0.00000000000E+00  1.
        2    1    7    7  703    0  1.47358274163E+02  1.14313435258E+01  4.13696888221E+02  4.39306558001E+02  0.00000000000E+00  0.00000000000E+00  1.
</event>
<event>
 9 112   1.0000000E+00   7.4550000E+01   7.8125000E-03   1.3429423E-01
        2   -1    0    0  501    0  0.00000000000E+00  0.00000000000E+00  2.20629568688E+03  2.20629568688E+03  0.00000000000E+00  0.00000000000E+00  1.
       -1   -1    0    0    0  501  0.00000000000E+00  0.00000000000E+00 -4.31509048100E+01  4.31509048100E+01  0.00000000000E+00  0.00000000000E+00  1.
       25    1    1    2    0    0  4.32059928963E+01  4.12751628270E+01  5.83903676005E+02  6.00115738621E+02  1.25000000000E+02  0.00000000000E+00  1.
        6    2    1    2  502    0  6.59556807865E+01  1.48508700293E+02  5.85993127122E+02  6.32239051226E+02  1.73012389643E+02  0.00000000000E+00  1.
       -5    1    1    2    0  502 -1.09161673683E+02 -1.89783863120E+02  9.93247978946E+02  1.01709180185E+03  1.07895932188E-05  0.00000000000E+00  1.
        5    1    4    4  502    0  7.24485178415E+01  3.81063013488E+01  3.50502377438E+02  3.59965772025E+02  4.75000000000E+00  0.00000000000E+00  1.
       24    2    4    4    0    0 -6.49283705494E+00  1.10402398945E+02  2.35490749683E+02  2.72273279200E+02  8.02869774891E+01  0.00000000000E+00  1.
      -13    1    7    7    0    0  1.74721233270E+01  1.23329994810E+01  7.04916916263E+00  2.25184351070E+01  1.05659999897E-01  0.00000000000E+00  1.
       14    1    7    7    0    0 -2.39649603819E+01  9.80693994635E+01  2.28441580521E+02  2.49754844093E+02  5.39479660939E-06  0.00000000000E+00  1.
</event>
<event>
 9 112   1.0000000E+00   7.4550000E+01   7.8125000E-03   1.3429423E-01
       -3   -1    0    0    0  501  0.00000000000E+00  0.00000000000E+00  5.87434408268E+02  5.87434408268E+02  0.00000000000E+00  0.00000000000E+00  1.
        4   -1    0    0  501    0  0.00000000000E+00  0.00000000000E+00 -1.08205538872E+02  1.08205538872E+02  0.00000000000E+00  0.00000000000E+00  1.
       25    1    1    2    0    0 -6.57528027870E+01 -1.02968605856E+02  1.27094290085E+02  2.16110905413E+02  1.25000000000E+02  0.00000000000E+00  1.
        6    2    1    2  502    0 -3.87426357854E+01  1.39361969250E+01  1.35754348615E+02  2.23274342728E+02  1.72415137214E+02  0.00000000000E+00  1.
       -5    1    1    2    0  502  1.04495438572E+02  8.90324089305E+01  2.16380230697E+02  2.56254698999E+02  4.67203091199E-06  0.00000000000E+00  1.
        5    1    4    4  502    0 -3.85744880313E+01 -6.03358830882E+01  4.60698757429E+01  8.52842650545E+01  4.75000000000E+00  0.00000000000E+00  1.
       24    2    4    4    0    0 -1.68147754144E-01  7.42720800133E+01  8.96844728719E+01  1.37990077674E+02  7.40377384785E+01  0.00000000000E+00  1.
      -15    1    7    7    0    0  3.37698833919E+01  2.74790833394E+01  5.64548400992E+01  7.13148724625E+01  1.77680000000E+00  0.00000000000E+00  1.
       16    1    7    7    0    0 -3.39380311460E+01  4.67929966739E+01  3.32296327727E+01  6.66752052115E+01  8.25906184945E-07  0.00000000000E+00  1.
</event>
<event>
 9 112   1.0000000E+00   7.4550000E+01   7.8125000E-03   1.3429423E-01
        2   -1    0    0  501    0  0.00000000000E+00  0.00000000000E+00  1.05448376102E+03  1.05448376102E+03  0.00000000000E+00  0.00000000000E+00  1.
       -1   -1    0    0    0  501  0.00000000000E+00  0.00000000000E+00 -3.29943462865E+02  3.29943462865E+02  0.00000000000E+00  0.00000000000E+00  1.
       25    1    1    2    0    0 -6.30397346737E+01  4.24062581824E+01  4.37944726479E+02  4.61728147649E+02  1.25000000000E+02  0.00000000000E+00  1.
        6    2    1    2  502    0 -8.66587160437E+01  2.56415133844E+02  4.47483760053E+02  5.51769352920E+02  1.75923987506E+02  0.00000000000E+00  1.
       -5    1    1    2    0  502  1.49698450717E+02 -2.98821392026E+02 -1.60888188378E+02  3.70929723316E+02  7.62939453125E-06  0.00000000000E+00  1.
        5    1    4    4  502    0 -5.01473964441E+01  1.17361398971E+02  3.17094370032E+02  3.41847716600E+02  4.75000000000E+00  0.00000000000E+00  1.
       24    2    4    4    0    0 -3.65113195996E+01  1.39053734872E+02  1.30389390021E+02  2.09921636320E+02  7.99792643398E+01  0.00000000000E+00  1.
       -1    1    7    7    0  703  5.18598528430E+00  1.03724064852E+02  1.10805914348E+02  1.51866805877E+02  2.69739830470E-06  0.00000000000E+00  1.
        2    1    7    7  703    0 -4.16973048839E+01  3.53296700205E+01  1.95834756731E+01  5.80548304431E+01  1.78416127528E-06  0.00000000000E+00  1.
</event>
<event>
 9 112   1.0000000E+00   7.4550000E+01   7.8125000E-03   1.3429423E-01
        2   -1    0    0  501    0  0.00000000000E+00  0.00000000000E+00  4.79012326203E+02  4.79012326203E+02  0.00000000000E+00  0.00000000000E+00  1.
       -1   -1    0    0    0  501  0.00000000000E+00  0.00000000000E+00 -2.45399753984E+02  2.45399753984E+02  0.00000000000E+00  0.00000000000E+00  1.
       25    1    1    2    0    0 -2.60702802315E+00 -9.65642136518E+01  3.77534274597E+01  1.62424644800E+02  1.25000000000E+02  0.00000000000E+00  1.
        6    2    1    2  502    0  1.35493275459E+01 -1.70096089322E+02  1.63331757133E+02  2.93127839973E+02  1.73581115906E+02  0.00000000000E+00  1.
       -5    1    1    2    0  502 -1.09422995227E+01  2.66660302974E+02  3.25273876263E+01  2.68859595415E+02  5.24520874023E-06  0.00000000000E+00  1.
        5    1    4    4  502    0 -5.49715975377E+01 -6.91010686589E+01  8.64136042680E+01  1.23639426269E+02  4.75000000000E+00  0.00000000000E+00  1.
       24    2    4    4    0    0  6.85209250836E+01 -1.00995020663E+02  7.69181528653E+01  1.69488413703E+02  8.89652109891E+01  0.00000000000E+00  1.
       -1    1    7    7    0  703  5.06327554996E+01 -6.16218012364E+01  9.37471559425E+01  1.23083108363E+02  0.00000000000E+00  0.00000000000E+00  1.
        2    1    7    7  703    0  1.78881695840E+01 -3.93732194269E+01 -1.68290030772E+01  4.64053053398E+01  5.33120149970E-07  0.00000000000E+00  1.
</event>
</LesHouchesEvents>
