<LesHouchesEvents version="1.0">
<!--
Output from the JHUGenerator v7.5.1 described in arXiv:1001.3396 , arXiv:1208.4018 , arXiv:1309.4819 , arXiv:1606.03107 , arXiv:2002.09888 , arXiv:2104.04277, arXiv:2109.13363
   
   Command line: ./JHUGen Seed=765543533 PDFSet=3 Process=110 VegasNc0=100000 VegasNc2=100 DataFile=compare_to_reference/tqH_110 TopDK=1 DecayMode1=11 ghg2=0.383432074687728,0.918260989345657 ghg3=6294.49296087723,2253.12941717723 ghg4=0.335495485382528,0.17285803562226 ghz1=0.154934976270359,0.453918144016304 ghz2=0.469297059144414,0.745302300947002 ghz3=3947.40921062637,3597.4885961919 ghz4=0.177791270766536,0.920170534486048 ghzgs2=0.0240331049939919,0.232175381101053 ghzgs3=0.331962910170583,0.0450183240308457 ghzgs4=0.808286540247172,0.133184346613754 ghgsgs2=0.530394804029869,0.211218112389125 ghgsgs3=0.914978695198138,0.055650585081425 ghgsgs4=0.694524307167701,0.511424456076726 ghz1_prime=0.143354267833606,0.0910761280837012 ghz1_prime2=7416.7007267243,4861.35525489789 ghz1_prime3=4431.44656075298,4436.48625894176 ghz1_prime4=2441.69123517064,6946.16318931911 ghz1_prime5=78314042.889773,69465359.939181 ghz1_prime6=51233058.8130761,29537873.5850789 ghz1_prime7=47832192.9001564,59559649.9633293 g
   
   Input Parameter:
    Collider: P-P, sqrt(s)=13000.00
    Resonance: spin=0, mass= 125.00 width=   0.00407
    DecayMode1:11
    W boson: mass=80.399, width=2.0850
    Top quark mass=173.2000, width=2.0000
    Top quark decay= 1
    Random seed:   765543533
    To reproduce results using this seed, JHUGen should be compiled with the same compiler:
      GNU Fortran (GCC) 6.3.0
    
    WidthScheme:   2
    PDFSet:   3
    Unweighted: T
    
    
    LHE output: compare_to_reference/tqH_110.lhe
    Histogram output: compare_to_reference/tqH_110.dat
    Log file: compare_to_reference/tqH_110.log
    
-->
<init>
2212 2212   6500.0000000000000000    6500.0000000000000000 0 0  263000  263000  3  1
 1.4507592E+04  3.5588254E+03  1.0000000E+00 110
</init>
<event>
 9 110   1.0000000E+00   7.4550000E+01   7.8125000E-03   1.3429423E-01
       -1   -1    0    0    0  502  0.00000000000E+00  0.00000000000E+00  1.58664880979E+03  1.58664880979E+03  0.00000000000E+00  0.00000000000E+00  1.
        5   -1    0    0  501    0  0.00000000000E+00  0.00000000000E+00 -1.14987095434E+03  1.14987095434E+03  0.00000000000E+00  0.00000000000E+00  1.
       25    1    1    2    0    0 -4.56428934611E+02 -4.20783021605E+02 -9.32686833509E+02  1.12734886039E+03  1.25000000000E+02  0.00000000000E+00  1.
        6    2    1    2  501    0  5.33529689030E+02  3.58945038772E+02  8.47981625921E+02  1.07840443203E+03  1.74321000438E+02  0.00000000000E+00  1.
       -2    1    1    2    0  502 -7.71007544190E+01  6.18379828332E+01  5.21483063033E+02  5.30766471702E+02  7.62939453125E-06  0.00000000000E+00  1.
        5    1    4    4  501    0  1.25709865150E+02  5.23792127215E+01  2.69234803816E+02  3.01755686289E+02  4.75000000000E+00  0.00000000000E+00  1.
       24    2    4    4    0    0  4.07819823880E+02  3.06565826051E+02  5.78746822105E+02  7.76648745745E+02  8.90829709827E+01  0.00000000000E+00  1.
       -1    1    7    7    0  703  3.44002541221E+02  2.94409684785E+02  5.12469863381E+02  6.83842212602E+02  1.07895932188E-05  0.00000000000E+00  1.
        2    1    7    7  703    0  6.38172826592E+01  1.21561412656E+01  6.62769587234E+01  9.28065331434E+01  1.11216581246E-05  0.00000000000E+00  1.
</event>
<event>
 9 110   1.0000000E+00   7.4550000E+01   7.8125000E-03   1.3429423E-01
        5   -1    0    0  501    0  0.00000000000E+00  0.00000000000E+00  4.22714875423E+02  4.22714875423E+02  0.00000000000E+00  0.00000000000E+00  1.
        2   -1    0    0  502    0  0.00000000000E+00  0.00000000000E+00 -1.07024295169E+03  1.07024295169E+03  0.00000000000E+00  0.00000000000E+00  1.
       25    1    1    2    0    0  2.36578499725E+02 -9.59146005310E+00  3.36776344570E+02  4.30237944514E+02  1.25000000000E+02  0.00000000000E+00  1.
        6    2    1    2  501    0 -2.16961222874E+02 -9.07240223792E+01 -6.39996185859E+02  7.03559480772E+02  1.73487188584E+02  0.00000000000E+00  1.
        1    1    1    2  502    0 -1.96172768502E+01  1.00315482432E+02 -3.44308234977E+02  3.59160401826E+02  5.39479660939E-06  0.00000000000E+00  1.
        5    1    4    4  501    0  2.00137077090E+01 -2.20143888951E+01 -4.18938636305E+01  5.16027143140E+01  4.74999999999E+00  0.00000000000E+00  1.
       24    2    4    4    0    0 -2.36974930583E+02 -6.87096334841E+01 -5.98102322228E+02  6.51956766458E+02  8.02689604841E+01  0.00000000000E+00  1.
       -1    1    7    7    0  703 -1.25054591158E+02  3.95534699189E+00 -2.62291370175E+02  2.90604642784E+02  6.60724947956E-06  0.00000000000E+00  1.
        2    1    7    7  703    0 -1.11920339425E+02 -7.26649804760E+01 -3.35810952054E+02  3.61352123674E+02  6.60724947956E-06  0.00000000000E+00  1.
</event>
<event>
 9 110   1.0000000E+00   7.4550000E+01   7.8125000E-03   1.3429423E-01
        2   -1    0    0  502    0  0.00000000000E+00  0.00000000000E+00  7.39830311388E+02  7.39830311388E+02  0.00000000000E+00  0.00000000000E+00  1.
        5   -1    0    0  501    0  0.00000000000E+00  0.00000000000E+00 -8.99047431834E+02  8.99047431834E+02  0.00000000000E+00  0.00000000000E+00  1.
       25    1    1    2    0    0  3.36597728778E+02 -4.24994476322E+02 -4.67282399476E+02  7.26564640471E+02  1.25000000000E+02  0.00000000000E+00  1.
        6    2    1    2  501    0 -3.86632415743E+02  4.93885392120E+02  6.46106816312E+01  6.54399223378E+02  1.75089685373E+02  0.00000000000E+00  1.
        1    1    1    2  502    0  5.00346869646E+01 -6.88909157978E+01  2.43454597398E+02  2.57913879373E+02  5.39479660939E-06  0.00000000000E+00  1.
        5    1    4    4  501    0 -1.76447545269E+02  1.37422648233E+02  6.65010768310E+01  2.33374540596E+02  4.75000000000E+00  0.00000000000E+00  1.
       24    2    4    4    0    0 -2.10184870474E+02  3.56462743887E+02 -1.89039519988E+00  4.21024682782E+02  7.75554147815E+01  0.00000000000E+00  1.
       -3    1    7    7    0  703 -1.44970973166E+02  1.71333281850E+02  6.97546882395E+00  2.24544725379E+02  2.87958915929E-06  0.00000000000E+00  1.
        2    1    7    7  703    0 -6.52138973085E+01  1.85129462037E+02 -8.86586402383E+00  1.96479957403E+02  1.60379696453E-06  0.00000000000E+00  1.
</event>
<event>
 9 110   1.0000000E+00   7.4550000E+01   7.8125000E-03   1.3429423E-01
        5   -1    0    0  501    0  0.00000000000E+00  0.00000000000E+00  5.64246893600E+02  5.64246893600E+02  0.00000000000E+00  0.00000000000E+00  1.
        2   -1    0    0  502    0  0.00000000000E+00  0.00000000000E+00 -1.28481613780E+03  1.28481613780E+03  0.00000000000E+00  0.00000000000E+00  1.
       25    1    1    2    0    0 -7.09452060478E+01  4.28865348555E+02  2.86736693861E+02  5.35538645719E+02  1.25000000000E+02  0.00000000000E+00  1.
        6    2    1    2  501    0  2.16408063323E+02 -5.47865380505E+02 -5.70279456811E+02  8.37801151264E+02  1.72346120268E+02  0.00000000000E+00  1.
        1    1    1    2  502    0 -1.45462857275E+02  1.19000031950E+02 -4.37026481254E+02  4.75723234421E+02  5.39479660939E-06  0.00000000000E+00  1.
        5    1    4    4  501    0  1.77086581750E+02 -2.92650533545E+02 -2.92319503857E+02  4.49974718240E+02  4.75000000001E+00  0.00000000000E+00  1.
       24    2    4    4    0    0  3.93214815733E+01 -2.55214846960E+02 -2.77959952955E+02  3.87826433025E+02  8.04164764453E+01  0.00000000000E+00  1.
       -1    1    7    7    0  703  3.23289431542E+01 -6.06271860397E+01 -3.70299386045E+01  7.80514740771E+01  2.97784709854E-06  0.00000000000E+00  1.
        2    1    7    7  703    0  6.99253841910E+00 -1.94587660921E+02 -2.40930014350E+02  3.09774958947E+02  3.81469726562E-06  0.00000000000E+00  1.
</event>
<event>
 9 110   1.0000000E+00   7.4550000E+01   7.8125000E-03   1.3429423E-01
        5   -1    0    0  501    0  0.00000000000E+00  0.00000000000E+00  4.27851801109E+02  4.27851801109E+02  0.00000000000E+00  0.00000000000E+00  1.
        2   -1    0    0  502    0  0.00000000000E+00  0.00000000000E+00 -3.16711437294E+03  3.16711437294E+03  0.00000000000E+00  0.00000000000E+00  1.
       25    1    1    2    0    0 -5.97997069347E+02  3.61836900561E+02 -5.06371818996E+01  7.11839561802E+02  1.25000000000E+02  0.00000000000E+00  1.
        6    2    1    2  501    0  6.11220652629E+02 -3.16508416817E+02 -1.20348892512E+03  1.39723972095E+03  1.73565494310E+02  0.00000000000E+00  1.
        1    1    1    2  502    0 -1.32235832817E+01 -4.53284837440E+01 -1.48513646482E+03  1.48588689130E+03  2.15791864376E-05  0.00000000000E+00  1.
        5    1    4    4  501    0  1.27000448763E+02 -9.47665348833E+01 -3.96884177858E+02  4.27375038174E+02  4.74999999998E+00  0.00000000000E+00  1.
       24    2    4    4    0    0  4.84220203866E+02 -2.21741881934E+02 -8.06604747259E+02  9.69864682781E+02  7.99225660729E+01  0.00000000000E+00  1.
       -3    1    7    7    0  703  1.30160739989E+02 -2.60521528845E+01 -2.28838806405E+02  2.64551946168E+02  8.94625808682E-06  0.00000000000E+00  1.
        4    1    7    7  703    0  3.54059463877E+02 -1.95689729050E+02 -5.77765940855E+02  7.05312736613E+02  0.00000000000E+00  0.00000000000E+00  1.
</event>
<event>
 9 110   1.0000000E+00   7.4550000E+01   7.8125000E-03   1.3429423E-01
        2   -1    0    0  502    0  0.00000000000E+00  0.00000000000E+00  1.61900308262E+03  1.61900308262E+03  0.00000000000E+00  0.00000000000E+00  1.
        5   -1    0    0  501    0  0.00000000000E+00  0.00000000000E+00 -6.06313372734E+02  6.06313372734E+02  0.00000000000E+00  0.00000000000E+00  1.
       25    1    1    2    0    0 -5.70127206200E+02  1.49791447511E+02 -3.13105375778E+02  6.79074727359E+02  1.25000000000E+02  0.00000000000E+00  1.
        6    2    1    2  501    0  5.65718185564E+02 -1.23615964076E+02  7.21719155689E+02  9.41582878253E+02  1.74303771841E+02  0.00000000000E+00  1.
        1    1    1    2  502    0  4.40902063587E+00 -2.61754834349E+01  6.04075929974E+02  6.04658849741E+02  7.62939453125E-06  0.00000000000E+00  1.
        5    1    4    4  501    0  1.56930985411E+02  3.23253095034E+01  2.06244044913E+02  2.61211462954E+02  4.74999999999E+00  0.00000000000E+00  1.
       24    2    4    4    0    0  4.08787200153E+02 -1.55941273580E+02  5.15475110776E+02  6.80371415299E+02  7.59342946989E+01  0.00000000000E+00  1.
       -3    1    7    7    0  703  3.29950143204E+02 -9.49201310924E+01  4.18230551585E+02  5.41104169792E+02  7.62939453125E-06  0.00000000000E+00  1.
        4    1    7    7  703    0  7.88370569484E+01 -6.10211424871E+01  9.72445591909E+01  1.39267245506E+02  8.42262350686E-06  0.00000000000E+00  1.
</event>
<event>
 9 110   1.0000000E+00   7.4550000E+01   7.8125000E-03   1.3429423E-01
        2   -1    0    0  502    0  0.00000000000E+00  0.00000000000E+00  3.30823059240E+03  3.30823059240E+03  0.00000000000E+00  0.00000000000E+00  1.
        5   -1    0    0  501    0  0.00000000000E+00  0.00000000000E+00 -1.53956768554E+02  1.53956768554E+02  0.00000000000E+00  0.00000000000E+00  1.
       25    1    1    2    0    0  4.16578740429E+00 -1.24340689092E+02 -9.48589254041E+01  2.00252781447E+02  1.25000000000E+02  0.00000000000E+00  1.
        6    2    1    2  501    0 -3.02914404640E+01  1.39362051361E+02  2.11270632708E+03  2.12510864556E+03  1.79497571710E+02  0.00000000000E+00  1.
        1    1    1    2  502    0  2.61256530597E+01 -1.50213622689E+01  1.13642642217E+03  1.13682593394E+03  2.15791864376E-05  0.00000000000E+00  1.
        5    1    4    4  501    0 -8.74049090541E+00 -3.18116281290E+01  5.36423272440E+02  5.37457780278E+02  4.75000000001E+00  0.00000000000E+00  1.
       24    2    4    4    0    0 -2.15509495586E+01  1.71173679490E+02  1.57628305464E+03  1.58765086529E+03  7.87536013706E+01  0.00000000000E+00  1.
       -1    1    7    7    0  703 -1.37877894653E+01 -2.74965220007E+00  1.81658588990E+02  1.82201829518E+02  1.14440917969E-05  0.00000000000E+00  1.
        2    1    7    7  703    0 -7.76316009324E+00  1.73923331690E+02  1.39462446565E+03  1.40544903577E+03  1.52587890625E-05  0.00000000000E+00  1.
</event>
<event>
 9 110   1.0000000E+00   7.4550000E+01   7.8125000E-03   1.3429423E-01
        5   -1    0    0  501    0  0.00000000000E+00  0.00000000000E+00  1.75144080333E+03  1.75144080333E+03  0.00000000000E+00  0.00000000000E+00  1.
        2   -1    0    0  502    0  0.00000000000E+00  0.00000000000E+00 -2.47397647553E+03  2.47397647553E+03  0.00000000000E+00  0.00000000000E+00  1.
       25    1    1    2    0    0 -7.70309300253E+02  1.53790504853E+02  1.36738824877E+03  1.58189871999E+03  1.25000000000E+02  0.00000000000E+00  1.
        6    2    1    2  501    0  8.04669188724E+02 -8.45825355160E+01 -3.43770459168E+02  8.95656362616E+02  1.71392773193E+02  0.00000000000E+00  1.
        1    1    1    2  502    0 -3.43598884710E+01 -6.92079693366E+01 -1.74615346180E+03  1.74786219625E+03  3.73762472959E-05  0.00000000000E+00  1.
        5    1    4    4  501    0  4.58306396668E+02 -8.73636070791E+01 -1.47658808487E+02  4.89390272986E+02  4.75000000001E+00  0.00000000000E+00  1.
       24    2    4    4    0    0  3.46362792055E+02  2.78107156302E+00 -1.96111650681E+02  4.06266089631E+02  8.13476365466E+01  0.00000000000E+00  1.
       -1    1    7    7    0  703  3.20003420138E+02  3.53687622547E+00 -1.50648077844E+02  3.53708272100E+02  4.26496119976E-06  0.00000000000E+00  1.
        2    1    7    7  703    0  2.63593719168E+01 -7.55804662451E-01 -4.54635728365E+01  5.25578175308E+01  4.72044703322E-06  0.00000000000E+00  1.
</event>
<event>
 9 110   1.0000000E+00   7.4550000E+01   7.8125000E-03   1.3429423E-01
        2   -1    0    0  502    0  0.00000000000E+00  0.00000000000E+00  3.39020129245E+03  3.39020129245E+03  0.00000000000E+00  0.00000000000E+00  1.
        5   -1    0    0  501    0  0.00000000000E+00  0.00000000000E+00 -1.70117906840E+02  1.70117906840E+02  0.00000000000E+00  0.00000000000E+00  1.
       25    1    1    2    0    0 -1.80083033318E+02 -4.11308163818E+02  2.24000690294E+02  5.17112766971E+02  1.25000000000E+02  0.00000000000E+00  1.
        6    2    1    2  501    0  2.18919620805E+02  4.00905959550E+02  2.63281776399E+03  2.67772333187E+03  1.72688954150E+02  0.00000000000E+00  1.
        1    1    1    2  502    0 -3.88365874868E+01  1.04022042683E+01  3.63264931328E+02  3.65483100449E+02  1.20631319434E-05  0.00000000000E+00  1.
        5    1    4    4  501    0  7.20724720969E+01  2.36370517313E+02  1.54476854470E+03  1.56441614729E+03  4.75000000010E+00  0.00000000000E+00  1.
       24    2    4    4    0    0  1.46847148708E+02  1.64535442237E+02  1.08804921928E+03  1.11330718458E+03  8.34612893363E+01  0.00000000000E+00  1.
      -15    1    7    7    0    0  2.87301924371E+01  6.36487604235E+00  2.77663323216E+02  2.79223948976E+02  1.77680000005E+00  0.00000000000E+00  1.
       16    1    7    7    0    0  1.18116956271E+02  1.58170566195E+02  8.10385896067E+02  8.34083235602E+02  1.07895932188E-05  0.00000000000E+00  1.
</event>
<event>
 9 110   1.0000000E+00   7.4550000E+01   7.8125000E-03   1.3429423E-01
        2   -1    0    0  502    0  0.00000000000E+00  0.00000000000E+00  6.47162424540E+02  6.47162424540E+02  0.00000000000E+00  0.00000000000E+00  1.
        5   -1    0    0  501    0  0.00000000000E+00  0.00000000000E+00 -7.66451030092E+02  7.66451030092E+02  0.00000000000E+00  0.00000000000E+00  1.
       25    1    1    2    0    0  2.24528135304E+02  2.73523186078E+01 -6.88349804607E+02  7.35262868897E+02  1.25000000000E+02  0.00000000000E+00  1.
        6    2    1    2  501    0 -2.33943412133E+02 -2.73840032197E+01  3.37702163048E+02  4.46800047010E+02  1.73516936833E+02  0.00000000000E+00  1.
        1    1    1    2  502    0  9.41527682809E+00  3.16846118891E-02  2.31359036007E+02  2.31550538725E+02  0.00000000000E+00  0.00000000000E+00  1.
        5    1    4    4  501    0 -2.81667917418E+01  2.79152754134E+01  2.53717749781E-01  3.99406763980E+01  4.75000000000E+00  0.00000000000E+00  1.
       24    2    4    4    0    0 -2.05776620391E+02 -5.52992786331E+01  3.37448445299E+02  4.06859370612E+02  7.91269012627E+01  0.00000000000E+00  1.
      -13    1    7    7    0    0 -1.09239914076E+02 -1.71566017185E+01  2.41043292955E+02  2.65197262528E+02  1.05659999987E-01  0.00000000000E+00  1.
       14    1    7    7    0    0 -9.65367063145E+01 -3.81426769146E+01  9.64051523437E+01  1.41662108084E+02  3.30362473978E-06  0.00000000000E+00  1.
</event>
<event>
 9 110   1.0000000E+00   7.4550000E+01   7.8125000E-03   1.3429423E-01
        5   -1    0    0  501    0  0.00000000000E+00  0.00000000000E+00  2.74600604747E+02  2.74600604747E+02  0.00000000000E+00  0.00000000000E+00  1.
        2   -1    0    0  502    0  0.00000000000E+00  0.00000000000E+00 -3.27496084999E+03  3.27496084999E+03  0.00000000000E+00  0.00000000000E+00  1.
       25    1    1    2    0    0 -4.11760227885E+02  4.65591991419E+02 -1.86996703669E+02  6.60995578597E+02  1.25000000000E+02  0.00000000000E+00  1.
        6    2    1    2  501    0  3.98387027598E+02 -4.30123044871E+02 -2.54109999999E+03  2.61367621695E+03  1.74344772232E+02  0.00000000000E+00  1.
        1    1    1    2  502    0  1.33732002874E+01 -3.54689465478E+01 -2.72263541586E+02  2.74889659194E+02  6.60724947956E-06  0.00000000000E+00  1.
        5    1    4    4  501    0  4.67862047378E+01 -8.10738309425E+01 -6.43872393911E+02  6.50658233759E+02  4.75000000014E+00  0.00000000000E+00  1.
       24    2    4    4    0    0  3.51600822860E+02 -3.49049213929E+02 -1.89722760608E+03  1.96301798319E+03  9.22416428567E+01  0.00000000000E+00  1.
       -3    1    7    7    0  703  3.01218718389E+02 -3.37237680142E+02 -1.70865928465E+03  1.76747801125E+03  3.05175781250E-05  0.00000000000E+00  1.
        4    1    7    7  703    0  5.03821044709E+01 -1.18115337867E+01 -1.88568321425E+02  1.95539971940E+02  2.00044412264E-05  0.00000000000E+00  1.
</event>
<event>
 9 110   1.0000000E+00   7.4550000E+01   7.8125000E-03   1.3429423E-01
        5   -1    0    0  501    0  0.00000000000E+00  0.00000000000E+00  8.64412083246E+02  8.64412083246E+02  0.00000000000E+00  0.00000000000E+00  1.
        2   -1    0    0  502    0  0.00000000000E+00  0.00000000000E+00 -2.89813365695E+03  2.89813365695E+03  0.00000000000E+00  0.00000000000E+00  1.
       25    1    1    2    0    0  7.24025776256E+02 -7.21120943366E+02  2.90231263775E+02  1.06962045891E+03  1.25000000000E+02  0.00000000000E+00  1.
        6    2    1    2  501    0 -7.65186221105E+02  6.96107516177E+02 -1.31301210036E+03  1.68083782077E+03  1.76463528818E+02  0.00000000000E+00  1.
        1    1    1    2  502    0  4.11604448491E+01  2.50134271893E+01 -1.01094073712E+03  1.01208746052E+03  2.15791864376E-05  0.00000000000E+00  1.
        5    1    4    4  501    0 -3.11034752939E+02  2.04744498795E+02 -4.05086758437E+02  5.50255187784E+02  4.75000000000E+00  0.00000000000E+00  1.
       24    2    4    4    0    0 -4.54151468167E+02  4.91363017382E+02 -9.07925341924E+02  1.13058263299E+03  7.87241552633E+01  0.00000000000E+00  1.
       -1    1    7    7    0  703 -6.68641846304E+01  8.34406808483E+01 -1.95927692488E+02  2.23205795378E+02  6.03156597170E-06  0.00000000000E+00  1.
        2    1    7    7  703    0 -3.87287283536E+02  4.07922336534E+02 -7.11997649436E+02  9.07376837612E+02  1.32144989591E-05  0.00000000000E+00  1.
</event>
<event>
 9 110   1.0000000E+00   7.4550000E+01   7.8125000E-03   1.3429423E-01
        5   -1    0    0  501    0  0.00000000000E+00  0.00000000000E+00  1.21337695174E+03  1.21337695174E+03  0.00000000000E+00  0.00000000000E+00  1.
       -1   -1    0    0    0  502  0.00000000000E+00  0.00000000000E+00 -8.29785822510E+02  8.29785822510E+02  0.00000000000E+00  0.00000000000E+00  1.
       25    1    1    2    0    0  3.38546865909E+02 -2.27370886526E+02  1.02390715694E+03  1.10919897515E+03  1.25000000000E+02  0.00000000000E+00  1.
        6    2    1    2  501    0 -4.05195766590E+02  1.02332802096E+00 -3.74898466108E+02  5.78827522145E+02  1.74091309489E+02  0.00000000000E+00  1.
       -2    1    1    2    0  502  6.66489006813E+01  2.26347558505E+02 -2.65417561598E+02  3.55136276953E+02  5.39479660939E-06  0.00000000000E+00  1.
        5    1    4    4  501    0 -7.98296025817E+01 -4.24220726795E+01 -1.41258526366E+02  1.67776432999E+02  4.75000000000E+00  0.00000000000E+00  1.
       24    2    4    4    0    0 -3.25366164008E+02  4.34454007004E+01 -2.33639939742E+02  4.11051089146E+02  8.13924623174E+01  0.00000000000E+00  1.
       -3    1    7    7    0  703 -1.24339536715E+02  4.63533744539E+01 -6.09835349019E+01  1.46040909484E+02  9.53674316406E-07  0.00000000000E+00  1.
        4    1    7    7  703    0 -2.01026627293E+02 -2.90797375342E+00 -1.72656404840E+02  2.65010179662E+02  1.90734863281E-06  0.00000000000E+00  1.
</event>
<event>
 9 110   1.0000000E+00   7.4550000E+01   7.8125000E-03   1.3429423E-01
        2   -1    0    0  502    0  0.00000000000E+00  0.00000000000E+00  2.24763369498E+03  2.24763369498E+03  0.00000000000E+00  0.00000000000E+00  1.
        5   -1    0    0  501    0  0.00000000000E+00  0.00000000000E+00 -1.46777668626E+03  1.46777668626E+03  0.00000000000E+00  0.00000000000E+00  1.
       25    1    1    2    0    0 -1.00766511738E+02  4.53852657090E+02 -1.18440033487E+03  1.27850118399E+03  1.25000000000E+02  0.00000000000E+00  1.
        6    2    1    2  501    0  1.54019395816E+02 -5.04539982856E+02  9.07749329907E+01  5.61984820772E+02  1.71184934299E+02  0.00000000000E+00  1.
        1    1    1    2  502    0 -5.32528840774E+01  5.06873257659E+01  1.87348241060E+03  1.87492437647E+03  2.15791864376E-05  0.00000000000E+00  1.
        5    1    4    4  501    0  1.06601261353E+02 -3.77245231160E+02  8.66158620105E+01  4.01500514827E+02  4.75000000000E+00  0.00000000000E+00  1.
       24    2    4    4    0    0  4.74181344625E+01 -1.27294751696E+02  4.15907098020E+00  1.60484305945E+02  8.53550308876E+01  0.00000000000E+00  1.
      -13    1    7    7    0    0  4.27226681200E+01 -1.40267756094E+02  3.48116912461E+00  1.46671058745E+02  1.05659999967E-01  0.00000000000E+00  1.
       14    1    7    7    0    0  4.69546634250E+00  1.29730043976E+01  6.77901855589E-01  1.38132471997E+01  2.20313050938E-06  0.00000000000E+00  1.
</event>
<event>
 9 110   1.0000000E+00   7.4550000E+01   7.8125000E-03   1.3429423E-01
        5   -1    0    0  501    0  0.00000000000E+00  0.00000000000E+00  6.98277639456E+02  6.98277639456E+02  0.00000000000E+00  0.00000000000E+00  1.
        2   -1    0    0  502    0  0.00000000000E+00  0.00000000000E+00 -1.36969528851E+03  1.36969528851E+03  0.00000000000E+00  0.00000000000E+00  1.
       25    1    1    2    0    0 -7.18094497155E+02 -3.77322429558E+02  5.46447287028E+01  8.22583107696E+02  1.25000000000E+02  0.00000000000E+00  1.
        6    2    1    2  501    0  7.02623973986E+02  3.63607619614E+02 -3.72737547580E+02  8.91460634247E+02  1.72852055746E+02  0.00000000000E+00  1.
        1    1    1    2  502    0  1.54705231689E+01  1.37148099438E+01 -3.53324830181E+02  3.53929186026E+02  1.00927402918E-05  0.00000000000E+00  1.
        5    1    4    4  501    0  1.25308557122E+02  1.04781956863E+02 -2.67170638070E+01  1.65583383739E+02  4.75000000000E+00  0.00000000000E+00  1.
       24    2    4    4    0    0  5.77315416863E+02  2.58825662751E+02 -3.46020483773E+02  7.25877250508E+02  8.29686288172E+01  0.00000000000E+00  1.
       -1    1    7    7    0  703  5.54124922919E+02  2.58375989027E+02 -3.16904234501E+02  6.88651490778E+02  7.62939453125E-06  0.00000000000E+00  1.
        2    1    7    7  703    0  2.31904939440E+01  4.49673724225E-01 -2.91162492712E+01  3.72257597296E+01  5.99375013827E-06  0.00000000000E+00  1.
</event>
<event>
 9 110   1.0000000E+00   7.4550000E+01   7.8125000E-03   1.3429423E-01
        2   -1    0    0  502    0  0.00000000000E+00  0.00000000000E+00  1.15824232812E+03  1.15824232812E+03  0.00000000000E+00  0.00000000000E+00  1.
        5   -1    0    0  501    0  0.00000000000E+00  0.00000000000E+00 -5.00821754467E+02  5.00821754467E+02  0.00000000000E+00  0.00000000000E+00  1.
       25    1    1    2    0    0 -4.70564385100E+02  2.97945306939E+02 -1.91961447033E+02  6.02226239546E+02  1.25000000000E+02  0.00000000000E+00  1.
        6    2    1    2  501    0  4.15888220880E+02 -2.37029096714E+02  5.63479798885E+02  7.59448623275E+02  1.73513465434E+02  0.00000000000E+00  1.
        1    1    1    2  502    0  5.46761642201E+01 -6.09162102246E+01  2.85902221799E+02  2.97389219764E+02  3.81469726562E-06  0.00000000000E+00  1.
        5    1    4    4  501    0  2.28199521580E+02 -7.39668974007E+01  3.35449915575E+02  4.12426153293E+02  4.75000000000E+00  0.00000000000E+00  1.
       24    2    4    4    0    0  1.87688699300E+02 -1.63062199313E+02  2.28029883310E+02  3.47022469982E+02  8.13058318972E+01  0.00000000000E+00  1.
       -1    1    7    7    0  703  8.47687855140E+01 -4.39082712209E+01  1.30936300022E+02  1.62043197767E+02  1.90734863281E-06  0.00000000000E+00  1.
        2    1    7    7  703    0  1.02919913786E+02 -1.19153928092E+02  9.70935832876E+01  1.84979272215E+02  1.34869915235E-06  0.00000000000E+00  1.
</event>
<event>
 9 110   1.0000000E+00   7.4550000E+01   7.8125000E-03   1.3429423E-01
        5   -1    0    0  501    0  0.00000000000E+00  0.00000000000E+00  1.11497322736E+03  1.11497322736E+03  0.00000000000E+00  0.00000000000E+00  1.
        2   -1    0    0  502    0  0.00000000000E+00  0.00000000000E+00 -1.87023232255E+03  1.87023232255E+03  0.00000000000E+00  0.00000000000E+00  1.
       25    1    1    2    0    0 -4.02333847712E+02 -4.30926580498E+02  8.86119398453E+02  1.07163558690E+03  1.25000000000E+02  0.00000000000E+00  1.
        6    2    1    2  501    0  3.13893380483E+02  4.85141356756E+02 -5.46707613138E+02  8.13994911068E+02  1.72647938408E+02  0.00000000000E+00  1.
        1    1    1    2  502    0  8.84404672293E+01 -5.42147762577E+01 -1.09467088051E+03  1.09957505193E+03  2.15791864376E-05  0.00000000000E+00  1.
        5    1    4    4  501    0  7.49489315322E+01  3.86724996171E+01 -4.19207692466E+01  9.43017388953E+01  4.75000000000E+00  0.00000000000E+00  1.
       24    2    4    4    0    0  2.38944448950E+02  4.46468857138E+02 -5.04786843892E+02  7.19693172173E+02  8.19732531240E+01  0.00000000000E+00  1.
       -1    1    7    7    0  703  1.93486515272E+02  2.87487344706E+02 -3.19382947446E+02  4.71265818915E+02  3.81469726562E-06  0.00000000000E+00  1.
        2    1    7    7  703    0  4.54579336781E+01  1.58981512432E+02 -1.85403896446E+02  2.48427353258E+02  0.00000000000E+00  0.00000000000E+00  1.
</event>
<event>
 9 110   1.0000000E+00   7.4550000E+01   7.8125000E-03   1.3429423E-01
        5   -1    0    0  501    0  0.00000000000E+00  0.00000000000E+00  7.23948582700E+02  7.23948582700E+02  0.00000000000E+00  0.00000000000E+00  1.
        2   -1    0    0  502    0  0.00000000000E+00  0.00000000000E+00 -2.94823461640E+03  2.94823461640E+03  0.00000000000E+00  0.00000000000E+00  1.
       25    1    1    2    0    0  5.01094951906E+02 -8.22108902583E+01  5.40631498952E+02  7.52171655250E+02  1.25000000000E+02  0.00000000000E+00  1.
        6    2    1    2  501    0 -5.52632244991E+02  1.57159795734E+02 -1.10135584793E+03  1.25396505294E+03  1.71295214803E+02  0.00000000000E+00  1.
        1    1    1    2  502    0  5.15372930858E+01 -7.49489054754E+01 -1.66356168472E+03  1.66604649091E+03  2.15791864376E-05  0.00000000000E+00  1.
        5    1    4    4  501    0 -2.07300256839E+01  4.44987620914E+01 -8.67177485190E+01  9.97617371578E+01  4.74999999999E+00  0.00000000000E+00  1.
       24    2    4    4    0    0 -5.31902219307E+02  1.12661033642E+02 -1.01463809941E+03  1.15420331578E+03  8.41566513728E+01  0.00000000000E+00  1.
      -15    1    7    7    0    0 -2.10807941506E+02  6.97502872555E+01 -3.44353262484E+02  4.09740670639E+02  1.77680000001E+00  0.00000000000E+00  1.
       16    1    7    7    0    0 -3.21094277801E+02  4.29107463868E+01 -6.70284836928E+02  7.44462645139E+02  1.07895932188E-05  0.00000000000E+00  1.
</event>
<event>
 9 110   1.0000000E+00   7.4550000E+01   7.8125000E-03   1.3429423E-01
        5   -1    0    0  501    0  0.00000000000E+00  0.00000000000E+00  1.02054590543E+03  1.02054590543E+03  0.00000000000E+00  0.00000000000E+00  1.
       -1   -1    0    0    0  502  0.00000000000E+00  0.00000000000E+00 -1.00345417443E+03  1.00345417443E+03  0.00000000000E+00  0.00000000000E+00  1.
       25    1    1    2    0    0 -5.19002170856E+02 -3.38435390981E+02  5.70306401294E+02  8.51337863941E+02  1.25000000000E+02  0.00000000000E+00  1.
        6    2    1    2  501    0  5.93116983222E+02  3.74268280854E+02 -1.20664406808E+02  7.32347860194E+02  1.72942150505E+02  0.00000000000E+00  1.
       -2    1    1    2    0  502 -7.41148123658E+01 -3.58328898732E+01 -4.32550263493E+02  4.40314355724E+02  7.62939453125E-06  0.00000000000E+00  1.
        5    1    4    4  501    0  4.52359362063E+02  2.77204887521E+02 -1.19625640012E+02  5.43879029160E+02  4.74999999998E+00  0.00000000000E+00  1.
       24    2    4    4    0    0  1.40757621159E+02  9.70633933336E+01 -1.03876679618E+00  1.88468831035E+02  7.92805839749E+01  0.00000000000E+00  1.
      -15    1    7    7    0    0  1.07885673925E+02  3.59293774993E+01 -2.22658033130E+01  1.15884260455E+02  1.77680000000E+00  0.00000000000E+00  1.
       16    1    7    7    0    0  3.28719472337E+01  6.11340158343E+01  2.12270365169E+01  7.25845705798E+01  7.53945746462E-07  0.00000000000E+00  1.
</event>
<event>
 9 110   1.0000000E+00   7.4550000E+01   7.8125000E-03   1.3429423E-01
        5   -1    0    0  501    0  0.00000000000E+00  0.00000000000E+00  1.58075156928E+03  1.58075156928E+03  0.00000000000E+00  0.00000000000E+00  1.
        2   -1    0    0  502    0  0.00000000000E+00  0.00000000000E+00 -1.35142978385E+03  1.35142978385E+03  0.00000000000E+00  0.00000000000E+00  1.
       25    1    1    2    0    0  1.26999772030E+03 -4.82788476544E+01  4.68916225418E+02  1.36041629039E+03  1.25000000000E+02  0.00000000000E+00  1.
        6    2    1    2  501    0 -1.26771596466E+03  2.72982620950E+02 -1.11459805408E+02  1.31308480312E+03  1.73623539781E+02  0.00000000000E+00  1.
        1    1    1    2  502    0 -2.28175564331E+00 -2.24703773295E+02 -1.28134634578E+02  2.58680259626E+02  5.04637014592E-06  0.00000000000E+00  1.
        5    1    4    4  501    0 -9.67150115139E+02  1.92600470612E+02 -9.48950820989E+01  9.90707790219E+02  4.75000000000E+00  0.00000000000E+00  1.
       24    2    4    4    0    0 -3.00565849520E+02  8.03821503374E+01 -1.65647233095E+01  3.22377012899E+02  8.27733555984E+01  0.00000000000E+00  1.
       -1    1    7    7    0  703 -2.08253508130E+02  6.29379011977E+01 -4.89692967161E+01  2.22999316314E+02  3.01578298585E-06  0.00000000000E+00  1.
        2    1    7    7  703    0 -9.23123413898E+01  1.74442491397E+01  3.24045734066E+01  9.93776965852E+01  1.06624029994E-06  0.00000000000E+00  1.
</event>
<event>
 9 110   1.0000000E+00   7.4550000E+01   7.8125000E-03   1.3429423E-01
        5   -1    0    0  501    0  0.00000000000E+00  0.00000000000E+00  2.08958970012E+02  2.08958970012E+02  0.00000000000E+00  0.00000000000E+00  1.
       -1   -1    0    0    0  502  0.00000000000E+00  0.00000000000E+00 -2.28298272847E+03  2.28298272847E+03  0.00000000000E+00  0.00000000000E+00  1.
       25    1    1    2    0    0  3.42756731239E+02 -3.82360508664E+02 -2.73926084623E+02  5.95266524536E+02  1.25000000000E+02  0.00000000000E+00  1.
        6    2    1    2  501    0 -3.18818400697E+02  3.95502709397E+02 -1.46181110627E+03  1.55728813397E+03  1.73744225875E+02  0.00000000000E+00  1.
       -2    1    1    2    0  502 -2.39383305418E+01 -1.31422007323E+01 -3.38286567565E+02  3.39387039976E+02  9.34406182397E-06  0.00000000000E+00  1.
        5    1    4    4  501    0 -7.48895136436E+01  1.66348225753E+02 -6.54902181113E+02  6.79852631672E+02  4.74999999999E+00  0.00000000000E+00  1.
       24    2    4    4    0    0 -2.43928887054E+02  2.29154483643E+02 -8.06908925162E+02  8.77435502302E+02  8.23284147847E+01  0.00000000000E+00  1.
       -1    1    7    7    0  703 -1.70875482760E+02  2.00451398039E+02 -6.65023822683E+02  7.15287269787E+02  7.62939453125E-06  0.00000000000E+00  1.
        2    1    7    7  703    0 -7.30534042938E+01  2.87030856044E+01 -1.41885102479E+02  1.62148232515E+02  4.26496119976E-06  0.00000000000E+00  1.
</event>
<event>
 9 110   1.0000000E+00   7.4550000E+01   7.8125000E-03   1.3429423E-01
        2   -1    0    0  502    0  0.00000000000E+00  0.00000000000E+00  5.92843098003E+02  5.92843098003E+02  0.00000000000E+00  0.00000000000E+00  1.
        5   -1    0    0  501    0  0.00000000000E+00  0.00000000000E+00 -5.37938768595E+02  5.37938768595E+02  0.00000000000E+00  0.00000000000E+00  1.
       25    1    1    2    0    0  8.71551764288E+01  3.59260925078E+02 -3.27734701150E+02  5.09607173619E+02  1.25000000000E+02  0.00000000000E+00  1.
        6    2    1    2  501    0  2.13556230640E+01 -2.17960746459E+02  1.22722687873E+02  3.06060683009E+02  1.75069511713E+02  0.00000000000E+00  1.
        1    1    1    2  502    0 -1.08510799493E+02 -1.41300178619E+02  2.59916342686E+02  3.15114009970E+02  3.81469726562E-06  0.00000000000E+00  1.
        5    1    4    4  501    0  7.25563889292E+01 -8.55479287888E+01  7.85175789351E+01  1.37005293315E+02  4.75000000000E+00  0.00000000000E+00  1.
       24    2    4    4    0    0 -5.12007658652E+01 -1.32412817670E+02  4.42051089374E+01  1.69055389694E+02  8.04422800503E+01  0.00000000000E+00  1.
      -11    1    7    7    0    0 -1.30013148084E+01 -1.00505304846E+02  5.88276302244E+01  1.17179522814E+02  5.11002602326E-04  0.00000000000E+00  1.
       12    1    7    7    0    0 -3.81994510568E+01 -3.19075128245E+01 -1.46225212870E+01  5.18758668793E+01  6.52936169511E-07  0.00000000000E+00  1.
</event>
<event>
 9 110   1.0000000E+00   7.4550000E+01   7.8125000E-03   1.3429423E-01
        5   -1    0    0  501    0  0.00000000000E+00  0.00000000000E+00  5.56519312675E+02  5.56519312675E+02  0.00000000000E+00  0.00000000000E+00  1.
        2   -1    0    0  502    0  0.00000000000E+00  0.00000000000E+00 -6.01843796906E+02  6.01843796906E+02  0.00000000000E+00  0.00000000000E+00  1.
       25    1    1    2    0    0  1.22039240142E+02  1.88900896798E+01  2.05769989044E+02  2.70585845923E+02  1.25000000000E+02  0.00000000000E+00  1.
        6    2    1    2  501    0 -1.54883078580E+02 -1.29069737280E+02  2.55508708057E+02  3.68291887729E+02  1.72355590458E+02  0.00000000000E+00  1.
        1    1    1    2  502    0  3.28438384374E+01  1.10179647600E+02 -5.06603181332E+02  5.19485375929E+02  1.78925161736E-05  0.00000000000E+00  1.
        5    1    4    4  501    0 -1.48347720201E+02 -7.51776554309E+01  1.79031911990E+02  2.44404815779E+02  4.75000000000E+00  0.00000000000E+00  1.
       24    2    4    4    0    0 -6.53535837830E+00 -5.38920818489E+01  7.64767960665E+01  1.23887071950E+02  8.09459008508E+01  0.00000000000E+00  1.
       -3    1    7    7    0  703 -4.61693003324E+00 -1.84224985502E+01 -1.59931968494E+01  2.48291530510E+01  2.86102294922E-06  0.00000000000E+00  1.
        4    1    7    7  703    0 -1.91842834506E+00 -3.54695832987E+01  9.24699929159E+01  9.90579188989E+01  2.69739830470E-06  0.00000000000E+00  1.
</event>
<event>
 9 110   1.0000000E+00   7.4550000E+01   7.8125000E-03   1.3429423E-01
        5   -1    0    0  501    0  0.00000000000E+00  0.00000000000E+00  1.03488997660E+03  1.03488997660E+03  0.00000000000E+00  0.00000000000E+00  1.
        2   -1    0    0  502    0  0.00000000000E+00  0.00000000000E+00 -6.04140104814E+02  6.04140104814E+02  0.00000000000E+00  0.00000000000E+00  1.
       25    1    1    2    0    0 -3.17604264856E+02 -1.57402148014E+02  8.93184613495E+02  9.69046778560E+02  1.25000000000E+02  0.00000000000E+00  1.
        6    2    1    2  501    0  2.99931414650E+02  1.92208321533E+02 -2.84488389366E+02  4.87805632266E+02  1.73544803512E+02  0.00000000000E+00  1.
        1    1    1    2  502    0  1.76728502053E+01 -3.48061735192E+01 -1.77946352342E+02  1.82177670589E+02  3.30362473978E-06  0.00000000000E+00  1.
        5    1    4    4  501    0  7.64081743250E+01  1.02984800326E+02 -1.49694201743E+02  1.97167428186E+02  4.75000000000E+00  0.00000000000E+00  1.
       24    2    4    4    0    0  2.23523240325E+02  8.92235212066E+01 -1.34794187624E+02  2.90638204081E+02  9.15293229092E+01  0.00000000000E+00  1.
       -3    1    7    7    0  703  5.13826470187E+01 -1.28418592102E+01 -7.57978710317E+00  5.35027376417E+01  2.17536539923E-06  0.00000000000E+00  1.
        4    1    7    7  703    0  1.72140593307E+02  1.02065380417E+02 -1.27214400520E+02  2.37135466439E+02  2.33601545599E-06  0.00000000000E+00  1.
</event>
<event>
 9 110   1.0000000E+00   7.4550000E+01   7.8125000E-03   1.3429423E-01
        2   -1    0    0  502    0  0.00000000000E+00  0.00000000000E+00  1.71569523393E+03  1.71569523393E+03  0.00000000000E+00  0.00000000000E+00  1.
        5   -1    0    0  501    0  0.00000000000E+00  0.00000000000E+00 -6.22645417513E+02  6.22645417513E+02  0.00000000000E+00  0.00000000000E+00  1.
       25    1    1    2    0    0  6.91734260202E+02 -3.53347872298E+02  7.68799354635E+02  1.10001293323E+03  1.25000000000E+02  0.00000000000E+00  1.
        6    2    1    2  501    0 -5.22092050347E+02  3.79975100144E+02 -1.90760199063E+02  6.95443320375E+02  1.74042444661E+02  0.00000000000E+00  1.
        1    1    1    2  502    0 -1.69642209855E+02 -2.66272278460E+01  5.15010660845E+02  5.42884397833E+02  7.62939453125E-06  0.00000000000E+00  1.
        5    1    4    4  501    0  3.83996153645E+00  1.11563068503E+01 -2.35272883015E+01  2.67451730591E+01  4.75000000000E+00  0.00000000000E+00  1.
       24    2    4    4    0    0 -5.25932011883E+02  3.68818793294E+02 -1.67232910761E+02  6.68698147316E+02  8.09850749991E+01  0.00000000000E+00  1.
       -1    1    7    7    0  703 -1.45578297401E+02  1.07871785069E+02 -8.51115075952E+01  2.00183244587E+02  3.69356474515E-06  0.00000000000E+00  1.
        2    1    7    7  703    0 -3.80353714482E+02  2.60947008225E+02 -8.21214031658E+01  4.68514902730E+02  5.30983387263E-06  0.00000000000E+00  1.
</event>
<event>
 9 110   1.0000000E+00   7.4550000E+01   7.8125000E-03   1.3429423E-01
        5   -1    0    0  501    0  0.00000000000E+00  0.00000000000E+00  1.15637004615E+03  1.15637004615E+03  0.00000000000E+00  0.00000000000E+00  1.
        2   -1    0    0  502    0  0.00000000000E+00  0.00000000000E+00 -1.41170618928E+03  1.41170618928E+03  0.00000000000E+00  0.00000000000E+00  1.
       25    1    1    2    0    0  1.14224427508E+02 -7.32106774859E+01  1.12964213837E+03  1.14460621347E+03  1.25000000000E+02  0.00000000000E+00  1.
        6    2    1    2  501    0 -1.73705199871E+02  1.65691460974E+01 -1.08836205588E+03  1.11569183778E+03  1.72592813173E+02  0.00000000000E+00  1.
        1    1    1    2  502    0  5.94807723630E+01  5.66415313885E+01 -2.96616225617E+02  3.07778184182E+02  3.81469726562E-06  0.00000000000E+00  1.
        5    1    4    4  501    0 -1.21611482010E+02  6.38981983636E+01 -5.54059415552E+02  5.70856138421E+02  4.74999999999E+00  0.00000000000E+00  1.
       24    2    4    4    0    0 -5.20937178616E+01 -4.73290522662E+01 -5.34302640325E+02  5.44835699363E+02  8.00801674119E+01  0.00000000000E+00  1.
       -1    1    7    7    0  703 -1.77968887613E+01 -3.24424670546E+01 -7.13386893833E+01  8.03644916683E+01  7.86419987796E-06  0.00000000000E+00  1.
        2    1    7    7  703    0 -3.42968291003E+01 -1.48865852116E+01 -4.62963950942E+02  4.64471207695E+02  9.34406182397E-06  0.00000000000E+00  1.
</event>
<event>
 9 110   1.0000000E+00   7.4550000E+01   7.8125000E-03   1.3429423E-01
        5   -1    0    0  501    0  0.00000000000E+00  0.00000000000E+00  5.93010494815E+02  5.93010494815E+02  0.00000000000E+00  0.00000000000E+00  1.
        2   -1    0    0  502    0  0.00000000000E+00  0.00000000000E+00 -7.10974506340E+02  7.10974506340E+02  0.00000000000E+00  0.00000000000E+00  1.
       25    1    1    2    0    0  1.95720506384E+02 -7.99569639026E+01  5.22268653329E+02  5.77138786555E+02  1.25000000000E+02  0.00000000000E+00  1.
        6    2    1    2  501    0 -2.14710467152E+02  5.92662685898E+01 -4.25376840979E+02  5.10162692994E+02  1.72358467110E+02  0.00000000000E+00  1.
        1    1    1    2  502    0  1.89899607682E+01  2.06906953128E+01 -2.14855823875E+02  2.16683521606E+02  4.67203091199E-06  0.00000000000E+00  1.
        5    1    4    4  501    0 -1.80918381915E+02  1.04126996316E+01 -2.60812070019E+02  3.17624595389E+02  4.75000000000E+00  0.00000000000E+00  1.
       24    2    4    4    0    0 -3.37920852374E+01  4.88535689582E+01 -1.64564770960E+02  1.92538097606E+02  8.03789709053E+01  0.00000000000E+00  1.
       -3    1    7    7    0  703 -2.80146073040E+01 -4.73240670271E+00 -1.17811398371E+02  1.21188858736E+02  1.34869915235E-06  0.00000000000E+00  1.
        4    1    7    7  703    0 -5.77747793344E+00  5.35859756609E+01 -4.67533725886E+01  7.13492388692E+01  6.74349576174E-07  0.00000000000E+00  1.
</event>
<event>
 9 110   1.0000000E+00   7.4550000E+01   7.8125000E-03   1.3429423E-01
        5   -1    0    0  501    0  0.00000000000E+00  0.00000000000E+00  9.58844456641E+02  9.58844456641E+02  0.00000000000E+00  0.00000000000E+00  1.
        2   -1    0    0  502    0  0.00000000000E+00  0.00000000000E+00 -4.43039605706E+03  4.43039605706E+03  0.00000000000E+00  0.00000000000E+00  1.
       25    1    1    2    0    0  6.13596197857E+02  1.45439925379E+02  7.82768915879E+02  1.01291916834E+03  1.25000000000E+02  0.00000000000E+00  1.
        6    2    1    2  501    0 -6.46421025454E+02 -1.60941162469E+02 -1.88497207200E+03  2.00669483299E+03  1.73038263389E+02  0.00000000000E+00  1.
        1    1    1    2  502    0  3.28248275967E+01  1.55012370904E+01 -2.36934844430E+03  2.36962651237E+03  0.00000000000E+00  0.00000000000E+00  1.
        5    1    4    4  501    0 -4.22299515948E+02 -1.23245650770E+02 -1.07130889382E+03  1.15812420753E+03  4.75000000005E+00  0.00000000000E+00  1.
       24    2    4    4    0    0 -2.24121509506E+02 -3.76955116994E+01 -8.13663178187E+02  8.48570625459E+02  7.98306722297E+01  0.00000000000E+00  1.
      -13    1    7    7    0    0 -9.50958114754E+01 -5.48656603526E+01 -3.35419584295E+02  3.52930251946E+02  1.05659999952E-01  0.00000000000E+00  1.
       14    1    7    7    0    0 -1.29025698031E+02  1.71701486532E+01 -4.78243593891E+02  4.95640373512E+02  5.39479660939E-06  0.00000000000E+00  1.
</event>
<event>
 9 110   1.0000000E+00   7.4550000E+01   7.8125000E-03   1.3429423E-01
        5   -1    0    0  501    0  0.00000000000E+00  0.00000000000E+00  1.19643499515E+03  1.19643499515E+03  0.00000000000E+00  0.00000000000E+00  1.
        2   -1    0    0  502    0  0.00000000000E+00  0.00000000000E+00 -1.17200362820E+03  1.17200362820E+03  0.00000000000E+00  0.00000000000E+00  1.
       25    1    1    2    0    0 -4.88550690461E+02 -1.46945231140E+02  6.83373181905E+02  8.61915647759E+02  1.25000000000E+02  0.00000000000E+00  1.
        6    2    1    2  501    0  5.11765181086E+02  1.89084560877E+02  2.28991521553E+02  6.17287210575E+02  1.75925585580E+02  0.00000000000E+00  1.
        1    1    1    2  502    0 -2.32144906250E+01 -4.21393297378E+01 -8.87933336515E+02  8.89235765014E+02  2.15791864376E-05  0.00000000000E+00  1.
        5    1    4    4  501    0 -2.92304362934E+00  2.67396797863E+01  9.40947744451E+00  2.88904036821E+01  4.75000000001E+00  0.00000000000E+00  1.
       24    2    4    4    0    0  5.14688224715E+02  1.62344881091E+02  2.19582044108E+02  5.88396806893E+02  8.20652130294E+01  0.00000000000E+00  1.
      -13    1    7    7    0    0  2.15127847381E+02  4.05021145934E+01  5.58534005151E+01  2.25920396419E+02  1.05660000051E-01  0.00000000000E+00  1.
       14    1    7    7    0    0  2.99560377335E+02  1.21842766498E+02  1.63728643593E+02  3.62476410473E+02  7.86419987796E-06  0.00000000000E+00  1.
</event>
<event>
 9 110   1.0000000E+00   7.4550000E+01   7.8125000E-03   1.3429423E-01
        5   -1    0    0  501    0  0.00000000000E+00  0.00000000000E+00  9.89399748982E+02  9.89399748982E+02  0.00000000000E+00  0.00000000000E+00  1.
       -1   -1    0    0    0  502  0.00000000000E+00  0.00000000000E+00 -5.50654690936E+02  5.50654690936E+02  0.00000000000E+00  0.00000000000E+00  1.
       25    1    1    2    0    0  3.96562422387E+02 -3.07282975537E+02  4.41697537722E+02  6.80004629936E+02  1.25000000000E+02  0.00000000000E+00  1.
        6    2    1    2  501    0 -4.16885918078E+02  1.32158642415E+02  2.64392248351E+02  5.39808057344E+02  1.73866909816E+02  0.00000000000E+00  1.
       -2    1    1    2    0  502  2.03234956902E+01  1.75124333122E+02 -2.67344728028E+02  3.20241752638E+02  0.00000000000E+00  0.00000000000E+00  1.
        5    1    4    4  501    0 -1.37533056665E+02 -2.56161906313E+01  7.31609485940E+01  1.57944983451E+02  4.75000000000E+00  0.00000000000E+00  1.
       24    2    4    4    0    0 -2.79352861413E+02  1.57774833047E+02  1.91231299757E+02  3.81863073893E+02  7.94926290556E+01  0.00000000000E+00  1.
      -15    1    7    7    0    0 -1.62253590273E+02  5.15745458320E+01  7.72235431455E+01  1.86956663343E+02  1.77680000000E+00  0.00000000000E+00  1.
       16    1    7    7    0    0 -1.17099271139E+02  1.06200287215E+02  1.14007756611E+02  1.94906410550E+02  1.34869915235E-06  0.00000000000E+00  1.
</event>
<event>
 9 110   1.0000000E+00   7.4550000E+01   7.8125000E-03   1.3429423E-01
        2   -1    0    0  502    0  0.00000000000E+00  0.00000000000E+00  1.58429433000E+03  1.58429433000E+03  0.00000000000E+00  0.00000000000E+00  1.
        5   -1    0    0  501    0  0.00000000000E+00  0.00000000000E+00 -1.88319600395E+02  1.88319600395E+02  0.00000000000E+00  0.00000000000E+00  1.
       25    1    1    2    0    0  2.09156948404E+02 -4.05048106481E+01 -7.56040840533E+01  2.58318110625E+02  1.25000000000E+02  0.00000000000E+00  1.
        6    2    1    2  501    0 -1.42313820685E+02 -4.79536687715E+01  7.50629045696E+02  7.84870378599E+02  1.73276568100E+02  0.00000000000E+00  1.
        1    1    1    2  502    0 -6.68431277190E+01  8.84584794196E+01  7.20949767958E+02  7.29425441168E+02  1.86881236479E-05  0.00000000000E+00  1.
        5    1    4    4  501    0 -1.02095525999E+02 -8.25519707030E+01  4.16717794729E+02  4.36937761288E+02  4.75000000001E+00  0.00000000000E+00  1.
       24    2    4    4    0    0 -4.02182946857E+01  3.45983019315E+01  3.33911250967E+02  3.47932617311E+02  8.21329954524E+01  0.00000000000E+00  1.
      -11    1    7    7    0    0  1.42698124447E+01  3.04212652290E+00  1.93500342552E+02  1.94049644805E+02  5.10991478305E-04  0.00000000000E+00  1.
       12    1    7    7    0    0 -5.44881071304E+01  3.15561754086E+01  1.40410908415E+02  1.53882972505E+02  4.26496119976E-06  0.00000000000E+00  1.
</event>
<event>
 9 110   1.0000000E+00   7.4550000E+01   7.8125000E-03   1.3429423E-01
        5   -1    0    0  501    0  0.00000000000E+00  0.00000000000E+00  4.72720847724E+02  4.72720847724E+02  0.00000000000E+00  0.00000000000E+00  1.
        2   -1    0    0  502    0  0.00000000000E+00  0.00000000000E+00 -1.99267635063E+03  1.99267635063E+03  0.00000000000E+00  0.00000000000E+00  1.
       25    1    1    2    0    0  1.05989355769E+02 -7.05715229927E+02  7.31366445243E-01  7.24495178855E+02  1.25000000000E+02  0.00000000000E+00  1.
        6    2    1    2  501    0 -1.29879340798E+02  6.08711781889E+02 -8.74546935820E+02  1.08708460308E+03  1.71819424730E+02  0.00000000000E+00  1.
        1    1    1    2  502    0  2.38899850287E+01  9.70034480380E+01 -6.46139933531E+02  6.53817416424E+02  1.52587890625E-05  0.00000000000E+00  1.
        5    1    4    4  501    0  1.81275513451E+00  3.80963051228E+01 -1.35368252662E+02  1.40718658585E+02  4.74999999999E+00  0.00000000000E+00  1.
       24    2    4    4    0    0 -1.31692095932E+02  5.70615476766E+02 -7.39178683158E+02  9.46365944490E+02  7.92372690057E+01  0.00000000000E+00  1.
       -1    1    7    7    0  703 -6.65897730126E+01  4.21370873453E+02 -5.64534990481E+02  7.07592655659E+02  0.00000000000E+00  0.00000000000E+00  1.
        2    1    7    7  703    0 -6.51023229199E+01  1.49244603313E+02 -1.74643692677E+02  2.38773288831E+02  6.32595975944E-06  0.00000000000E+00  1.
</event>
<event>
 9 110   1.0000000E+00   7.4550000E+01   7.8125000E-03   1.3429423E-01
        5   -1    0    0  501    0  0.00000000000E+00  0.00000000000E+00  1.27625429445E+03  1.27625429445E+03  0.00000000000E+00  0.00000000000E+00  1.
        2   -1    0    0  502    0  0.00000000000E+00  0.00000000000E+00 -1.12925132203E+03  1.12925132203E+03  0.00000000000E+00  0.00000000000E+00  1.
       25    1    1    2    0    0 -3.90511299761E+02 -2.56273388745E+02  6.09596008152E+02  7.78079313550E+02  1.25000000000E+02  0.00000000000E+00  1.
        6    2    1    2  501    0  3.87314007584E+02  2.84754036109E+02  4.70405425047E+02  6.93987768395E+02  1.70999290105E+02  0.00000000000E+00  1.
        1    1    1    2  502    0  3.19729217633E+00 -2.84806473642E+01 -9.32998460773E+02  9.33438534536E+02  1.52587890625E-05  0.00000000000E+00  1.
        5    1    4    4  501    0  2.81679641967E+02  1.57606820816E+02  3.32530979063E+02  4.63446593690E+02  4.75000000000E+00  0.00000000000E+00  1.
       24    2    4    4    0    0  1.05634365617E+02  1.27147215294E+02  1.37874445984E+02  2.30541174705E+02  8.25520249454E+01  0.00000000000E+00  1.
      -11    1    7    7    0    0 -1.12982789075E+01  7.94820925727E+00 -2.84081631285E-01  1.38168679267E+01  5.10990534137E-04  0.00000000000E+00  1.
       12    1    7    7    0    0  1.16932644525E+02  1.19199006036E+02  1.38158527615E+02  2.16724306778E+02  2.69739830470E-06  0.00000000000E+00  1.
</event>
<event>
 9 110   1.0000000E+00   7.4550000E+01   7.8125000E-03   1.3429423E-01
        5   -1    0    0  501    0  0.00000000000E+00  0.00000000000E+00  1.34082038843E+03  1.34082038843E+03  0.00000000000E+00  0.00000000000E+00  1.
        2   -1    0    0  502    0  0.00000000000E+00  0.00000000000E+00 -1.32959164409E+03  1.32959164409E+03  0.00000000000E+00  0.00000000000E+00  1.
       25    1    1    2    0    0  8.37607565708E+02 -4.82181545123E+02  5.73301753873E+02  1.13065705569E+03  1.25000000000E+02  0.00000000000E+00  1.
        6    2    1    2  501    0 -8.03498909849E+02  4.45857791077E+02  3.96970528812E+01  9.35925511237E+02  1.73150335208E+02  0.00000000000E+00  1.
        1    1    1    2  502    0 -3.41086558585E+01  3.63237540458E+01 -6.01770062409E+02  6.03829465598E+02  7.62939453125E-06  0.00000000000E+00  1.
        5    1    4    4  501    0 -3.78533349220E+01 -1.21634254153E+01  3.58007901602E+00  4.02020316441E+01  4.74999999999E+00  0.00000000000E+00  1.
       24    2    4    4    0    0 -7.65645574927E+02  4.58021216492E+02  3.61169738652E+01  8.95723479593E+02  7.08486762700E+01  0.00000000000E+00  1.
       -1    1    7    7    0  703 -1.81394664858E+02  1.38834379218E+02 -7.40962364781E+00  2.28547395116E+02  9.75952118337E-06  0.00000000000E+00  1.
        2    1    7    7  703    0 -5.84250910069E+02  3.19186837274E+02  4.35265975130E+01  6.67176084476E+02  1.28126419473E-05  0.00000000000E+00  1.
</event>
<event>
 9 110   1.0000000E+00   7.4550000E+01   7.8125000E-03   1.3429423E-01
        5   -1    0    0  501    0  0.00000000000E+00  0.00000000000E+00  5.93893856232E+02  5.93893856232E+02  0.00000000000E+00  0.00000000000E+00  1.
        2   -1    0    0  502    0  0.00000000000E+00  0.00000000000E+00 -1.29012386326E+03  1.29012386326E+03  0.00000000000E+00  0.00000000000E+00  1.
       25    1    1    2    0    0 -1.87410412398E+02  4.43095345472E+01  3.31430120892E+02  4.03183484981E+02  1.25000000000E+02  0.00000000000E+00  1.
        6    2    1    2  501    0  3.18435488793E+02 -6.38083002600E+01  7.00599416856E+01  3.75150227336E+02  1.74231564121E+02  0.00000000000E+00  1.
        1    1    1    2  502    0 -1.31025076395E+02  1.94987657128E+01 -1.09772006961E+03  1.10568400718E+03  0.00000000000E+00  0.00000000000E+00  1.
        5    1    4    4  501    0  1.29438791280E+02  1.20262821336E+01 -3.10171298029E+01  1.33729790964E+02  4.75000000000E+00  0.00000000000E+00  1.
       24    2    4    4    0    0  1.88996697513E+02 -7.58345823935E+01  1.01077071488E+02  2.41420436372E+02  8.12195614351E+01  0.00000000000E+00  1.
      -13    1    7    7    0    0  1.16610797759E+02 -2.63530210781E+01  1.84990957266E+01  1.20974326122E+02  1.05659999999E-01  0.00000000000E+00  1.
       14    1    7    7    0    0  7.23858997537E+01 -4.94815613154E+01  8.25779757619E+01  1.20446110250E+02  9.53674316406E-07  0.00000000000E+00  1.
</event>
<event>
 9 110   1.0000000E+00   7.4550000E+01   7.8125000E-03   1.3429423E-01
        5   -1    0    0  501    0  0.00000000000E+00  0.00000000000E+00  4.38993887826E+03  4.38993887826E+03  0.00000000000E+00  0.00000000000E+00  1.
        2   -1    0    0  502    0  0.00000000000E+00  0.00000000000E+00 -2.78330151510E+03  2.78330151510E+03  0.00000000000E+00  0.00000000000E+00  1.
       25    1    1    2    0    0  1.41998557574E+02  1.94449589951E+03  2.75713696848E+03  3.37915036015E+03  1.25000000000E+02  0.00000000000E+00  1.
        6    2    1    2  501    0 -1.20856087547E+02 -1.95989156978E+03  5.86711513141E+02  2.05668204981E+03  1.73001431190E+02  0.00000000000E+00  1.
        1    1    1    2  502    0 -2.11424700275E+01  1.53956702639E+01 -1.73721111845E+03  1.73740798340E+03  3.05175781250E-05  0.00000000000E+00  1.
        5    1    4    4  501    0 -2.98905843720E+00 -2.69986421007E+00  9.25581975140E+00  1.11560044982E+01  4.74999999995E+00  0.00000000000E+00  1.
       24    2    4    4    0    0 -1.17867029109E+02 -1.95719170557E+03  5.77455693389E+02  2.04552604531E+03  7.89285458186E+01  0.00000000000E+00  1.
      -15    1    7    7    0    0  1.58439413738E-01 -2.68538705499E+02  1.01833856654E+02  2.87204374677E+02  1.77680000002E+00  0.00000000000E+00  1.
       16    1    7    7    0    0 -1.18025468523E+02 -1.68865300007E+03  4.75621836735E+02  1.75832167064E+03  3.32557597621E-05  0.00000000000E+00  1.
</event>
<event>
 9 110   1.0000000E+00   7.4550000E+01   7.8125000E-03   1.3429423E-01
        2   -1    0    0  502    0  0.00000000000E+00  0.00000000000E+00  7.11450989891E+02  7.11450989891E+02  0.00000000000E+00  0.00000000000E+00  1.
        5   -1    0    0  501    0  0.00000000000E+00  0.00000000000E+00 -2.93457205923E+02  2.93457205923E+02  0.00000000000E+00  0.00000000000E+00  1.
       25    1    1    2    0    0 -5.35985170852E+01  1.25719038166E+02 -1.99931216382E+02  2.72535445172E+02  1.25000000000E+02  0.00000000000E+00  1.
        6    2    1    2  501    0  1.02149361209E+02 -1.26307849100E+02  1.88762472062E+02  3.00472291218E+02  1.68119487839E+02  0.00000000000E+00  1.
        1    1    1    2  502    0 -4.85508441236E+01  5.88810934170E-01  4.29162528289E+02  4.31900459424E+02  7.62939453125E-06  0.00000000000E+00  1.
        5    1    4    4  501    0 -2.69485941118E+01 -2.14339247689E+01 -3.41146097714E+00  3.49262139603E+01  4.75000000000E+00  0.00000000000E+00  1.
       24    2    4    4    0    0  1.29097955321E+02 -1.04873924331E+02  1.92173933039E+02  2.65546077258E+02  7.69355349280E+01  0.00000000000E+00  1.
      -15    1    7    7    0    0  7.28782691707E+00 -4.83562640841E+01  4.88505679541E+01  6.91445999701E+01  1.77680000000E+00  0.00000000000E+00  1.
       16    1    7    7    0    0  1.21810128404E+02 -5.65176602474E+01  1.43323365085E+02  1.96401477287E+02  0.00000000000E+00  0.00000000000E+00  1.
</event>
<event>
 9 110   1.0000000E+00   7.4550000E+01   7.8125000E-03   1.3429423E-01
        5   -1    0    0  501    0  0.00000000000E+00  0.00000000000E+00  2.18760145981E+02  2.18760145981E+02  0.00000000000E+00  0.00000000000E+00  1.
        2   -1    0    0  502    0  0.00000000000E+00  0.00000000000E+00 -1.94316331604E+03  1.94316331604E+03  0.00000000000E+00  0.00000000000E+00  1.
       25    1    1    2    0    0 -1.72867332460E+02  8.34612334990E+01  1.25118964071E+02  2.61014649587E+02  1.25000000000E+02  0.00000000000E+00  1.
        6    2    1    2  501    0  1.45839346901E+02 -3.13632591446E+01 -4.91108828979E+02  5.41228181349E+02  1.71718645630E+02  0.00000000000E+00  1.
        1    1    1    2  502    0  2.70279855594E+01 -5.20979743544E+01 -1.35841330515E+03  1.35968063108E+03  1.52587890625E-05  0.00000000000E+00  1.
        5    1    4    4  501    0  8.00250580340E+01 -6.65769063495E+01 -3.33197912449E+02  3.49113027160E+02  4.75000000000E+00  0.00000000000E+00  1.
       24    2    4    4    0    0  6.58142888668E+01  3.52136472048E+01 -1.57910916530E+02  1.92115154189E+02  8.00053332057E+01  0.00000000000E+00  1.
       -1    1    7    7    0  703  1.79415784915E+01  3.49022069396E+01 -1.31936035722E+02  1.37648762472E+02  0.00000000000E+00  0.00000000000E+00  1.
        2    1    7    7  703    0  4.78727103753E+01  3.11440265266E-01 -2.59748808078E+01  5.44663917173E+01  5.84003863998E-07  0.00000000000E+00  1.
</event>
<event>
 9 110   1.0000000E+00   7.4550000E+01   7.8125000E-03   1.3429423E-01
        5   -1    0    0  501    0  0.00000000000E+00  0.00000000000E+00  1.51235427143E+03  1.51235427143E+03  0.00000000000E+00  0.00000000000E+00  1.
        2   -1    0    0  502    0  0.00000000000E+00  0.00000000000E+00 -2.13366447706E+03  2.13366447706E+03  0.00000000000E+00  0.00000000000E+00  1.
       25    1    1    2    0    0  9.40625276664E+02 -3.90261927132E+02  1.11623806813E+03  1.51614402601E+03  1.25000000000E+02  0.00000000000E+00  1.
        6    2    1    2  501    0 -8.98166624024E+02  4.81299146610E+02 -1.20044765389E+03  1.58346133649E+03  1.67102008930E+02  0.00000000000E+00  1.
        1    1    1    2  502    0 -4.24586526405E+01 -9.10372194783E+01 -5.37100619875E+02  5.46413385986E+02  2.41262638868E-05  0.00000000000E+00  1.
        5    1    4    4  501    0 -6.75557961293E+02  3.70478953857E+02 -8.97935407324E+02  1.18319219594E+03  4.74999999991E+00  0.00000000000E+00  1.
       24    2    4    4    0    0 -2.22608662731E+02  1.10820192754E+02 -3.02512246570E+02  4.00269140548E+02  8.28612919621E+01  0.00000000000E+00  1.
       -1    1    7    7    0  703 -1.60085329577E+02  3.57850599757E+01 -1.78751271074E+02  2.42610593696E+02  0.00000000000E+00  0.00000000000E+00  1.
        2    1    7    7  703    0 -6.25233331541E+01  7.50351327779E+01 -1.23760975497E+02  1.57658546852E+02  2.33601545599E-06  0.00000000000E+00  1.
</event>
<event>
 9 110   1.0000000E+00   7.4550000E+01   7.8125000E-03   1.3429423E-01
        5   -1    0    0  501    0  0.00000000000E+00  0.00000000000E+00  3.09897808236E+02  3.09897808236E+02  0.00000000000E+00  0.00000000000E+00  1.
        2   -1    0    0  502    0  0.00000000000E+00  0.00000000000E+00 -9.61550144304E+02  9.61550144304E+02  0.00000000000E+00  0.00000000000E+00  1.
       25    1    1    2    0    0 -1.22101593239E+02  5.06096882772E+01  2.29968217680E+02  2.93224352266E+02  1.25000000000E+02  0.00000000000E+00  1.
        6    2    1    2  501    0  1.13648802603E+02 -7.36969444721E+01 -2.01949385629E+02  2.98107898470E+02  1.72445570592E+02  0.00000000000E+00  1.
        1    1    1    2  502    0  8.45279063571E+00  2.30872561948E+01 -6.79671168119E+02  6.80115701804E+02  1.52587890625E-05  0.00000000000E+00  1.
        5    1    4    4  501    0  7.80222837427E+01  9.01674922738E+00 -1.41971205093E+02  1.62318095425E+02  4.75000000000E+00  0.00000000000E+00  1.
       24    2    4    4    0    0  3.56265188603E+01 -8.27136936994E+01 -5.99781805359E+01  1.35789803045E+02  8.20407490154E+01  0.00000000000E+00  1.
       -3    1    7    7    0  703 -1.96024200416E+01 -5.31529042720E+01 -1.47944583164E+01  5.85522168744E+01  2.26811141854E-06  0.00000000000E+00  1.
        4    1    7    7  703    0  5.52289389019E+01 -2.95607894275E+01 -4.51837222195E+01  7.72375861703E+01  1.84678237257E-06  0.00000000000E+00  1.
</event>
<event>
 9 110   1.0000000E+00   7.4550000E+01   7.8125000E-03   1.3429423E-01
        5   -1    0    0  501    0  0.00000000000E+00  0.00000000000E+00  6.80351234581E+02  6.80351234581E+02  0.00000000000E+00  0.00000000000E+00  1.
        2   -1    0    0  502    0  0.00000000000E+00  0.00000000000E+00 -1.84275057120E+03  1.84275057120E+03  0.00000000000E+00  0.00000000000E+00  1.
       25    1    1    2    0    0  2.33640856106E+02 -2.90305790393E+02  5.88826729833E+02  7.07960040782E+02  1.25000000000E+02  0.00000000000E+00  1.
        6    2    1    2  501    0 -2.30385149750E+02  2.80420396936E+02 -1.24169113556E+03  1.30550055157E+03  1.75561663742E+02  0.00000000000E+00  1.
        1    1    1    2  502    0 -3.25570635574E+00  9.88539345742E+00 -5.09534930889E+02  5.09641213427E+02  1.20631319434E-05  0.00000000000E+00  1.
        5    1    4    4  501    0 -7.70473957062E+01  1.12430784822E+01 -1.70517529473E+02  1.87513995095E+02  4.75000000000E+00  0.00000000000E+00  1.
       24    2    4    4    0    0 -1.53337754044E+02  2.69177318454E+02 -1.07117360609E+03  1.11798655647E+03  8.06978964688E+01  0.00000000000E+00  1.
       -1    1    7    7    0  703 -1.39745630328E+02  1.96374797367E+02 -7.26193447756E+02  7.65146277387E+02  1.52587890625E-05  0.00000000000E+00  1.
        2    1    7    7  703    0 -1.35921237158E+01  7.28025210872E+01 -3.44980158331E+02  3.52840279086E+02  1.00927402918E-05  0.00000000000E+00  1.
</event>
<event>
 9 110   1.0000000E+00   7.4550000E+01   7.8125000E-03   1.3429423E-01
        5   -1    0    0  501    0  0.00000000000E+00  0.00000000000E+00  3.86552722222E+02  3.86552722222E+02  0.00000000000E+00  0.00000000000E+00  1.
        2   -1    0    0  502    0  0.00000000000E+00  0.00000000000E+00 -2.32673479345E+03  2.32673479345E+03  0.00000000000E+00  0.00000000000E+00  1.
       25    1    1    2    0    0  1.54266549772E+02  3.68823888816E+01  2.49775568224E+02  3.21202916347E+02  1.25000000000E+02  0.00000000000E+00  1.
        6    2    1    2  501    0 -5.15538939163E+01 -1.89385443971E+02 -8.04202982781E+01  2.74549507457E+02  1.74313961874E+02  0.00000000000E+00  1.
        1    1    1    2  502    0 -1.02712655855E+02  1.52503055089E+02 -2.10953734118E+03  2.11753509187E+03  4.31583728752E-05  0.00000000000E+00  1.
        5    1    4    4  501    0 -4.83752441938E+01 -7.88860391931E+01 -1.01005057999E+02  1.37068434265E+02  4.75000000000E+00  0.00000000000E+00  1.
       24    2    4    4    0    0 -3.17864972252E+00 -1.10499404778E+02  2.05847597210E+01  1.37481073193E+02  7.91017754743E+01  0.00000000000E+00  1.
       -1    1    7    7    0  703  1.27780818193E+01 -5.87656935041E+01 -2.65123757086E+01  6.57236043877E+01  1.34869915235E-06  0.00000000000E+00  1.
        2    1    7    7  703    0 -1.59567315418E+01 -5.17337112734E+01  4.70971354296E+01  7.17574688050E+01  6.74349576174E-07  0.00000000000E+00  1.
</event>
<event>
 9 110   1.0000000E+00   7.4550000E+01   7.8125000E-03   1.3429423E-01
        5   -1    0    0  501    0  0.00000000000E+00  0.00000000000E+00  6.17090628641E+02  6.17090628641E+02  0.00000000000E+00  0.00000000000E+00  1.
        2   -1    0    0  502    0  0.00000000000E+00  0.00000000000E+00 -5.50827701509E+02  5.50827701509E+02  0.00000000000E+00  0.00000000000E+00  1.
       25    1    1    2    0    0  3.20426925560E+02  2.02167921447E+02  3.83207386005E+02  5.53189103087E+02  1.25000000000E+02  0.00000000000E+00  1.
        6    2    1    2  501    0 -2.50381316166E+02 -2.06119688952E+02 -9.15195226227E+01  3.78639401476E+02  1.72672648877E+02  0.00000000000E+00  1.
        1    1    1    2  502    0 -7.00456093944E+01  3.95176750552E+00 -2.25424936250E+02  2.36089825586E+02  2.69739830470E-06  0.00000000000E+00  1.
        5    1    4    4  501    0 -1.91682427375E+02 -1.65612549282E+02 -9.09266427973E+01  2.69183740806E+02  4.75000000000E+00  0.00000000000E+00  1.
       24    2    4    4    0    0 -5.86988887909E+01 -4.05071396698E+01 -5.92879825418E-01  1.09455660669E+02  8.30289240961E+01  0.00000000000E+00  1.
       -3    1    7    7    0  703 -4.02452267258E+01  1.33669176625E+01 -2.30194020894E+01  4.82518977301E+01  8.25906184945E-07  0.00000000000E+00  1.
        4    1    7    7  703    0 -1.84536620651E+01 -5.38740573323E+01  2.24265222640E+01  6.12037629392E+01  6.74349576174E-07  0.00000000000E+00  1.
</event>
<event>
 9 110   1.0000000E+00   7.4550000E+01   7.8125000E-03   1.3429423E-01
        5   -1    0    0  501    0  0.00000000000E+00  0.00000000000E+00  4.37235562082E+02  4.37235562082E+02  0.00000000000E+00  0.00000000000E+00  1.
        2   -1    0    0  502    0  0.00000000000E+00  0.00000000000E+00 -2.49973608062E+03  2.49973608062E+03  0.00000000000E+00  0.00000000000E+00  1.
       25    1    1    2    0    0 -2.08846512065E+02  2.54721757133E+02  3.24045002648E+02  4.78675467201E+02  1.25000000000E+02  0.00000000000E+00  1.
        6    2    1    2  501    0  2.06801783999E+02 -2.75793934921E+02 -1.00774183065E+03  1.07932995596E+03  1.74872193882E+02  0.00000000000E+00  1.
        1    1    1    2  502    0  2.04472806676E+00  2.10721777873E+01 -1.37880369054E+03  1.37896621954E+03  1.52587890625E-05  0.00000000000E+00  1.
        5    1    4    4  501    0  4.88421669524E+01 -1.16348947549E+02 -5.35862518866E+02  5.50539586673E+02  4.74999999999E+00  0.00000000000E+00  1.
       24    2    4    4    0    0  1.57959617046E+02 -1.59444987371E+02 -4.71879311780E+02  5.28790369286E+02  8.10877620166E+01  0.00000000000E+00  1.
       -1    1    7    7    0  703  7.71509060958E+01 -9.40585709711E+01 -3.38447287748E+02  3.59646831862E+02  6.60724947956E-06  0.00000000000E+00  1.
        2    1    7    7  703    0  8.08087109502E+01 -6.53864164002E+01 -1.33432024032E+02  1.69143537424E+02  5.04637014592E-06  0.00000000000E+00  1.
</event>
<event>
 9 110   1.0000000E+00   7.4550000E+01   7.8125000E-03   1.3429423E-01
        5   -1    0    0  501    0  0.00000000000E+00  0.00000000000E+00  1.56925252587E+03  1.56925252587E+03  0.00000000000E+00  0.00000000000E+00  1.
        2   -1    0    0  502    0  0.00000000000E+00  0.00000000000E+00 -2.03403865638E+03  2.03403865638E+03  0.00000000000E+00  0.00000000000E+00  1.
       25    1    1    2    0    0  3.15512292318E+02 -1.94952487238E+02  1.52101112590E+03  1.57055860253E+03  1.25000000000E+02  0.00000000000E+00  1.
        6    2    1    2  501    0 -2.69280812236E+02  1.22312577645E+02 -1.70351115056E+03  1.73760658667E+03  1.72782775375E+02  0.00000000000E+00  1.
        1    1    1    2  502    0 -4.62314800821E+01  7.26399095932E+01 -2.82286105849E+02  2.95125993046E+02  0.00000000000E+00  0.00000000000E+00  1.
        5    1    4    4  501    0 -1.95886736756E+02  9.08000441310E+01 -8.93894972787E+02  9.19612443655E+02  4.75000000005E+00  0.00000000000E+00  1.
       24    2    4    4    0    0 -7.33940754798E+01  3.15125335139E+01 -8.09616177770E+02  8.17994143011E+02  8.51841100810E+01  0.00000000000E+00  1.
       -3    1    7    7    0  703 -4.07918821901E+01  6.03888540960E+01 -4.75673518123E+02  4.81223531423E+02  0.00000000000E+00  0.00000000000E+00  1.
        4    1    7    7  703    0 -3.26021932897E+01 -2.88763205821E+01 -3.33942659647E+02  3.36770611588E+02  8.52992239952E-06  0.00000000000E+00  1.
</event>
<event>
 9 110   1.0000000E+00   7.4550000E+01   7.8125000E-03   1.3429423E-01
        2   -1    0    0  502    0  0.00000000000E+00  0.00000000000E+00  1.05499569374E+03  1.05499569374E+03  0.00000000000E+00  0.00000000000E+00  1.
        5   -1    0    0  501    0  0.00000000000E+00  0.00000000000E+00 -2.88903426184E+02  2.88903426184E+02  0.00000000000E+00  0.00000000000E+00  1.
       25    1    1    2    0    0  2.30979327530E+02  1.86806943405E+02 -6.16305484315E+01  3.28133522137E+02  1.25000000000E+02  0.00000000000E+00  1.
        6    2    1    2  501    0 -2.30274310632E+02 -4.94025197075E+01  1.60887583895E+02  3.34920755359E+02  1.75556915637E+02  0.00000000000E+00  1.
        1    1    1    2  502    0 -7.05016897579E-01 -1.37404423698E+02  6.66835232094E+02  6.80844842429E+02  7.62939453125E-06  0.00000000000E+00  1.
        5    1    4    4  501    0 -7.15185891895E+01 -6.85112487952E+01  8.45636536789E+00  9.95126747021E+01  4.75000000000E+00  0.00000000000E+00  1.
       24    2    4    4    0    0 -1.58755721442E+02  1.91087290877E+01  1.52431218527E+02  2.35408080656E+02  8.13213713529E+01  0.00000000000E+00  1.
       -3    1    7    7    0  703 -1.51567471071E+02 -6.30167403209E+00  1.39135004034E+02  2.05842072303E+02  3.81469726562E-06  0.00000000000E+00  1.
        2    1    7    7  703    0 -7.18825037141E+00  2.54104031198E+01  1.32962144928E+01  2.95660083534E+01  3.17195289031E-06  0.00000000000E+00  1.
</event>
<event>
 9 110   1.0000000E+00   7.4550000E+01   7.8125000E-03   1.3429423E-01
        5   -1    0    0  501    0  0.00000000000E+00  0.00000000000E+00  3.15580632843E+03  3.15580632843E+03  0.00000000000E+00  0.00000000000E+00  1.
        2   -1    0    0  502    0  0.00000000000E+00  0.00000000000E+00 -4.80027315155E+02  4.80027315155E+02  0.00000000000E+00  0.00000000000E+00  1.
       25    1    1    2    0    0  3.49043362317E+01 -4.21732953572E+02  2.59406704647E+03  2.63132777099E+03  1.25000000000E+02  0.00000000000E+00  1.
        6    2    1    2  501    0 -2.02249363921E+01  5.43765183860E+02  3.76949320378E+02  6.84705239473E+02  1.75045284422E+02  0.00000000000E+00  1.
        1    1    1    2  502    0 -1.46793998396E+01 -1.22032230288E+02 -2.95237353564E+02  3.19800633127E+02  1.52587890625E-05  0.00000000000E+00  1.
        5    1    4    4  501    0 -7.67165997174E+01  1.92960845888E+02  1.37821778135E+02  2.49272400691E+02  4.75000000000E+00  0.00000000000E+00  1.
       24    2    4    4    0    0  5.64916633253E+01  3.50804337972E+02  2.39127542243E+02  4.35432838782E+02  7.85161388854E+01  0.00000000000E+00  1.
      -11    1    7    7    0    0 -7.90341231917E+00  7.51253051704E+01  8.26334862455E+01  1.11957886960E+02  5.11009276622E-04  0.00000000000E+00  1.
       12    1    7    7    0    0  6.43950756445E+01  2.75679032802E+02  1.56494055997E+02  3.23474951822E+02  3.81469726562E-06  0.00000000000E+00  1.
</event>
<event>
 9 110   1.0000000E+00   7.4550000E+01   7.8125000E-03   1.3429423E-01
        5   -1    0    0  501    0  0.00000000000E+00  0.00000000000E+00  1.71560664348E+03  1.71560664348E+03  0.00000000000E+00  0.00000000000E+00  1.
        2   -1    0    0  502    0  0.00000000000E+00  0.00000000000E+00 -8.41840667995E+02  8.41840667995E+02  0.00000000000E+00  0.00000000000E+00  1.
       25    1    1    2    0    0 -6.44767740719E+02  8.41668639153E+02  6.69987084227E+02  1.26041232564E+03  1.25000000000E+02  0.00000000000E+00  1.
        6    2    1    2  501    0  6.28853234439E+02 -8.99515174206E+02  3.28403547249E+02  1.15872085782E+03  1.73784917096E+02  0.00000000000E+00  1.
        1    1    1    2  502    0  1.59145062803E+01  5.78465350535E+01 -1.24624655989E+02  1.38314128013E+02  6.03156597170E-06  0.00000000000E+00  1.
        5    1    4    4  501    0  2.36554672973E+02 -2.84473320975E+02  1.74006786734E+02  4.08881532943E+02  4.75000000001E+00  0.00000000000E+00  1.
       24    2    4    4    0    0  3.92298561465E+02 -6.15041853231E+02  1.54396760515E+02  7.49839324877E+02  7.90317083273E+01  0.00000000000E+00  1.
       -3    1    7    7    0  703  2.77947979903E+02 -3.76360893325E+02  1.19491126772E+02  4.82887907215E+02  6.87704329579E-06  0.00000000000E+00  1.
        4    1    7    7  703    0  1.14350581562E+02 -2.38680959906E+02  3.49056337438E+01  2.66951417663E+02  6.57274663548E-06  0.00000000000E+00  1.
</event>
<event>
 9 110   1.0000000E+00   7.4550000E+01   7.8125000E-03   1.3429423E-01
        5   -1    0    0  501    0  0.00000000000E+00  0.00000000000E+00  1.79199964376E+03  1.79199964376E+03  0.00000000000E+00  0.00000000000E+00  1.
        2   -1    0    0  502    0  0.00000000000E+00  0.00000000000E+00 -1.89506720310E+03  1.89506720310E+03  0.00000000000E+00  0.00000000000E+00  1.
       25    1    1    2    0    0  2.12525224272E+02  1.66770604112E+02  1.70507542292E+03  1.73086296488E+03  1.25000000000E+02  0.00000000000E+00  1.
        6    2    1    2  501    0 -2.35176074966E+02 -9.77943008942E+01 -2.49589615197E+02  3.95960506919E+02  1.72099493033E+02  0.00000000000E+00  1.
        1    1    1    2  502    0  2.26508506936E+01 -6.89763032182E+01 -1.55855336706E+03  1.56024337506E+03  3.73762472959E-05  0.00000000000E+00  1.
        5    1    4    4  501    0 -1.53259963777E+02 -1.73201203789E+01 -7.38662530742E+01  1.71077143155E+02  4.75000000000E+00  0.00000000000E+00  1.
       24    2    4    4    0    0 -8.19161111883E+01 -8.04741805153E+01 -1.75723362122E+02  2.24883363764E+02  8.06689797896E+01  0.00000000000E+00  1.
      -15    1    7    7    0    0 -4.50830795378E+01 -5.55852333984E+01 -3.98766370967E+01  8.19481875147E+01  1.77680000000E+00  0.00000000000E+00  1.
       16    1    7    7    0    0 -3.68330316505E+01 -2.48889471169E+01 -1.35846725026E+02  1.42935176249E+02  0.00000000000E+00  0.00000000000E+00  1.
</event>
<event>
 9 110   1.0000000E+00   7.4550000E+01   7.8125000E-03   1.3429423E-01
        5   -1    0    0  501    0  0.00000000000E+00  0.00000000000E+00  3.43813881948E+02  3.43813881948E+02  0.00000000000E+00  0.00000000000E+00  1.
        2   -1    0    0  502    0  0.00000000000E+00  0.00000000000E+00 -3.46842886005E+03  3.46842886005E+03  0.00000000000E+00  0.00000000000E+00  1.
       25    1    1    2    0    0  4.95592765753E+02 -8.59864502406E+02 -2.01929570482E+03  2.25347715664E+03  1.25000000000E+02  0.00000000000E+00  1.
        6    2    1    2  501    0 -4.73282612370E+02  8.30765087729E+02 -8.20626784538E+02  1.27172145631E+03  1.72279078164E+02  0.00000000000E+00  1.
        1    1    1    2  502    0 -2.23101533828E+01  2.90994146775E+01 -2.84692488737E+02  2.87044129049E+02  1.52587890625E-05  0.00000000000E+00  1.
        5    1    4    4  501    0 -1.88856077137E+00 -2.76484140276E+00 -1.98435074910E+01  2.06769992822E+01  4.75000000003E+00  0.00000000000E+00  1.
       24    2    4    4    0    0 -4.71394051599E+02  8.33529929131E+02 -8.00783277047E+02  1.25104445703E+03  8.29088777937E+01  0.00000000000E+00  1.
       -3    1    7    7    0  703 -2.77539373293E+02  5.65385216754E+02 -5.43332578932E+02  8.31804567420E+02  1.07895932188E-05  0.00000000000E+00  1.
        4    1    7    7  703    0 -1.93854678306E+02  2.68144712377E+02 -2.57450698115E+02  4.19239889606E+02  6.60724947956E-06  0.00000000000E+00  1.
</event>
<event>
 9 110   1.0000000E+00   7.4550000E+01   7.8125000E-03   1.3429423E-01
        2   -1    0    0  502    0  0.00000000000E+00  0.00000000000E+00  3.46173654190E+03  3.46173654190E+03  0.00000000000E+00  0.00000000000E+00  1.
        5   -1    0    0  501    0  0.00000000000E+00  0.00000000000E+00 -4.26010447800E+02  4.26010447800E+02  0.00000000000E+00  0.00000000000E+00  1.
       25    1    1    2    0    0 -3.52698406465E+02  5.45317210099E+02 -3.49705416840E+01  6.62280125278E+02  1.25000000000E+02  0.00000000000E+00  1.
        6    2    1    2  501    0  6.68062888709E+01 -4.59663327544E+02  8.41186769600E+02  9.76070248902E+02  1.71360714633E+02  0.00000000000E+00  1.
        1    1    1    2  502    0  2.85892117594E+02 -8.56538825551E+01  2.22950986618E+03  2.24939661552E+03  4.31583728752E-05  0.00000000000E+00  1.
        5    1    4    4  501    0 -4.41297336763E+01 -1.04721513132E+02  1.76410865953E+02  2.09898510793E+02  4.75000000000E+00  0.00000000000E+00  1.
       24    2    4    4    0    0  1.10936022547E+02 -3.54941814412E+02  6.64775903648E+02  7.66171738109E+02  8.24720406544E+01  0.00000000000E+00  1.
       -1    1    7    7    0  703  7.67471420233E+01 -3.22574630206E+02  5.51527638222E+02  6.43527195683E+02  7.62939453125E-06  0.00000000000E+00  1.
        2    1    7    7  703    0  3.41888805238E+01 -3.23671842063E+01  1.13248265426E+02  1.22644542426E+02  8.20381666855E-06  0.00000000000E+00  1.
</event>
<event>
 9 110   1.0000000E+00   7.4550000E+01   7.8125000E-03   1.3429423E-01
        5   -1    0    0  501    0  0.00000000000E+00  0.00000000000E+00  1.17567377492E+03  1.17567377492E+03  0.00000000000E+00  0.00000000000E+00  1.
        2   -1    0    0  502    0  0.00000000000E+00  0.00000000000E+00 -2.11594351250E+03  2.11594351250E+03  0.00000000000E+00  0.00000000000E+00  1.
       25    1    1    2    0    0 -5.62460207110E+02 -1.83735527647E+02  9.48008363547E+02  1.12448436452E+03  1.25000000000E+02  0.00000000000E+00  1.
        6    2    1    2  501    0  5.44025998481E+02  2.17797349035E+02 -5.32737721728E+02  8.11039361263E+02  1.74858208544E+02  0.00000000000E+00  1.
        1    1    1    2  502    0  1.84342086287E+01 -3.40618213884E+01 -1.35554037940E+03  1.35609356163E+03  1.52587890625E-05  0.00000000000E+00  1.
        5    1    4    4  501    0  6.99097213277E+01  8.64521956922E+01 -1.23248654646E+02  1.66054643561E+02  4.75000000001E+00  0.00000000000E+00  1.
       24    2    4    4    0    0  4.74116277153E+02  1.31345153343E+02 -4.09489067082E+02  6.44984717701E+02  7.92855373979E+01  0.00000000000E+00  1.
       -3    1    7    7    0  703  3.50883417614E+02  1.29510351965E+02 -3.25670666472E+02  4.95936978882E+02  6.60724947956E-06  0.00000000000E+00  1.
        4    1    7    7  703    0  1.23232859539E+02  1.83480137817E+00 -8.38184006097E+01  1.49047738819E+02  3.69356474515E-06  0.00000000000E+00  1.
</event>
<event>
 9 110   1.0000000E+00   7.4550000E+01   7.8125000E-03   1.3429423E-01
        5   -1    0    0  501    0  0.00000000000E+00  0.00000000000E+00  5.86901707697E+02  5.86901707697E+02  0.00000000000E+00  0.00000000000E+00  1.
        2   -1    0    0  502    0  0.00000000000E+00  0.00000000000E+00 -1.76321277252E+03  1.76321277252E+03  0.00000000000E+00  0.00000000000E+00  1.
       25    1    1    2    0    0 -1.44353857429E+02  3.18938192686E+02  3.95765326071E+02  5.42968507584E+02  1.25000000000E+02  0.00000000000E+00  1.
        6    2    1    2  501    0  2.64987948500E+02  5.90859946582E+01 -2.00658686604E+02  3.79476056375E+02  1.73287048671E+02  0.00000000000E+00  1.
        1    1    1    2  502    0 -1.20634091071E+02 -3.78024187344E+02 -1.37141770430E+03  1.42766991626E+03  2.64289979182E-05  0.00000000000E+00  1.
        5    1    4    4  501    0  1.36814942511E+02 -2.55039128042E+01 -1.34473527034E+02  1.93583238002E+02  4.75000000000E+00  0.00000000000E+00  1.
       24    2    4    4    0    0  1.28173005990E+02  8.45899074625E+01 -6.61851595698E+01  1.85892818373E+02  8.11904715239E+01  0.00000000000E+00  1.
       -3    1    7    7    0  703  9.34430359644E+01  4.38337564053E+01 -8.00066501160E+01  1.30591206571E+02  2.52318507296E-06  0.00000000000E+00  1.
        4    1    7    7  703    0  3.47299700255E+01  4.07561510572E+01  1.38214905462E+01  5.53016118019E+01  6.07850493621E-07  0.00000000000E+00  1.
</event>
<event>
 9 110   1.0000000E+00   7.4550000E+01   7.8125000E-03   1.3429423E-01
        2   -1    0    0  502    0  0.00000000000E+00  0.00000000000E+00  9.87394051227E+02  9.87394051227E+02  0.00000000000E+00  0.00000000000E+00  1.
        5   -1    0    0  501    0  0.00000000000E+00  0.00000000000E+00 -8.53358836316E+02  8.53358836316E+02  0.00000000000E+00  0.00000000000E+00  1.
       25    1    1    2    0    0 -4.33877097565E+02 -6.84985876439E+00 -6.19979730662E+02  7.67004643263E+02  1.25000000000E+02  0.00000000000E+00  1.
        6    2    1    2  501    0  2.01774249732E+02  2.76098032494E+02  5.28420252167E+02  6.52726538518E+02  1.72861215385E+02  0.00000000000E+00  1.
        1    1    1    2  502    0  2.32102847833E+02 -2.69248173729E+02  2.25594693407E+02  4.21021705761E+02  7.13664510112E-06  0.00000000000E+00  1.
        5    1    4    4  501    0  1.72968954705E+02  1.39567674732E+02  3.07620774265E+02  3.79539850847E+02  4.75000000000E+00  0.00000000000E+00  1.
       24    2    4    4    0    0  2.88052950273E+01  1.36530357761E+02  2.20799477902E+02  2.73186687671E+02  8.00516912181E+01  0.00000000000E+00  1.
       -3    1    7    7    0  703  3.82872628792E+01  1.43869812442E+02  2.04216313326E+02  2.52722654424E+02  3.81469726562E-06  0.00000000000E+00  1.
        4    1    7    7  703    0 -9.48196785184E+00 -7.33945468103E+00  1.65831645765E+01  2.04640332469E+01  2.68684093227E-06  0.00000000000E+00  1.
</event>
<event>
 9 110   1.0000000E+00   7.4550000E+01   7.8125000E-03   1.3429423E-01
        5   -1    0    0  501    0  0.00000000000E+00  0.00000000000E+00  6.56460449716E+02  6.56460449716E+02  0.00000000000E+00  0.00000000000E+00  1.
        2   -1    0    0  502    0  0.00000000000E+00  0.00000000000E+00 -3.72808874802E+03  3.72808874802E+03  0.00000000000E+00  0.00000000000E+00  1.
       25    1    1    2    0    0 -3.24608984314E+02  1.25880659482E+02  4.82416693896E+00  3.69952977709E+02  1.25000000000E+02  0.00000000000E+00  1.
        6    2    1    2  501    0  2.52878380656E+02 -1.83586440717E+02  4.00630676923E+02  5.36294563440E+02  1.71625938791E+02  0.00000000000E+00  1.
        1    1    1    2  502    0  7.17306036585E+01  5.77057812349E+01 -3.47708314216E+03  3.47830165659E+03  6.10351562500E-05  0.00000000000E+00  1.
        5    1    4    4  501    0  7.62415769629E+01 -1.33794388651E+02  1.68642550493E+02  2.28421953475E+02  4.75000000000E+00  0.00000000000E+00  1.
       24    2    4    4    0    0  1.76636803693E+02 -4.97920520659E+01  2.31988126429E+02  3.07872609965E+02  8.53653576993E+01  0.00000000000E+00  1.
       -3    1    7    7    0  703  1.33912222707E+02 -4.96691427255E+01  1.15137666778E+02  1.83456233038E+02  3.01578298585E-06  0.00000000000E+00  1.
        4    1    7    7  703    0  4.27245809859E+01 -1.22909340353E-01  1.16850459651E+02  1.24416376927E+02  2.33601545599E-06  0.00000000000E+00  1.
</event>
<event>
 9 110   1.0000000E+00   7.4550000E+01   7.8125000E-03   1.3429423E-01
        2   -1    0    0  502    0  0.00000000000E+00  0.00000000000E+00  1.86911730083E+03  1.86911730083E+03  0.00000000000E+00  0.00000000000E+00  1.
        5   -1    0    0  501    0  0.00000000000E+00  0.00000000000E+00 -6.00475286476E+02  6.00475286476E+02  0.00000000000E+00  0.00000000000E+00  1.
       25    1    1    2    0    0  1.28217422293E+01  3.07923371151E+02 -3.16804347327E+02  4.59316006754E+02  1.25000000000E+02  0.00000000000E+00  1.
        6    2    1    2  501    0 -3.22115241647E+01 -3.55346844100E+02 -2.68219349908E+01  3.97194434509E+02  1.72438512830E+02  0.00000000000E+00  1.
        1    1    1    2  502    0  1.93897819354E+01  4.74234729492E+01  1.61226829667E+03  1.61308214604E+03  3.73762472959E-05  0.00000000000E+00  1.
        5    1    4    4  501    0 -6.87356921347E+01 -2.37468664062E+02 -5.74532258891E-01  2.47262723378E+02  4.75000000000E+00  0.00000000000E+00  1.
       24    2    4    4    0    0  3.65241679700E+01 -1.17878180038E+02 -2.62474027319E+01  1.49931711131E+02  8.10019239127E+01  0.00000000000E+00  1.
      -13    1    7    7    0    0  4.35036360937E+01 -1.19008016112E+02 -4.13248935594E+01  1.33278776420E+02  1.05659999978E-01  0.00000000000E+00  1.
       14    1    7    7    0    0 -6.97946812371E+00  1.12983607387E+00  1.50774908275E+01  1.66529347112E+01  2.78041453116E-06  0.00000000000E+00  1.
</event>
<event>
 9 110   1.0000000E+00   7.4550000E+01   7.8125000E-03   1.3429423E-01
        5   -1    0    0  501    0  0.00000000000E+00  0.00000000000E+00  2.20889662729E+02  2.20889662729E+02  0.00000000000E+00  0.00000000000E+00  1.
        2   -1    0    0  502    0  0.00000000000E+00  0.00000000000E+00 -3.05761047888E+03  3.05761047888E+03  0.00000000000E+00  0.00000000000E+00  1.
       25    1    1    2    0    0  3.42463147198E+01  2.44652250008E+02  1.13294293794E+02  2.99145667714E+02  1.25000000000E+02  0.00000000000E+00  1.
        6    2    1    2  501    0 -1.11778125913E+02 -2.60376831050E+02 -2.16428495145E+03  2.18965179176E+03  1.73652453260E+02  0.00000000000E+00  1.
        1    1    1    2  502    0  7.75318111928E+01  1.57245810417E+01 -7.85730158501E+02  7.89702682136E+02  2.41262638868E-05  0.00000000000E+00  1.
        5    1    4    4  501    0 -1.28676811001E+01 -1.61151385549E+01 -2.74577169792E+01  3.46664626007E+01  4.74999999984E+00  0.00000000000E+00  1.
       24    2    4    4    0    0 -9.89104448125E+01 -2.44261692495E+02 -2.13682723447E+03  2.15498532916E+03  9.21091114951E+01  0.00000000000E+00  1.
       -3    1    7    7    0  703 -4.10681338986E+01 -2.04165773772E+02 -1.65256965612E+03  1.66564003408E+03  2.15791864376E-05  0.00000000000E+00  1.
        4    1    7    7  703    0 -5.78423109139E+01 -4.00959187231E+01 -4.84257578347E+02  4.89345295080E+02  5.39479660939E-06  0.00000000000E+00  1.
</event>
<event>
 9 110   1.0000000E+00   7.4550000E+01   7.8125000E-03   1.3429423E-01
        5   -1    0    0  501    0  0.00000000000E+00  0.00000000000E+00  1.04438199436E+03  1.04438199436E+03  0.00000000000E+00  0.00000000000E+00  1.
        2   -1    0    0  502    0  0.00000000000E+00  0.00000000000E+00 -8.50106350373E+02  8.50106350373E+02  0.00000000000E+00  0.00000000000E+00  1.
       25    1    1    2    0    0  4.77632941627E+02 -2.36831054012E+02  8.33074497310E+02  9.96925420049E+02  1.25000000000E+02  0.00000000000E+00  1.
        6    2    1    2  501    0 -4.20972598124E+02  2.94165708022E+02 -5.00246528330E+02  7.37268184172E+02  1.71948812554E+02  0.00000000000E+00  1.
        1    1    1    2  502    0 -5.66603435031E+01 -5.73346540096E+01 -1.38552324990E+02  1.60294740514E+02  5.04637014592E-06  0.00000000000E+00  1.
        5    1    4    4  501    0 -1.78353869714E+02  4.52760974362E+01 -1.49235284660E+02  2.36967847035E+02  4.75000000001E+00  0.00000000000E+00  1.
       24    2    4    4    0    0 -2.42618728410E+02  2.48889610586E+02 -3.51011243670E+02  5.00300337137E+02  7.92568515873E+01  0.00000000000E+00  1.
       -1    1    7    7    0  703 -5.16108954402E+00  1.61878848919E+01 -2.25672476799E-01  1.69922155889E+01  5.47127908635E-06  0.00000000000E+00  1.
        2    1    7    7  703    0 -2.37457638866E+02  2.32701725694E+02 -3.50785571193E+02  4.83308121548E+02  7.62939453125E-06  0.00000000000E+00  1.
</event>
<event>
 9 110   1.0000000E+00   7.4550000E+01   7.8125000E-03   1.3429423E-01
        2   -1    0    0  502    0  0.00000000000E+00  0.00000000000E+00  5.51415348609E+02  5.51415348609E+02  0.00000000000E+00  0.00000000000E+00  1.
        5   -1    0    0  501    0  0.00000000000E+00  0.00000000000E+00 -8.81292405663E+02  8.81292405663E+02  0.00000000000E+00  0.00000000000E+00  1.
       25    1    1    2    0    0  1.47239227649E+02  5.23935298052E+01 -8.15782349619E+02  8.39970424524E+02  1.25000000000E+02  0.00000000000E+00  1.
        6    2    1    2  501    0 -1.20600492417E+02  4.89621787835E+00  1.71340751464E+02  2.71890656208E+02  1.73200531466E+02  0.00000000000E+00  1.
        1    1    1    2  502    0 -2.66387352316E+01 -5.72897476836E+01  3.14564541101E+02  3.20846673542E+02  5.39479660939E-06  0.00000000000E+00  1.
        5    1    4    4  501    0 -1.75937086977E+01 -4.27644067220E+01  1.07920873915E+02  1.17506640641E+02  4.75000000000E+00  0.00000000000E+00  1.
       24    2    4    4    0    0 -1.03006783719E+02  4.76606246004E+01  6.34198775487E+01  1.54384015567E+02  8.32490886729E+01  0.00000000000E+00  1.
       -3    1    7    7    0  703 -1.12131071648E+02  2.42916512954E+01  4.49151263651E+01  1.23210511435E+02  1.65181236989E-06  0.00000000000E+00  1.
        4    1    7    7  703    0  9.12428792871E+00  2.33689733050E+01  1.85047511835E+01  3.11735041325E+01  1.16800772800E-06  0.00000000000E+00  1.
</event>
<event>
 9 110   1.0000000E+00   7.4550000E+01   7.8125000E-03   1.3429423E-01
        5   -1    0    0  501    0  0.00000000000E+00  0.00000000000E+00  3.25187014609E+02  3.25187014609E+02  0.00000000000E+00  0.00000000000E+00  1.
        2   -1    0    0  502    0  0.00000000000E+00  0.00000000000E+00 -2.59039707357E+03  2.59039707357E+03  0.00000000000E+00  0.00000000000E+00  1.
       25    1    1    2    0    0 -6.38087520584E+00  4.17347954846E+00  3.04559358505E+02  3.29301588749E+02  1.25000000000E+02  0.00000000000E+00  1.
        6    2    1    2  501    0  7.43086368731E+01  3.31798449738E+00 -1.25751295822E+03  1.27224775192E+03  1.78164866429E+02  0.00000000000E+00  1.
        1    1    1    2  502    0 -6.79277616673E+01 -7.49146404584E+00 -1.31225645925E+03  1.31403474751E+03  1.52587890625E-05  0.00000000000E+00  1.
        5    1    4    4  501    0 -3.68894882804E+01  3.31585836295E+01 -2.48657446138E+02  2.53600895176E+02  4.75000000001E+00  0.00000000000E+00  1.
       24    2    4    4    0    0  1.11198125153E+02 -2.98405991322E+01 -1.00885551208E+03  1.01864685674E+03  8.12187792044E+01  0.00000000000E+00  1.
      -11    1    7    7    0    0  2.25199622179E+01  5.59198543248E+00 -5.21930354919E+02  5.22445896132E+02  5.10998597706E-04  0.00000000000E+00  1.
       12    1    7    7    0    0  8.86781629355E+01 -3.54325845647E+01 -4.86925157163E+02  4.96200960608E+02  9.34406182397E-06  0.00000000000E+00  1.
</event>
<event>
 9 110   1.0000000E+00   7.4550000E+01   7.8125000E-03   1.3429423E-01
        5   -1    0    0  501    0  0.00000000000E+00  0.00000000000E+00  2.90178880163E+02  2.90178880163E+02  0.00000000000E+00  0.00000000000E+00  1.
        2   -1    0    0  502    0  0.00000000000E+00  0.00000000000E+00 -3.34982660461E+03  3.34982660461E+03  0.00000000000E+00  0.00000000000E+00  1.
       25    1    1    2    0    0  5.38873919684E+02  5.15318899236E+02 -4.31918427626E+02  8.70699257694E+02  1.25000000000E+02  0.00000000000E+00  1.
        6    2    1    2  501    0 -5.45070969582E+02 -5.31579789783E+02 -2.08506096717E+03  2.22635895893E+03  1.71800880072E+02  0.00000000000E+00  1.
        1    1    1    2  502    0  6.19704989805E+00  1.62608905467E+01 -5.42668329649E+02  5.42947268151E+02  2.15791864376E-05  0.00000000000E+00  1.
        5    1    4    4  501    0 -1.97933586754E+02 -1.28354743130E+02 -7.73125094175E+02  8.08330142078E+02  4.75000000006E+00  0.00000000000E+00  1.
       24    2    4    4    0    0 -3.47137382828E+02 -4.03225046654E+02 -1.31193587300E+03  1.41802881685E+03  8.08405205213E+01  0.00000000000E+00  1.
       -1    1    7    7    0  703 -1.59343980671E+02 -1.27355541973E+02 -5.26591842513E+02  5.64720202267E+02  7.62939453125E-06  0.00000000000E+00  1.
        2    1    7    7  703    0 -1.87793402156E+02 -2.75869504680E+02 -7.85344030484E+02  8.53308614584E+02  2.15791864376E-05  0.00000000000E+00  1.
</event>
<event>
 9 110   1.0000000E+00   7.4550000E+01   7.8125000E-03   1.3429423E-01
        5   -1    0    0  501    0  0.00000000000E+00  0.00000000000E+00  9.61549663228E+02  9.61549663228E+02  0.00000000000E+00  0.00000000000E+00  1.
        2   -1    0    0  502    0  0.00000000000E+00  0.00000000000E+00 -2.96847862462E+03  2.96847862462E+03  0.00000000000E+00  0.00000000000E+00  1.
       25    1    1    2    0    0  1.19497435586E+03  2.98308707087E+02 -3.88975137672E+02  1.29764342314E+03  1.25000000000E+02  0.00000000000E+00  1.
        6    2    1    2  501    0 -1.24116505692E+03 -3.07507974000E+02 -3.14183136066E+02  1.32776376517E+03  1.70861699947E+02  0.00000000000E+00  1.
        1    1    1    2  502    0  4.61907010636E+01  9.19926691257E+00 -1.30377068765E+03  1.30462109954E+03  2.15791864376E-05  0.00000000000E+00  1.
        5    1    4    4  501    0 -2.05337675467E+02  1.14457679014E+00 -6.72024492582E+01  2.16110163362E+02  4.75000000000E+00  0.00000000000E+00  1.
       24    2    4    4    0    0 -1.03582738146E+03 -3.08652550790E+02 -2.46980686807E+02  1.11165360181E+03  8.10525105821E+01  0.00000000000E+00  1.
       -1    1    7    7    0  703 -1.90892705064E+02 -3.93189300207E+01 -7.17275655219E+01  2.07679673440E+02  1.08316580692E-05  0.00000000000E+00  1.
        2    1    7    7  703    0 -8.44934676392E+02 -2.69333620770E+02 -1.75253121286E+02  9.03973928367E+02  1.06196677453E-05  0.00000000000E+00  1.
</event>
<event>
 9 110   1.0000000E+00   7.4550000E+01   7.8125000E-03   1.3429423E-01
        5   -1    0    0  501    0  0.00000000000E+00  0.00000000000E+00  1.35559953417E+03  1.35559953417E+03  0.00000000000E+00  0.00000000000E+00  1.
        2   -1    0    0  502    0  0.00000000000E+00  0.00000000000E+00 -2.07216698534E+03  2.07216698534E+03  0.00000000000E+00  0.00000000000E+00  1.
       25    1    1    2    0    0  2.69895155133E+02 -5.96233220756E+02  1.17535564176E+03  1.35108228207E+03  1.25000000000E+02  0.00000000000E+00  1.
        6    2    1    2  501    0 -2.95332090330E+02  3.24356613924E+02 -6.35560241267E+02  7.90989272817E+02  1.71169368920E+02  0.00000000000E+00  1.
        1    1    1    2  502    0  2.54369351976E+01  2.71876606831E+02 -1.25636285166E+03  1.28569496462E+03  0.00000000000E+00  0.00000000000E+00  1.
        5    1    4    4  501    0  1.04490608432E+01  2.10401828969E+01 -7.97487626338E+01  8.32724432838E+01  4.74999999999E+00  0.00000000000E+00  1.
       24    2    4    4    0    0 -3.05781151173E+02  3.03316431027E+02 -5.55811478634E+02  7.07716829533E+02  8.02106057787E+01  0.00000000000E+00  1.
       -3    1    7    7    0  703 -1.09958380768E+02  1.60965991550E+02 -2.72663162431E+02  3.35180691693E+02  3.81469726562E-06  0.00000000000E+00  1.
        4    1    7    7  703    0 -1.95822770405E+02  1.42350439478E+02 -2.83148316203E+02  3.72536137841E+02  5.39479660939E-06  0.00000000000E+00  1.
</event>
<event>
 9 110   1.0000000E+00   7.4550000E+01   7.8125000E-03   1.3429423E-01
        2   -1    0    0  502    0  0.00000000000E+00  0.00000000000E+00  3.32251605506E+03  3.32251605506E+03  0.00000000000E+00  0.00000000000E+00  1.
        5   -1    0    0  501    0  0.00000000000E+00  0.00000000000E+00 -5.42455774705E+02  5.42455774705E+02  0.00000000000E+00  0.00000000000E+00  1.
       25    1    1    2    0    0 -3.35139449445E+02 -5.31198709288E+02 -2.93789552663E+02  7.04576341199E+02  1.25000000000E+02  0.00000000000E+00  1.
        6    2    1    2  501    0  3.27910074365E+02  5.62029747408E+02  2.61159791477E+03  2.69706013194E+03  1.74032275830E+02  0.00000000000E+00  1.
        1    1    1    2  502    0  7.22937508033E+00 -3.08310381199E+01  4.62251918240E+02  4.63335356618E+02  1.07895932188E-05  0.00000000000E+00  1.
        5    1    4    4  501    0  2.31251818052E+02  4.31582561869E+02  1.78708372392E+03  1.85295216071E+03  4.75000000015E+00  0.00000000000E+00  1.
       24    2    4    4    0    0  9.66582563132E+01  1.30447185539E+02  8.24514190854E+02  8.44107971240E+02  7.95947828801E+01  0.00000000000E+00  1.
       -1    1    7    7    0  703  8.79518322536E+00  6.81421203303E+01  4.15825117757E+02  4.21463204051E+02  5.39479660939E-06  0.00000000000E+00  1.
        2    1    7    7  703    0  8.78630730878E+01  6.23050652087E+01  4.08689073097E+02  4.22644767189E+02  9.34406182397E-06  0.00000000000E+00  1.
</event>
<event>
 9 110   1.0000000E+00   7.4550000E+01   7.8125000E-03   1.3429423E-01
        2   -1    0    0  502    0  0.00000000000E+00  0.00000000000E+00  3.77889118774E+03  3.77889118774E+03  0.00000000000E+00  0.00000000000E+00  1.
        5   -1    0    0  501    0  0.00000000000E+00  0.00000000000E+00 -3.80762879280E+01  3.80762879280E+01  0.00000000000E+00  0.00000000000E+00  1.
       25    1    1    2    0    0  2.22809366576E+02 -5.30767334748E+01  6.08958063015E+02  6.62507415794E+02  1.25000000000E+02  0.00000000000E+00  1.
        6    2    1    2  501    0 -2.59967240204E+02  2.18757596304E+01  2.25567100842E+03  2.27693181863E+03  1.68241771277E+02  0.00000000000E+00  1.
        1    1    1    2  502    0  3.71578736276E+01  3.12009738444E+01  8.76185828375E+02  8.77528241247E+02  1.07895932188E-05  0.00000000000E+00  1.
        5    1    4    4  501    0 -1.47036788677E+02  5.86321298801E+01  1.45306566224E+03  1.46167025186E+03  4.75000000000E+00  0.00000000000E+00  1.
       24    2    4    4    0    0 -1.12930451527E+02 -3.67563702497E+01  8.02605346183E+02  8.15261566772E+02  7.98233230249E+01  0.00000000000E+00  1.
      -15    1    7    7    0    0  8.05458035353E+00 -3.54598764845E+00  1.75493152455E+02  1.75722661799E+02  1.77680000003E+00  0.00000000000E+00  1.
       16    1    7    7    0    0 -1.20985031881E+02 -3.32103826012E+01  6.27112193728E+02  6.39538904973E+02  0.00000000000E+00  0.00000000000E+00  1.
</event>
<event>
 9 110   1.0000000E+00   7.4550000E+01   7.8125000E-03   1.3429423E-01
        2   -1    0    0  502    0  0.00000000000E+00  0.00000000000E+00  1.61154555169E+03  1.61154555169E+03  0.00000000000E+00  0.00000000000E+00  1.
        5   -1    0    0  501    0  0.00000000000E+00  0.00000000000E+00 -1.06084064349E+03  1.06084064349E+03  0.00000000000E+00  0.00000000000E+00  1.
       25    1    1    2    0    0  2.61011745822E+02  4.89835663257E+02 -7.61061886170E+02  9.50213819640E+02  1.25000000000E+02  0.00000000000E+00  1.
        6    2    1    2  501    0 -2.61828489295E+02 -2.55225574293E+02  1.51408135100E+01  4.04492029195E+02  1.72308751575E+02  0.00000000000E+00  1.
        1    1    1    2  502    0  8.16743472738E-01 -2.34610088964E+02  1.29662598085E+03  1.31768034634E+03  3.05175781250E-05  0.00000000000E+00  1.
        5    1    4    4  501    0 -6.73392427843E+01 -7.16190039056E+00  3.85817367566E+01  7.80831566160E+01  4.75000000000E+00  0.00000000000E+00  1.
       24    2    4    4    0    0 -1.94489246510E+02 -2.48063673903E+02 -2.34409232466E+01  3.26408872579E+02  8.14347708142E+01  0.00000000000E+00  1.
       -1    1    7    7    0  703 -5.87336762511E+01 -4.77174159410E+01 -3.65637778698E+01  8.40446688504E+01  3.47142691101E-06  0.00000000000E+00  1.
        2    1    7    7  703    0 -1.35755570259E+02 -2.00346257962E+02  1.31228546233E+01  2.42364203729E+02  3.61579677775E-06  0.00000000000E+00  1.
</event>
<event>
 9 110   1.0000000E+00   7.4550000E+01   7.8125000E-03   1.3429423E-01
        5   -1    0    0  501    0  0.00000000000E+00  0.00000000000E+00  9.53093710906E+02  9.53093710906E+02  0.00000000000E+00  0.00000000000E+00  1.
        2   -1    0    0  502    0  0.00000000000E+00  0.00000000000E+00 -3.51251181280E+03  3.51251181280E+03  0.00000000000E+00  0.00000000000E+00  1.
       25    1    1    2    0    0  4.92992438035E+02  7.84576468312E+02  5.88193236901E+02  1.10462575677E+03  1.25000000000E+02  0.00000000000E+00  1.
        6    2    1    2  501    0 -4.52065181297E+02 -7.24400070936E+02 -1.68515178467E+03  1.89671060226E+03  1.69281364770E+02  0.00000000000E+00  1.
        1    1    1    2  502    0 -4.09272567379E+01 -6.01763973761E+01 -1.46245955412E+03  1.46426916467E+03  3.05175781250E-05  0.00000000000E+00  1.
        5    1    4    4  501    0 -5.33840044511E+01 -2.73191041785E+01 -1.65120836823E+02  1.75737413881E+02  4.75000000004E+00  0.00000000000E+00  1.
       24    2    4    4    0    0 -3.98681176846E+02 -6.97080966757E+02 -1.52003094785E+03  1.72097318838E+03  7.99129385115E+01  0.00000000000E+00  1.
       -3    1    7    7    0  703 -1.51198730490E+02 -2.76706304146E+02 -6.80552489082E+02  7.50052748313E+02  1.07895932188E-05  0.00000000000E+00  1.
        4    1    7    7  703    0 -2.47482446356E+02 -4.20374662611E+02 -8.39478458764E+02  9.70920440071E+02  1.07895932188E-05  0.00000000000E+00  1.
</event>
<event>
 9 110   1.0000000E+00   7.4550000E+01   7.8125000E-03   1.3429423E-01
        5   -1    0    0  501    0  0.00000000000E+00  0.00000000000E+00  2.47220247048E+03  2.47220247048E+03  0.00000000000E+00  0.00000000000E+00  1.
        2   -1    0    0  502    0  0.00000000000E+00  0.00000000000E+00 -1.11496755556E+03  1.11496755556E+03  0.00000000000E+00  0.00000000000E+00  1.
       25    1    1    2    0    0 -1.32771743278E+02 -9.47536718557E+02  1.92544942127E+03  2.15370254276E+03  1.25000000000E+02  0.00000000000E+00  1.
        6    2    1    2  501    0  1.08126346290E+02  8.80017827240E+02 -4.48857546460E+01  9.05225892106E+02  1.76908173207E+02  0.00000000000E+00  1.
        1    1    1    2  502    0  2.46453969877E+01  6.75188913169E+01 -5.23328751711E+02  5.28241591173E+02  1.07895932188E-05  0.00000000000E+00  1.
        5    1    4    4  501    0  6.87771497842E+01  2.58068810507E+02 -7.10697941888E+01  2.76411442301E+02  4.75000000000E+00  0.00000000000E+00  1.
       24    2    4    4    0    0  3.93491965057E+01  6.21949016733E+02  2.61840395428E+01  6.28814449805E+02  7.97061457872E+01  0.00000000000E+00  1.
       -1    1    7    7    0  703  3.66823689521E+01  1.03566379212E+02  5.84124567848E+00  1.10025957147E+02  1.06056077181E-05  0.00000000000E+00  1.
        2    1    7    7  703    0  2.66682755363E+00  5.18382637521E+02  2.03427938644E+01  5.18788492658E+02  7.41017831226E-06  0.00000000000E+00  1.
</event>
<event>
 9 110   1.0000000E+00   7.4550000E+01   7.8125000E-03   1.3429423E-01
        5   -1    0    0  501    0  0.00000000000E+00  0.00000000000E+00  8.17370729199E+02  8.17370729199E+02  0.00000000000E+00  0.00000000000E+00  1.
        2   -1    0    0  502    0  0.00000000000E+00  0.00000000000E+00 -3.98674842918E+03  3.98674842918E+03  0.00000000000E+00  0.00000000000E+00  1.
       25    1    1    2    0    0  4.69530957285E+02  9.16829979930E+02  2.03657519376E+02  1.05742040700E+03  1.25000000000E+02  0.00000000000E+00  1.
        6    2    1    2  501    0 -5.61388375309E+02 -8.82984387474E+02 -1.32900491645E+03  1.70032557217E+03  1.73305069097E+02  0.00000000000E+00  1.
        1    1    1    2  502    0  9.18574180234E+01 -3.38455924555E+01 -2.04403030291E+03  2.04637317921E+03  2.15791864376E-05  0.00000000000E+00  1.
        5    1    4    4  501    0 -2.43723306421E+00  4.74527861091E+00 -3.43687490247E+00  7.92668803480E+00  4.75000000014E+00  0.00000000000E+00  1.
       24    2    4    4    0    0 -5.58951142245E+02 -8.87729666085E+02 -1.32556804155E+03  1.69239888414E+03  8.11973570286E+01  0.00000000000E+00  1.
       -3    1    7    7    0  703 -2.81012831791E+02 -4.42577664102E+02 -5.97221231773E+02  7.94680061455E+02  1.52587890625E-05  0.00000000000E+00  1.
        4    1    7    7  703    0 -2.77938310453E+02 -4.45152001983E+02 -7.28346809778E+02  8.97718822684E+02  1.07895932188E-05  0.00000000000E+00  1.
</event>
<event>
 9 110   1.0000000E+00   7.4550000E+01   7.8125000E-03   1.3429423E-01
        2   -1    0    0  502    0  0.00000000000E+00  0.00000000000E+00  7.55272923569E+02  7.55272923569E+02  0.00000000000E+00  0.00000000000E+00  1.
        5   -1    0    0  501    0  0.00000000000E+00  0.00000000000E+00 -5.83420161309E+02  5.83420161309E+02  0.00000000000E+00  0.00000000000E+00  1.
       25    1    1    2    0    0 -6.71735593476E+01  2.50438156190E+02 -3.52167428676E+02  4.54838932999E+02  1.25000000000E+02  0.00000000000E+00  1.
        6    2    1    2  501    0  3.15999894879E+02 -1.29657718819E+02  1.32635068411E+02  4.04599758640E+02  1.71586263164E+02  0.00000000000E+00  1.
        1    1    1    2  502    0 -2.48826335531E+02 -1.20780437371E+02  3.91385122525E+02  4.79254393239E+02  7.62939453125E-06  0.00000000000E+00  1.
        5    1    4    4  501    0  2.04486224685E+01  3.00826166897E+01  1.76308771312E+00  3.67257534442E+01  4.75000000000E+00  0.00000000000E+00  1.
       24    2    4    4    0    0  2.95551272410E+02 -1.59740335509E+02  1.30871980698E+02  3.67874005196E+02  7.30498388455E+01  0.00000000000E+00  1.
       -3    1    7    7    0  703  2.44085374039E+02 -1.09206844692E+02  7.83309164021E+01  2.78638721666E+02  4.95543710967E-06  0.00000000000E+00  1.
        4    1    7    7  703    0  5.14658983713E+01 -5.05334908173E+01  5.25410642961E+01  8.92352835302E+01  4.04609745705E-06  0.00000000000E+00  1.
</event>
<event>
 9 110   1.0000000E+00   7.4550000E+01   7.8125000E-03   1.3429423E-01
        5   -1    0    0  501    0  0.00000000000E+00  0.00000000000E+00  1.02821758347E+03  1.02821758347E+03  0.00000000000E+00  0.00000000000E+00  1.
        2   -1    0    0  502    0  0.00000000000E+00  0.00000000000E+00 -7.41880352800E+02  7.41880352800E+02  0.00000000000E+00  0.00000000000E+00  1.
       25    1    1    2    0    0  3.69151952323E+01 -3.27890720023E+02  7.27988941498E+02  8.08991937450E+02  1.25000000000E+02  0.00000000000E+00  1.
        6    2    1    2  501    0 -8.69585989747E+01  3.03902455398E+02  1.32460617045E+02  3.84317697862E+02  1.73884379660E+02  0.00000000000E+00  1.
        1    1    1    2  502    0  5.00434037424E+01  2.39882646252E+01 -5.74112327876E+02  5.76788300954E+02  1.07895932188E-05  0.00000000000E+00  1.
        5    1    4    4  501    0 -1.01726566086E+02  1.26927173017E+02  5.06444438038E+01  1.70429527037E+02  4.75000000000E+00  0.00000000000E+00  1.
       24    2    4    4    0    0  1.47679671114E+01  1.76975282381E+02  8.18161732409E+01  2.13888170826E+02  8.66944057535E+01  0.00000000000E+00  1.
       -1    1    7    7    0  703  6.90488391564E+00  1.14657939954E+02  5.43039877251E+00  1.14993955698E+02  1.60490417693E-06  0.00000000000E+00  1.
        2    1    7    7  703    0  7.86308319577E+00  6.23173424275E+01  7.63857744684E+01  9.88942151276E+01  1.65181236989E-06  0.00000000000E+00  1.
</event>
<event>
 9 110   1.0000000E+00   7.4550000E+01   7.8125000E-03   1.3429423E-01
        2   -1    0    0  502    0  0.00000000000E+00  0.00000000000E+00  8.82101480781E+02  8.82101480781E+02  0.00000000000E+00  0.00000000000E+00  1.
        5   -1    0    0  501    0  0.00000000000E+00  0.00000000000E+00 -1.73087553010E+03  1.73087553010E+03  0.00000000000E+00  0.00000000000E+00  1.
       25    1    1    2    0    0 -2.90158340520E+02  3.90875755427E+02 -1.21759823284E+03  1.31724947347E+03  1.25000000000E+02  0.00000000000E+00  1.
        6    2    1    2  501    0  2.26627700289E+02 -4.09835612004E+02 -3.27468556876E+02  5.96285474948E+02  1.70280264524E+02  0.00000000000E+00  1.
        1    1    1    2  502    0  6.35306402309E+01  1.89598565772E+01  6.96292740396E+02  6.99442062460E+02  1.07895932188E-05  0.00000000000E+00  1.
        5    1    4    4  501    0  5.37724811424E+01 -2.06126054956E+02 -1.88656583280E+02  2.84593217022E+02  4.75000000000E+00  0.00000000000E+00  1.
       24    2    4    4    0    0  1.72855219147E+02 -2.03709557047E+02 -1.38811973597E+02  3.11692257926E+02  8.06646714400E+01  0.00000000000E+00  1.
       -3    1    7    7    0  703  1.30492026256E+02 -1.96612422811E+02 -1.13740631946E+02  2.61957143585E+02  2.33601545599E-06  0.00000000000E+00  1.
        4    1    7    7  703    0  4.23631928911E+01 -7.09713423605E+00 -2.50713416511E+01  4.97351143407E+01  4.14327316212E-06  0.00000000000E+00  1.
</event>
<event>
 9 110   1.0000000E+00   7.4550000E+01   7.8125000E-03   1.3429423E-01
        5   -1    0    0  501    0  0.00000000000E+00  0.00000000000E+00  8.86134449059E+02  8.86134449059E+02  0.00000000000E+00  0.00000000000E+00  1.
        2   -1    0    0  502    0  0.00000000000E+00  0.00000000000E+00 -1.82906651687E+03  1.82906651687E+03  0.00000000000E+00  0.00000000000E+00  1.
       25    1    1    2    0    0 -3.60184180366E+02 -4.17640124516E+02  7.26537762973E+02  9.20672601101E+02  1.25000000000E+02  0.00000000000E+00  1.
        6    2    1    2  501    0  2.89144298257E+02  3.67672115148E+02 -9.77645187321E+02  1.09727317187E+03  1.71554923962E+02  0.00000000000E+00  1.
        1    1    1    2  502    0  7.10398821095E+01  4.99680093681E+01 -6.91824643466E+02  6.97255192966E+02  1.07895932188E-05  0.00000000000E+00  1.
        5    1    4    4  501    0  4.00165472467E+01  1.56153661806E+02 -3.50663977370E+02  3.85970306726E+02  4.75000000000E+00  0.00000000000E+00  1.
       24    2    4    4    0    0  2.49127751010E+02  2.11518453342E+02 -6.26981209951E+02  7.11302865141E+02  7.77279608587E+01  0.00000000000E+00  1.
       -1    1    7    7    0  703  2.41144931959E+01  4.54331748835E+01 -5.95081247232E+01  7.86568437592E+01  5.87884331033E-06  0.00000000000E+00  1.
        2    1    7    7  703    0  2.25013257814E+02  1.66085278458E+02 -5.67473085228E+02  6.32646021382E+02  7.62939453125E-06  0.00000000000E+00  1.
</event>
<event>
 9 110   1.0000000E+00   7.4550000E+01   7.8125000E-03   1.3429423E-01
        5   -1    0    0  501    0  0.00000000000E+00  0.00000000000E+00  3.44188745823E+02  3.44188745823E+02  0.00000000000E+00  0.00000000000E+00  1.
        2   -1    0    0  502    0  0.00000000000E+00  0.00000000000E+00 -1.10587537363E+03  1.10587537363E+03  0.00000000000E+00  0.00000000000E+00  1.
       25    1    1    2    0    0 -2.88005502796E+02 -1.40702119498E+02 -2.92876090311E+02  4.51824811567E+02  1.25000000000E+02  0.00000000000E+00  1.
        6    2    1    2  501    0  3.59056033521E+02  1.19334943047E+02  9.68740019480E+01  4.27709963932E+02  1.74324918338E+02  0.00000000000E+00  1.
        1    1    1    2  502    0 -7.10505307254E+01  2.13671764517E+01 -5.65684539448E+02  5.70529343957E+02  0.00000000000E+00  0.00000000000E+00  1.
        5    1    4    4  501    0  2.82805789386E+02  1.12968928418E+02  5.68480750838E+01  3.09831178933E+02  4.75000000000E+00  0.00000000000E+00  1.
       24    2    4    4    0    0  7.62502441346E+01  6.36601462857E+00  4.00259268641E+01  1.17878784999E+02  8.02415556843E+01  0.00000000000E+00  1.
      -13    1    7    7    0    0  7.28420081164E+01  2.15087070409E+01  1.08559142679E+00  7.59590172249E+01  1.05660000017E-01  0.00000000000E+00  1.
       14    1    7    7    0    0  3.40823601827E+00 -1.51426924123E+01  3.89403354374E+01  4.19197677740E+01  1.26159253648E-06  0.00000000000E+00  1.
</event>
<event>
 9 110   1.0000000E+00   7.4550000E+01   7.8125000E-03   1.3429423E-01
        5   -1    0    0  501    0  0.00000000000E+00  0.00000000000E+00  3.83861449127E+02  3.83861449127E+02  0.00000000000E+00  0.00000000000E+00  1.
        2   -1    0    0  502    0  0.00000000000E+00  0.00000000000E+00 -1.07213106855E+03  1.07213106855E+03  0.00000000000E+00  0.00000000000E+00  1.
       25    1    1    2    0    0  1.42351333411E+02  7.52909373554E+01  2.80547995010E+02  3.46792163804E+02  1.25000000000E+02  0.00000000000E+00  1.
        6    2    1    2  501    0  4.39120576809E+01 -1.17782526685E+02 -1.33983134548E+02  2.52784453257E+02  1.73630374828E+02  0.00000000000E+00  1.
        1    1    1    2  502    0 -1.86263391091E+02  4.24915893299E+01 -8.34834479888E+02  8.56415900619E+02  0.00000000000E+00  0.00000000000E+00  1.
        5    1    4    4  501    0  7.24464059314E+00 -1.12387200230E+02 -2.28426929626E+01  1.15011819891E+02  4.75000000000E+00  0.00000000000E+00  1.
       24    2    4    4    0    0  3.66674170878E+01 -5.39532645495E+00 -1.11140441585E+02  1.37772633366E+02  7.24947703309E+01  0.00000000000E+00  1.
       -1    1    7    7    0  703  3.84607693254E+01 -1.58149206977E+01 -1.18037780433E+02  1.25148951667E+02  0.00000000000E+00  0.00000000000E+00  1.
        2    1    7    7  703    0 -1.79335223758E+00  1.04195942428E+01  6.89733884834E+00  1.26236816983E+01  1.18910892864E-06  0.00000000000E+00  1.
</event>
<event>
 9 110   1.0000000E+00   7.4550000E+01   7.8125000E-03   1.3429423E-01
        2   -1    0    0  502    0  0.00000000000E+00  0.00000000000E+00  3.63132271685E+03  3.63132271685E+03  0.00000000000E+00  0.00000000000E+00  1.
        5   -1    0    0  501    0  0.00000000000E+00  0.00000000000E+00 -9.96845084153E+01  9.96845084153E+01  0.00000000000E+00  0.00000000000E+00  1.
       25    1    1    2    0    0  1.79323096811E+02  3.59669315386E+02  4.60149539432E+02  6.23603550439E+02  1.25000000000E+02  0.00000000000E+00  1.
        6    2    1    2  501    0 -1.45665434447E+02 -3.25153539085E+02  2.27776907330E+03  2.31222132238E+03  1.76613276932E+02  0.00000000000E+00  1.
        1    1    1    2  502    0 -3.36576623635E+01 -3.45157763006E+01  7.93719595696E+02  7.95182352446E+02  1.07895932188E-05  0.00000000000E+00  1.
        5    1    4    4  501    0 -2.80051808750E+01 -1.95085265206E+01  6.13327772472E+01  7.03501586899E+01  4.75000000001E+00  0.00000000000E+00  1.
       24    2    4    4    0    0 -1.17660253572E+02 -3.05645012565E+02  2.21643629606E+03  2.24187116369E+03  7.83176297093E+01  0.00000000000E+00  1.
      -11    1    7    7    0    0 -9.42197629307E+01 -1.83454663441E+02  1.16674301411E+03  1.18483004614E+03  5.10656754476E-04  0.00000000000E+00  1.
       12    1    7    7    0    0 -2.34404906416E+01 -1.22190349124E+02  1.04969328195E+03  1.05704111755E+03  1.52587890625E-05  0.00000000000E+00  1.
</event>
<event>
 9 110   1.0000000E+00   7.4550000E+01   7.8125000E-03   1.3429423E-01
        2   -1    0    0  502    0  0.00000000000E+00  0.00000000000E+00  1.56848860917E+03  1.56848860917E+03  0.00000000000E+00  0.00000000000E+00  1.
        5   -1    0    0  501    0  0.00000000000E+00  0.00000000000E+00 -5.79577076374E+02  5.79577076374E+02  0.00000000000E+00  0.00000000000E+00  1.
       25    1    1    2    0    0 -7.84900828892E+01 -5.39282827953E+02 -2.74518204374E+02  6.22873908725E+02  1.25000000000E+02  0.00000000000E+00  1.
        6    2    1    2  501    0  1.41359502050E+02  5.87840682930E+02  6.44792992227E+02  9.01475614338E+02  1.77090663487E+02  0.00000000000E+00  1.
        1    1    1    2  502    0 -6.28694191607E+01 -4.85578549763E+01  6.18636744946E+02  6.23716162484E+02  0.00000000000E+00  0.00000000000E+00  1.
        5    1    4    4  501    0  1.01600939891E+02  1.43905305003E+02  1.85727303431E+02  2.56024767424E+02  4.75000000001E+00  0.00000000000E+00  1.
       24    2    4    4    0    0  3.97585621586E+01  4.43935377926E+02  4.59065688797E+02  6.45450846914E+02  8.48889045315E+01  0.00000000000E+00  1.
       -1    1    7    7    0  703  3.74782118157E+01  4.46208752813E+02  4.46018366398E+02  6.32012065242E+02  9.34406182397E-06  0.00000000000E+00  1.
        2    1    7    7  703    0  2.28035034289E+00 -2.27337488612E+00  1.30473223984E+01  1.34387816719E+01  5.63949402452E-06  0.00000000000E+00  1.
</event>
<event>
 9 110   1.0000000E+00   7.4550000E+01   7.8125000E-03   1.3429423E-01
        2   -1    0    0  502    0  0.00000000000E+00  0.00000000000E+00  1.58823051925E+03  1.58823051925E+03  0.00000000000E+00  0.00000000000E+00  1.
        5   -1    0    0  501    0  0.00000000000E+00  0.00000000000E+00 -5.07299276784E+02  5.07299276784E+02  0.00000000000E+00  0.00000000000E+00  1.
       25    1    1    2    0    0  4.43640845399E+02  4.46868670702E+02 -1.71602918352E+02  6.64515891569E+02  1.25000000000E+02  0.00000000000E+00  1.
        6    2    1    2  501    0 -4.10127850564E+02 -4.42295958999E+02  1.04106453678E+03  1.21685641007E+03  1.81916419893E+02  0.00000000000E+00  1.
        1    1    1    2  502    0 -3.35129948351E+01 -4.57271170314E+00  2.11469624037E+02  2.14157494394E+02  3.81469726562E-06  0.00000000000E+00  1.
        5    1    4    4  501    0 -1.07656605307E+02 -5.34431195131E+01  3.03127800177E+02  3.26121353839E+02  4.74999999999E+00  0.00000000000E+00  1.
       24    2    4    4    0    0 -3.02471245257E+02 -3.88852839486E+02  7.37936736602E+02  8.90735056228E+02  7.85043195178E+01  0.00000000000E+00  1.
       -3    1    7    7    0  703 -2.04844453517E+02 -3.14674589405E+02  5.34362604085E+02  6.53088615732E+02  7.62939453125E-06  0.00000000000E+00  1.
        4    1    7    7  703    0 -9.76267917400E+01 -7.41782500816E+01  2.03574132516E+02  2.37646440496E+02  8.52992239952E-06  0.00000000000E+00  1.
</event>
<event>
 9 110   1.0000000E+00   7.4550000E+01   7.8125000E-03   1.3429423E-01
        2   -1    0    0  502    0  0.00000000000E+00  0.00000000000E+00  9.29597774270E+02  9.29597774270E+02  0.00000000000E+00  0.00000000000E+00  1.
        5   -1    0    0  501    0  0.00000000000E+00  0.00000000000E+00 -8.70381849357E+02  8.70381849357E+02  0.00000000000E+00  0.00000000000E+00  1.
       25    1    1    2    0    0  5.31358254742E+02  5.68308738669E+02  1.19770277217E+02  7.97048515860E+02  1.25000000000E+02  0.00000000000E+00  1.
        6    2    1    2  501    0 -5.48663101155E+02 -5.88115558293E+02 -2.11932198882E+02  8.49285345548E+02  1.71636921333E+02  0.00000000000E+00  1.
        1    1    1    2  502    0  1.73048464130E+01  1.98068196241E+01  1.51377846578E+02  1.53645762219E+02  7.38712949029E-06  0.00000000000E+00  1.
        5    1    4    4  501    0 -2.53327488598E+02 -2.69941305683E+02 -3.01178485121E+01  3.71446863349E+02  4.75000000001E+00  0.00000000000E+00  1.
       24    2    4    4    0    0 -2.95335612557E+02 -3.18174252611E+02 -1.81814350370E+02  4.77838482199E+02  8.25540913653E+01  0.00000000000E+00  1.
       -3    1    7    7    0  703 -2.62559645759E+02 -2.77243196118E+02 -1.28053135635E+02  4.02739323782E+02  8.09219491409E-06  0.00000000000E+00  1.
        4    1    7    7  703    0 -3.27759667979E+01 -4.09310564930E+01 -5.37612147344E+01  7.50991584166E+01  5.17977737961E-06  0.00000000000E+00  1.
</event>
<event>
 9 110   1.0000000E+00   7.4550000E+01   7.8125000E-03   1.3429423E-01
        2   -1    0    0  502    0  0.00000000000E+00  0.00000000000E+00  1.59357158378E+03  1.59357158378E+03  0.00000000000E+00  0.00000000000E+00  1.
        5   -1    0    0  501    0  0.00000000000E+00  0.00000000000E+00 -7.18784454505E+02  7.18784454505E+02  0.00000000000E+00  0.00000000000E+00  1.
       25    1    1    2    0    0  8.54147236547E+01  7.35731715087E+02 -2.30834643564E+02  7.85815795381E+02  1.25000000000E+02  0.00000000000E+00  1.
        6    2    1    2  501    0 -4.49431850466E+01 -7.15517240357E+02  4.34769305716E+02  8.54164155382E+02  1.63055953636E+02  0.00000000000E+00  1.
        1    1    1    2  502    0 -4.04715386081E+01 -2.02144747303E+01  6.70852467128E+02  6.72376087526E+02  0.00000000000E+00  0.00000000000E+00  1.
        5    1    4    4  501    0  5.64894826355E+00  2.50270456047E+00  1.56437009619E+01  1.74774719678E+01  4.75000000000E+00  0.00000000000E+00  1.
       24    2    4    4    0    0 -5.05921333101E+01 -7.18019944917E+02  4.19125604754E+02  8.36686683414E+02  7.91588806747E+01  0.00000000000E+00  1.
      -15    1    7    7    0    0 -3.13743791253E+01 -4.80102898290E+02  3.22287556256E+02  5.79098929845E+02  1.77680000002E+00  0.00000000000E+00  1.
       16    1    7    7    0    0 -1.92177541849E+01 -2.37917046627E+02  9.68380484984E+01  2.57587753568E+02  5.39479660939E-06  0.00000000000E+00  1.
</event>
<event>
 9 110   1.0000000E+00   7.4550000E+01   7.8125000E-03   1.3429423E-01
        2   -1    0    0  502    0  0.00000000000E+00  0.00000000000E+00  1.75843676500E+03  1.75843676500E+03  0.00000000000E+00  0.00000000000E+00  1.
        5   -1    0    0  501    0  0.00000000000E+00  0.00000000000E+00 -2.26654426366E+03  2.26654426366E+03  0.00000000000E+00  0.00000000000E+00  1.
       25    1    1    2    0    0 -5.30259823542E+02 -3.31140468400E+02 -2.10538351544E+03  2.19979413522E+03  1.25000000000E+02  0.00000000000E+00  1.
        6    2    1    2  501    0  5.06039101396E+02  3.55075990034E+02  7.93988174949E+02  1.02117762146E+03  1.73873464846E+02  0.00000000000E+00  1.
        1    1    1    2  502    0  2.42207221464E+01 -2.39355216339E+01  8.03287841830E+02  8.04009271967E+02  1.07895932188E-05  0.00000000000E+00  1.
        5    1    4    4  501    0  2.01106132140E+02  2.21658293924E+02  3.87603775332E+02  4.89729848796E+02  4.74999999999E+00  0.00000000000E+00  1.
       24    2    4    4    0    0  3.04932969256E+02  1.33417696110E+02  4.06384399617E+02  5.31447772667E+02  8.06477367726E+01  0.00000000000E+00  1.
      -11    1    7    7    0    0  1.85187873529E+02  4.18603624849E+01  2.53877418694E+02  3.17018267885E+02  5.10991478305E-04  0.00000000000E+00  1.
       12    1    7    7    0    0  1.19745095727E+02  9.15573336246E+01  1.52506980923E+02  2.14429504783E+02  1.90734863281E-06  0.00000000000E+00  1.
</event>
<event>
 9 110   1.0000000E+00   7.4550000E+01   7.8125000E-03   1.3429423E-01
        2   -1    0    0  502    0  0.00000000000E+00  0.00000000000E+00  7.12873802952E+02  7.12873802952E+02  0.00000000000E+00  0.00000000000E+00  1.
        5   -1    0    0  501    0  0.00000000000E+00  0.00000000000E+00 -3.78310513856E+02  3.78310513856E+02  0.00000000000E+00  0.00000000000E+00  1.
       25    1    1    2    0    0 -6.54778350825E+01  1.26072529465E+02 -2.71920956508E+02  3.31281807772E+02  1.25000000000E+02  0.00000000000E+00  1.
        6    2    1    2  501    0  1.41465182267E+02 -1.31454462626E+02  1.52618878765E+02  2.99688631201E+02  1.70962217982E+02  0.00000000000E+00  1.
        1    1    1    2  502    0 -7.59873471845E+01  5.38193316150E+00  4.53865366839E+02  4.60213877835E+02  7.62939453125E-06  0.00000000000E+00  1.
        5    1    4    4  501    0  2.32101444230E+01  3.25667424615E+01  2.39151909112E+01  4.68380440989E+01  4.75000000000E+00  0.00000000000E+00  1.
       24    2    4    4    0    0  1.18255037844E+02 -1.64021205088E+02  1.28703687854E+02  2.52850587102E+02  8.05082010520E+01  0.00000000000E+00  1.
       -1    1    7    7    0  703 -8.96974919673E-02 -4.68732075278E+01  5.04335535061E+01  6.88523706843E+01  1.16800772800E-06  0.00000000000E+00  1.
        2    1    7    7  703    0  1.18344735336E+02 -1.17147997560E+02  7.82701343480E+01  1.83998216418E+02  3.16297987972E-06  0.00000000000E+00  1.
</event>
<event>
 9 110   1.0000000E+00   7.4550000E+01   7.8125000E-03   1.3429423E-01
        2   -1    0    0  502    0  0.00000000000E+00  0.00000000000E+00  4.00433502266E+02  4.00433502266E+02  0.00000000000E+00  0.00000000000E+00  1.
        5   -1    0    0  501    0  0.00000000000E+00  0.00000000000E+00 -5.63067242102E+02  5.63067242102E+02  0.00000000000E+00  0.00000000000E+00  1.
       25    1    1    2    0    0 -9.43979017504E+01  1.29864677655E+02 -4.69189823315E+02  5.11409707240E+02  1.25000000000E+02  0.00000000000E+00  1.
        6    2    1    2  501    0  1.58697661319E+02 -9.73601474122E+01  2.02144639509E+02  3.25233821336E+02  1.73927103253E+02  0.00000000000E+00  1.
        1    1    1    2  502    0 -6.42997595688E+01 -3.25045302425E+01  1.04411443969E+02  1.26857215792E+02  3.01578298585E-06  0.00000000000E+00  1.
        5    1    4    4  501    0  1.42048899507E+02 -9.75118720385E+01  1.22899826584E+02  2.11691721411E+02  4.75000000000E+00  0.00000000000E+00  1.
       24    2    4    4    0    0  1.66487618121E+01  1.51724626274E-01  7.92448129255E+01  1.13542099925E+02  7.95918575578E+01  0.00000000000E+00  1.
       -1    1    7    7    0  703 -5.15928682285E+00  3.34876812703E+00  8.91611039455E+01  8.93730101612E+01  0.00000000000E+00  0.00000000000E+00  1.
        2    1    7    7  703    0  2.18080486349E+01 -3.19704350076E+00 -9.91629102003E+00  2.41690897636E+01  3.76972873231E-07  0.00000000000E+00  1.
</event>
<event>
 9 110   1.0000000E+00   7.4550000E+01   7.8125000E-03   1.3429423E-01
        2   -1    0    0  502    0  0.00000000000E+00  0.00000000000E+00  8.89352611171E+02  8.89352611171E+02  0.00000000000E+00  0.00000000000E+00  1.
        5   -1    0    0  501    0  0.00000000000E+00  0.00000000000E+00 -3.50790681123E+02  3.50790681123E+02  0.00000000000E+00  0.00000000000E+00  1.
       25    1    1    2    0    0  2.96982226731E+02  4.79728636958E+01 -2.18510048357E+02  3.92264553431E+02  1.25000000000E+02  0.00000000000E+00  1.
        6    2    1    2  501    0 -2.77680192838E+02 -3.95539623021E+01  5.44817351890E+02  6.34582060758E+02  1.64917068515E+02  0.00000000000E+00  1.
        1    1    1    2  502    0 -1.93020338931E+01 -8.41890139374E+00  2.12254626515E+02  2.13296678104E+02  2.69739830470E-06  0.00000000000E+00  1.
        5    1    4    4  501    0 -5.07670688609E+00 -9.16263785621E+00 -6.90269479370E+00  1.34140441592E+01  4.75000000000E+00  0.00000000000E+00  1.
       24    2    4    4    0    0 -2.72603485952E+02 -3.03913244458E+01  5.51720046684E+02  6.21168016599E+02  7.88568435737E+01  0.00000000000E+00  1.
       -5    1    7    7    0  703 -1.06814691017E+02 -8.04399596109E+00  1.36937689426E+02  1.73921181498E+02  4.75000000000E+00  0.00000000000E+00  1.
        4    1    7    7  703    0 -1.65788794934E+02 -2.23473284848E+01  4.14782357257E+02  4.47246835101E+02  0.00000000000E+00  0.00000000000E+00  1.
</event>
<event>
 9 110   1.0000000E+00   7.4550000E+01   7.8125000E-03   1.3429423E-01
        2   -1    0    0  502    0  0.00000000000E+00  0.00000000000E+00  1.93486114633E+03  1.93486114633E+03  0.00000000000E+00  0.00000000000E+00  1.
        5   -1    0    0  501    0  0.00000000000E+00  0.00000000000E+00 -3.45156361349E+01  3.45156361349E+01  0.00000000000E+00  0.00000000000E+00  1.
       25    1    1    2    0    0 -1.27791686689E+01  3.81272231966E+01  1.60037741527E+02  2.07012248463E+02  1.25000000000E+02  0.00000000000E+00  1.
        6    2    1    2  501    0 -2.09062819711E+01 -1.09985206989E+01  7.32301559175E+02  7.53430842197E+02  1.75597324351E+02  0.00000000000E+00  1.
        1    1    1    2  502    0  3.36854506400E+01 -2.71287024977E+01  1.00800620950E+03  1.00893369181E+03  1.52587890625E-05  0.00000000000E+00  1.
        5    1    4    4  501    0 -4.26787320693E+01  5.14642957623E+01  3.87226462027E+02  3.92984660392E+02  4.75000000000E+00  0.00000000000E+00  1.
       24    2    4    4    0    0  2.17724500982E+01 -6.24628164612E+01  3.45075097148E+02  3.60446181804E+02  8.04299961597E+01  0.00000000000E+00  1.
       -1    1    7    7    0  703  3.62508508505E+01 -5.56693451099E+01  3.35046573086E+02  3.41569035934E+02  6.60724947956E-06  0.00000000000E+00  1.
        2    1    7    7  703    0 -1.44784007523E+01 -6.79347135137E+00  1.00285240618E+01  1.88771458702E+01  3.81469726562E-06  0.00000000000E+00  1.
</event>
<event>
 9 110   1.0000000E+00   7.4550000E+01   7.8125000E-03   1.3429423E-01
        2   -1    0    0  502    0  0.00000000000E+00  0.00000000000E+00  8.13781786116E+02  8.13781786116E+02  0.00000000000E+00  0.00000000000E+00  1.
        5   -1    0    0  501    0  0.00000000000E+00  0.00000000000E+00 -5.68032394237E+02  5.68032394237E+02  0.00000000000E+00  0.00000000000E+00  1.
       25    1    1    2    0    0  2.07284310636E+01  3.69931189782E+02 -2.50212688077E+02  4.64230699440E+02  1.25000000000E+02  0.00000000000E+00  1.
        6    2    1    2  501    0 -8.63242076343E+01 -4.45224846969E+02  8.19543949160E+01  4.91702859156E+02  1.71400541637E+02  0.00000000000E+00  1.
        1    1    1    2  502    0  6.55957765707E+01  7.52936571874E+01  4.14007685040E+02  4.25880621757E+02  1.07895932188E-05  0.00000000000E+00  1.
        5    1    4    4  501    0 -3.06041157947E+01 -2.35549376759E+02  1.04700541085E+02  2.59624510781E+02  4.75000000000E+00  0.00000000000E+00  1.
       24    2    4    4    0    0 -5.57200918396E+01 -2.09675470210E+02 -2.27461461685E+01  2.32078348374E+02  7.92113702456E+01  0.00000000000E+00  1.
       -3    1    7    7    0  703 -7.14494811997E+01 -1.22618997511E+02 -2.19792826578E+01  1.43608968315E+02  1.39020726558E-06  0.00000000000E+00  1.
        4    1    7    7  703    0  1.57293893601E+01 -8.70564726997E+01 -7.66863510695E-01  8.84693800600E+01  2.93140345408E-07  0.00000000000E+00  1.
</event>
<event>
 9 110   1.0000000E+00   7.4550000E+01   7.8125000E-03   1.3429423E-01
        2   -1    0    0  502    0  0.00000000000E+00  0.00000000000E+00  3.87544925096E+03  3.87544925096E+03  0.00000000000E+00  0.00000000000E+00  1.
        5   -1    0    0  501    0  0.00000000000E+00  0.00000000000E+00 -9.09925700452E+02  9.09925700452E+02  0.00000000000E+00  0.00000000000E+00  1.
       25    1    1    2    0    0  6.13194529361E+02 -7.02248107773E+02 -5.66977481806E+02  1.09829340369E+03  1.25000000000E+02  0.00000000000E+00  1.
        6    2    1    2  501    0 -2.56403484414E+02  5.10890577401E+02  1.49545453809E+03  1.61019060840E+03  1.71981368208E+02  0.00000000000E+00  1.
        1    1    1    2  502    0 -3.56791044948E+02  1.91357530372E+02  2.03704649423E+03  2.07689093932E+03  3.73762472959E-05  0.00000000000E+00  1.
        5    1    4    4  501    0  1.40745578948E+01  7.71731033575E+01  2.26556763832E+02  2.39800564636E+02  4.74999999996E+00  0.00000000000E+00  1.
       24    2    4    4    0    0 -2.70478042308E+02  4.33717474044E+02  1.26889777425E+03  1.37039004377E+03  8.12286395751E+01  0.00000000000E+00  1.
       -1    1    7    7    0  703 -1.69473821945E+02  3.30396672193E+02  9.62092326839E+02  1.03126377939E+03  1.07895932188E-05  0.00000000000E+00  1.
        2    1    7    7  703    0 -1.01004220363E+02  1.03320801851E+02  3.06805447416E+02  3.39126264377E+02  1.52587890625E-05  0.00000000000E+00  1.
</event>
<event>
 9 110   1.0000000E+00   7.4550000E+01   7.8125000E-03   1.3429423E-01
        2   -1    0    0  502    0  0.00000000000E+00  0.00000000000E+00  2.45750142256E+03  2.45750142256E+03  0.00000000000E+00  0.00000000000E+00  1.
        5   -1    0    0  501    0  0.00000000000E+00  0.00000000000E+00 -6.23416370317E+02  6.23416370317E+02  0.00000000000E+00  0.00000000000E+00  1.
       25    1    1    2    0    0 -6.49221571085E+02  7.90545063408E+02  1.73670417305E+03  2.01945946489E+03  1.25000000000E+02  0.00000000000E+00  1.
        6    2    1    2  501    0  4.53148808154E+02 -4.60094186871E+02  1.56334013256E+01  6.68616171000E+02  1.72547610133E+02  0.00000000000E+00  1.
        1    1    1    2  502    0  1.96072762931E+02 -3.30450876537E+02  8.17474778651E+01  3.92842156985E+02  0.00000000000E+00  0.00000000000E+00  1.
        5    1    4    4  501    0  1.79236040611E+02 -1.32066995515E+02  6.31458023613E+01  2.31467501853E+02  4.75000000000E+00  0.00000000000E+00  1.
       24    2    4    4    0    0  2.73912767543E+02 -3.28027191356E+02 -4.75124010357E+01  4.37148669148E+02  7.88129950782E+01  0.00000000000E+00  1.
       -1    1    7    7    0  703  1.32074410425E+02 -1.03349040982E+02 -2.92261980071E+00  1.67729591508E+02  2.15114145668E-06  0.00000000000E+00  1.
        2    1    7    7  703    0  1.41838357119E+02 -2.24678150374E+02 -4.45897812350E+01  2.69419077640E+02  4.47312904341E-06  0.00000000000E+00  1.
</event>
<event>
 9 110   1.0000000E+00   7.4550000E+01   7.8125000E-03   1.3429423E-01
        2   -1    0    0  502    0  0.00000000000E+00  0.00000000000E+00  2.40795766886E+03  2.40795766886E+03  0.00000000000E+00  0.00000000000E+00  1.
        5   -1    0    0  501    0  0.00000000000E+00  0.00000000000E+00 -1.00283801564E+03  1.00283801564E+03  0.00000000000E+00  0.00000000000E+00  1.
       25    1    1    2    0    0 -2.86491225360E+02  9.44148161688E+02  1.83345283989E+03  2.08582532575E+03  1.25000000000E+02  0.00000000000E+00  1.
        6    2    1    2  501    0  3.37409748307E+01 -1.49797757092E+02 -4.34184555227E+02  4.91358043026E+02  1.71285367257E+02  0.00000000000E+00  1.
        1    1    1    2  502    0  2.52750250529E+02 -7.94350404595E+02  5.85136855130E+00  8.33612315730E+02  7.04293890243E-06  0.00000000000E+00  1.
        5    1    4    4  501    0  6.36974314081E+00 -1.14520736075E+02 -1.31546660682E+02  1.74592837927E+02  4.75000000000E+00  0.00000000000E+00  1.
       24    2    4    4    0    0  2.73712316899E+01 -3.52770210177E+01 -3.02637894545E+02  3.16765205099E+02  8.22000450785E+01  0.00000000000E+00  1.
      -13    1    7    7    0    0 -1.69304081272E+01  7.33991018177E+00 -1.87859511255E+01  2.63331753603E+01  1.05659999796E-01  0.00000000000E+00  1.
       14    1    7    7    0    0  4.43016398171E+01 -4.26169311994E+01 -2.83851943419E+02  2.90432029739E+02  3.81469726562E-06  0.00000000000E+00  1.
</event>
<event>
 9 110   1.0000000E+00   7.4550000E+01   7.8125000E-03   1.3429423E-01
        2   -1    0    0  502    0  0.00000000000E+00  0.00000000000E+00  1.38930077821E+03  1.38930077821E+03  0.00000000000E+00  0.00000000000E+00  1.
        5   -1    0    0  501    0  0.00000000000E+00  0.00000000000E+00 -6.29258285498E+02  6.29258285498E+02  0.00000000000E+00  0.00000000000E+00  1.
       25    1    1    2    0    0 -8.02472372655E+01  4.84203801370E+00 -5.58584384585E+02  5.78017801736E+02  1.25000000000E+02  0.00000000000E+00  1.
        6    2    1    2  501    0  5.90412772102E+01 -4.62687174576E+01  8.35664084446E+01  2.04604279664E+02  1.71034791802E+02  0.00000000000E+00  1.
        1    1    1    2  502    0  2.12059600553E+01  4.14266794439E+01  1.23506046886E+03  1.23593698231E+03  2.15791864376E-05  0.00000000000E+00  1.
        5    1    4    4  501    0  7.41828742152E+01 -6.79322381877E+01  6.34575356398E+01  1.19026506046E+02  4.75000000000E+00  0.00000000000E+00  1.
       24    2    4    4    0    0 -1.51415970050E+01  2.16635207301E+01  2.01088728048E+01  8.55777736186E+01  7.88708595220E+01  0.00000000000E+00  1.
       -3    1    7    7    0  703  2.92352858435E+01 -7.28658409654E+00  5.64376505296E+00  3.06536837936E+01  8.65807476421E-07  0.00000000000E+00  1.
        4    1    7    7  703    0 -4.43768828485E+01  2.89501048267E+01  1.44651077519E+01  5.49240898249E+01  1.20395480852E-06  0.00000000000E+00  1.
</event>
<event>
 9 110   1.0000000E+00   7.4550000E+01   7.8125000E-03   1.3429423E-01
        2   -1    0    0  502    0  0.00000000000E+00  0.00000000000E+00  4.77707273169E+03  4.77707273169E+03  0.00000000000E+00  0.00000000000E+00  1.
        5   -1    0    0  501    0  0.00000000000E+00  0.00000000000E+00 -9.60653414538E+02  9.60653414538E+02  0.00000000000E+00  0.00000000000E+00  1.
       25    1    1    2    0    0 -1.32102819014E+03 -4.48618071777E+02  1.91149262291E+02  1.41369611089E+03  1.25000000000E+02  0.00000000000E+00  1.
        6    2    1    2  501    0  1.40972718000E+03  5.04721512527E+02  1.28236769239E+03  1.97877811136E+03  1.70356650137E+02  0.00000000000E+00  1.
        1    1    1    2  502    0 -8.86989898625E+01 -5.61034407505E+01  2.34290236247E+03  2.34525192398E+03  3.05175781250E-05  0.00000000000E+00  1.
        5    1    4    4  501    0  2.47839067442E+02  3.40729643271E+01  1.94613571216E+02  3.16989234596E+02  4.75000000004E+00  0.00000000000E+00  1.
       24    2    4    4    0    0  1.16188811256E+03  4.70648548200E+02  1.08775412118E+03  1.66178887676E+03  8.26994604265E+01  0.00000000000E+00  1.
       -1    1    7    7    0  703  7.84958818114E+02  2.76643074726E+02  7.31024157052E+02  1.10774006659E+03  1.86881236479E-05  0.00000000000E+00  1.
        2    1    7    7  703    0  3.76929294448E+02  1.94005473474E+02  3.56729964124E+02  5.54048810174E+02  1.07895932188E-05  0.00000000000E+00  1.
</event>
<event>
 9 110   1.0000000E+00   7.4550000E+01   7.8125000E-03   1.3429423E-01
        2   -1    0    0  502    0  0.00000000000E+00  0.00000000000E+00  7.69756621875E+02  7.69756621875E+02  0.00000000000E+00  0.00000000000E+00  1.
        5   -1    0    0  501    0  0.00000000000E+00  0.00000000000E+00 -1.58722998677E+03  1.58722998677E+03  0.00000000000E+00  0.00000000000E+00  1.
       25    1    1    2    0    0  2.20100265721E+02  5.24613340810E+02 -1.23982878981E+03  1.36984076168E+03  1.25000000000E+02  0.00000000000E+00  1.
        6    2    1    2  501    0 -2.12730832328E+02 -4.43112209860E+02 -3.46511483731E+01  5.22870335084E+02  1.74899535956E+02  0.00000000000E+00  1.
        1    1    1    2  502    0 -7.36943339319E+00 -8.15011309501E+01  4.57006573291E+02  4.64275511874E+02  1.20631319434E-05  0.00000000000E+00  1.
        5    1    4    4  501    0 -6.00696006435E+01 -1.89460129368E+01 -1.00306578461E+01  6.39568989594E+01  4.75000000001E+00  0.00000000000E+00  1.
       24    2    4    4    0    0 -1.52661231684E+02 -4.24166196923E+02 -2.46204905270E+01  4.58913436125E+02  8.22979892246E+01  0.00000000000E+00  1.
      -13    1    7    7    0    0 -9.58471157324E+01 -2.18677011750E+02  2.48525964614E+01  2.40049927675E+02  1.05659999941E-01  0.00000000000E+00  1.
       14    1    7    7    0    0 -5.68141159519E+01 -2.05489185174E+02 -4.94730869884E+01  2.18863508450E+02  4.47312904341E-06  0.00000000000E+00  1.
</event>
<event>
 9 110   1.0000000E+00   7.4550000E+01   7.8125000E-03   1.3429423E-01
        2   -1    0    0  502    0  0.00000000000E+00  0.00000000000E+00  3.98201755707E+03  3.98201755707E+03  0.00000000000E+00  0.00000000000E+00  1.
        5   -1    0    0  501    0  0.00000000000E+00  0.00000000000E+00 -8.98534695633E+02  8.98534695633E+02  0.00000000000E+00  0.00000000000E+00  1.
       25    1    1    2    0    0 -9.44484750628E+02 -1.37159535080E+02 -5.32126839800E+02  1.09984005922E+03  1.25000000000E+02  0.00000000000E+00  1.
        6    2    1    2  501    0  9.44836997535E+02  1.44140483956E+02  2.78267763066E+03  2.94775079467E+03  1.80129176534E+02  0.00000000000E+00  1.
        1    1    1    2  502    0 -3.52246906844E-01 -6.98094887589E+00  8.32932070571E+02  8.32961398812E+02  2.64289979182E-05  0.00000000000E+00  1.
        5    1    4    4  501    0  5.27341352693E+02  1.43232834152E+02  1.51921129010E+03  1.61450613300E+03  4.75000000010E+00  0.00000000000E+00  1.
       24    2    4    4    0    0  4.17495644841E+02  9.07649803942E-01  1.26346634057E+03  1.33324466167E+03  8.30102212162E+01  0.00000000000E+00  1.
       -1    1    7    7    0  703  3.84389418519E+02  1.13022846372E+01  1.07745825861E+03  1.14402765078E+03  1.52587890625E-05  0.00000000000E+00  1.
        2    1    7    7  703    0  3.31062263227E+01 -1.03946348332E+01  1.86008081957E+02  1.89217010884E+02  1.26519195189E-05  0.00000000000E+00  1.
</event>
<event>
 9 110   1.0000000E+00   7.4550000E+01   7.8125000E-03   1.3429423E-01
        2   -1    0    0  502    0  0.00000000000E+00  0.00000000000E+00  1.62099688546E+03  1.62099688546E+03  0.00000000000E+00  0.00000000000E+00  1.
        5   -1    0    0  501    0  0.00000000000E+00  0.00000000000E+00 -2.72743603334E+02  2.72743603334E+02  0.00000000000E+00  0.00000000000E+00  1.
       25    1    1    2    0    0  2.64660220452E+01 -1.47918710317E+02 -2.19536839702E+02  2.93941863591E+02  1.25000000000E+02  0.00000000000E+00  1.
        6    2    1    2  501    0 -6.14768708291E+01  1.76533413724E+02  1.06179586869E+03  1.09178804953E+03  1.72183699951E+02  0.00000000000E+00  1.
        1    1    1    2  502    0  3.50108487838E+01 -2.86147034076E+01  5.05994253141E+02  5.08010575672E+02  5.39479660939E-06  0.00000000000E+00  1.
        5    1    4    4  501    0 -1.60971941018E+01 -7.07995510260E+00  3.74757161002E+02  3.75199597074E+02  4.75000000000E+00  0.00000000000E+00  1.
       24    2    4    4    0    0 -4.53796767273E+01  1.83613368827E+02  6.87038707688E+02  7.16588452460E+02  7.55224474242E+01  0.00000000000E+00  1.
       -1    1    7    7    0  703  1.25437604474E+01  1.62359201016E+00  4.54506738747E+01  4.71778097503E+01  1.03155649437E-05  0.00000000000E+00  1.
        2    1    7    7  703    0 -5.79234371746E+01  1.81989776817E+02  6.41588033814E+02  6.69410642709E+02  7.62939453125E-06  0.00000000000E+00  1.
</event>
<event>
 9 110   1.0000000E+00   7.4550000E+01   7.8125000E-03   1.3429423E-01
        2   -1    0    0  502    0  0.00000000000E+00  0.00000000000E+00  1.54573827213E+03  1.54573827213E+03  0.00000000000E+00  0.00000000000E+00  1.
        5   -1    0    0  501    0  0.00000000000E+00  0.00000000000E+00 -1.40420482031E+03  1.40420482031E+03  0.00000000000E+00  0.00000000000E+00  1.
       25    1    1    2    0    0 -5.30843036685E+02  4.53300829674E+01 -1.25357630426E+03  1.36781859053E+03  1.25000000000E+02  0.00000000000E+00  1.
        6    2    1    2  501    0  4.53128793326E+02  1.46267185936E+02  1.17745102106E+03  1.28191733676E+03  1.73785379893E+02  0.00000000000E+00  1.
        1    1    1    2  502    0  7.77142433592E+01 -1.91597268904E+02  2.17658735027E+02  3.00207165147E+02  3.81469726562E-06  0.00000000000E+00  1.
        5    1    4    4  501    0  2.62281528338E+01  4.38013932029E+00  2.12973715084E+02  2.14679918572E+02  4.75000000001E+00  0.00000000000E+00  1.
       24    2    4    4    0    0  4.26900640492E+02  1.41887046616E+02  9.64477305973E+02  1.06723741818E+03  8.00196362420E+01  0.00000000000E+00  1.
       -3    1    7    7    0  703  2.52348464544E+02  9.27824728111E+01  6.62830499113E+02  7.15284981929E+02  0.00000000000E+00  0.00000000000E+00  1.
        4    1    7    7  703    0  1.74552175948E+02  4.91045738051E+01  3.01646806860E+02  3.51952436255E+02  7.62939453125E-06  0.00000000000E+00  1.
</event>
<event>
 9 110   1.0000000E+00   7.4550000E+01   7.8125000E-03   1.3429423E-01
        2   -1    0    0  502    0  0.00000000000E+00  0.00000000000E+00  2.29087779173E+03  2.29087779173E+03  0.00000000000E+00  0.00000000000E+00  1.
        5   -1    0    0  501    0  0.00000000000E+00  0.00000000000E+00 -2.45614034907E+03  2.45614034907E+03  0.00000000000E+00  0.00000000000E+00  1.
       25    1    1    2    0    0 -1.67619466104E+02 -4.60274918602E+02 -2.38170262681E+03  2.43476522250E+03  1.25000000000E+02  0.00000000000E+00  1.
        6    2    1    2  501    0  1.40758318559E+02  4.23767546606E+02  1.15886996215E+03  1.25371201623E+03  1.71529567870E+02  0.00000000000E+00  1.
        1    1    1    2  502    0  2.68611475447E+01  3.65073719967E+01  1.05757010733E+03  1.05854090208E+03  1.52587890625E-05  0.00000000000E+00  1.
        5    1    4    4  501    0  9.31843281499E+01  1.00173128129E+02  4.18572652713E+02  4.40390284533E+02  4.74999999999E+00  0.00000000000E+00  1.
       24    2    4    4    0    0  4.75739904092E+01  3.23594418476E+02  7.40297309439E+02  8.13321731694E+02  8.04704955260E+01  0.00000000000E+00  1.
       -3    1    7    7    0  703  5.46513339993E+01  1.14378928416E+02  3.05487958103E+02  3.30744916997E+02  3.81469726562E-06  0.00000000000E+00  1.
        4    1    7    7  703    0 -7.07734359008E+00  2.09215490061E+02  4.34809351336E+02  4.82576814697E+02  0.00000000000E+00  0.00000000000E+00  1.
</event>
<event>
 9 110   1.0000000E+00   7.4550000E+01   7.8125000E-03   1.3429423E-01
        2   -1    0    0  502    0  0.00000000000E+00  0.00000000000E+00  5.35188500339E+02  5.35188500339E+02  0.00000000000E+00  0.00000000000E+00  1.
        5   -1    0    0  501    0  0.00000000000E+00  0.00000000000E+00 -3.86520083714E+02  3.86520083714E+02  0.00000000000E+00  0.00000000000E+00  1.
       25    1    1    2    0    0 -6.19180278319E+01 -2.69101111262E+02 -2.28077810359E+02  3.79333280680E+02  1.25000000000E+02  0.00000000000E+00  1.
        6    2    1    2  501    0  2.81974338368E+01  2.01659696040E+02  1.56671250165E+02  3.09741646374E+02  1.73009475430E+02  0.00000000000E+00  1.
        1    1    1    2  502    0  3.37205939951E+01  6.74414152218E+01  2.20074976819E+02  2.32633656998E+02  3.81469726562E-06  0.00000000000E+00  1.
        5    1    4    4  501    0  4.17675545479E+00  1.31209428032E+02  1.50506959636E+02  1.99770535088E+02  4.75000000000E+00  0.00000000000E+00  1.
       24    2    4    4    0    0  2.40206783820E+01  7.04502680085E+01  6.16429052872E+00  1.09971111286E+02  8.07181118921E+01  0.00000000000E+00  1.
       -1    1    7    7    0  703 -2.58297277358E+01  3.46105298942E+01 -1.39176858431E+01  4.53736222236E+01  1.49843753457E-06  0.00000000000E+00  1.
        2    1    7    7  703    0  4.98504061178E+01  3.58397381143E+01  2.00819763718E+01  6.45974890628E+01  1.46971082758E-06  0.00000000000E+00  1.
</event>
<event>
 9 110   1.0000000E+00   7.4550000E+01   7.8125000E-03   1.3429423E-01
        2   -1    0    0  502    0  0.00000000000E+00  0.00000000000E+00  1.84364996930E+03  1.84364996930E+03  0.00000000000E+00  0.00000000000E+00  1.
        5   -1    0    0  501    0  0.00000000000E+00  0.00000000000E+00 -2.56636770002E+03  2.56636770002E+03  0.00000000000E+00  0.00000000000E+00  1.
       25    1    1    2    0    0 -1.87970217866E+03 -4.41192783827E+02 -9.98389853390E+02  2.17723187840E+03  1.25000000000E+02  0.00000000000E+00  1.
        6    2    1    2  501    0  1.87064740654E+03  4.39535871620E+02 -2.74036435817E+01  1.92957026635E+03  1.73138531381E+02  0.00000000000E+00  1.
        1    1    1    2  502    0  9.05477211985E+00  1.65691220726E+00  3.03075766246E+02  3.03215524573E+02  1.00927402918E-05  0.00000000000E+00  1.
        5    1    4    4  501    0  5.60936226071E+01  2.63215250269E+01 -2.44783833635E+01  6.67912488955E+01  4.75000000013E+00  0.00000000000E+00  1.
       24    2    4    4    0    0  1.81455378393E+03  4.13214346593E+02 -2.92526021823E+00  1.86277901745E+03  8.11515846440E+01  0.00000000000E+00  1.
       -3    1    7    7    0  703  2.71818539953E+01  1.00972582317E+01  9.36331583037E+00  3.04709614840E+01  3.32655866726E-05  0.00000000000E+00  1.
        4    1    7    7  703    0  1.78737192994E+03  4.03117088361E+02 -1.22885760486E+01  1.83230805597E+03  5.36431206493E-05  0.00000000000E+00  1.
</event>
<event>
 9 110   1.0000000E+00   7.4550000E+01   7.8125000E-03   1.3429423E-01
        2   -1    0    0  502    0  0.00000000000E+00  0.00000000000E+00  1.29183479215E+03  1.29183479215E+03  0.00000000000E+00  0.00000000000E+00  1.
        5   -1    0    0  501    0  0.00000000000E+00  0.00000000000E+00 -1.70128437925E+03  1.70128437925E+03  0.00000000000E+00  0.00000000000E+00  1.
       25    1    1    2    0    0  6.53596147433E+02  2.57339397237E+02 -1.28612018929E+03  1.47076226176E+03  1.25000000000E+02  0.00000000000E+00  1.
        6    2    1    2  501    0 -4.29722794997E+02 -2.55195920892E+02 -8.45343647700E+01  5.35422838434E+02  1.72467151973E+02  0.00000000000E+00  1.
        1    1    1    2  502    0 -2.23873352436E+02 -2.14347634554E+00  9.61204966952E+02  9.86934071210E+02  1.07895932188E-05  0.00000000000E+00  1.
        5    1    4    4  501    0 -3.14314308010E+02 -2.19860482858E+02 -6.66914093251E+01  3.89361557835E+02  4.75000000000E+00  0.00000000000E+00  1.
       24    2    4    4    0    0 -1.15408486987E+02 -3.53354380340E+01 -1.78429554449E+01  1.46061280598E+02  8.02982850462E+01  0.00000000000E+00  1.
       -3    1    7    7    0  703 -8.96926521942E+01 -3.30953215832E+01 -4.74918807445E+01  1.06749945691E+02  1.34869915235E-06  0.00000000000E+00  1.
        4    1    7    7  703    0 -2.57158347927E+01 -2.24011645085E+00  2.96489252996E+01  3.93113349076E+01  3.37174788087E-07  0.00000000000E+00  1.
</event>
<event>
 9 110   1.0000000E+00   7.4550000E+01   7.8125000E-03   1.3429423E-01
        2   -1    0    0  502    0  0.00000000000E+00  0.00000000000E+00  1.84310396317E+03  1.84310396317E+03  0.00000000000E+00  0.00000000000E+00  1.
        5   -1    0    0  501    0  0.00000000000E+00  0.00000000000E+00 -4.18448743262E+02  4.18448743262E+02  0.00000000000E+00  0.00000000000E+00  1.
       25    1    1    2    0    0  2.11410084256E+02 -2.88563002700E+02 -1.71677402188E+02  4.16005962307E+02  1.25000000000E+02  0.00000000000E+00  1.
        6    2    1    2  501    0 -2.29622762971E+02  4.07065485895E+02  3.96301407625E+02  6.39541165408E+02  1.83109730721E+02  0.00000000000E+00  1.
        1    1    1    2  502    0  1.82126787151E+01 -1.18502483195E+02  1.20003121447E+03  1.20600557871E+03  2.64289979182E-05  0.00000000000E+00  1.
        5    1    4    4  501    0 -8.57279248213E+00  9.77590770187E+01  2.36380444305E+01  1.01052706817E+02  4.75000000000E+00  0.00000000000E+00  1.
       24    2    4    4    0    0 -2.21049970489E+02  3.09306408876E+02  3.72663363195E+02  5.38488458592E+02  8.09832929913E+01  0.00000000000E+00  1.
      -15    1    7    7    0    0 -1.31604360588E+01  6.89607345261E+01  5.54457479271E+01  8.94771924296E+01  1.77679999999E+00  0.00000000000E+00  1.
       16    1    7    7    0    0 -2.07889534430E+02  2.40345674350E+02  3.17217615267E+02  4.49011266162E+02  5.39479660939E-06  0.00000000000E+00  1.
</event>
</LesHouchesEvents>
