<LesHouchesEvents version="1.0">
<!--
Output from the JHUGenerator v7.5.1 described in arXiv:1001.3396 [hep-ph], arXiv:1208.4018 [hep-ph], arXiv:1309.4819 [hep-ph], arXiv:1606.03107 [hep-ph]
   
   Command line: ./JHUGen Seed=765543533 VegasNc0=100000 ReadLHE=compare_to_reference/ttH.lhe DataFile=compare_to_reference/ttH_tautau DecayMode1=11 DecayMode2=11 TauDK=1 ghg2=0.383432074687728,0.918260989345657 ghg3=6294.49296087723,2253.12941717723 ghg4=0.335495485382528,0.17285803562226 ghz1=0.154934976270359,0.453918144016304 ghz2=0.469297059144414,0.745302300947002 ghz3=3947.40921062637,3597.4885961919 ghz4=0.177791270766536,0.920170534486048 ghzgs2=0.0240331049939919,0.232175381101053 ghzgs3=0.331962910170583,0.0450183240308457 ghzgs4=0.808286540247172,0.133184346613754 ghgsgs2=0.530394804029869,0.211218112389125 ghgsgs3=0.914978695198138,0.055650585081425 ghgsgs4=0.694524307167701,0.511424456076726 ghz1_prime=0.143354267833606,0.0910761280837012 ghz1_prime2=7416.7007267243,4861.35525489789 ghz1_prime3=4431.44656075298,4436.48625894176 ghz1_prime4=2441.69123517064,6946.16318931911 ghz1_prime5=78314042.889773,69465359.939181 ghz1_prime6=51233058.8130761,29537873.5850789 ghz1_prime7=47832192.900156
   
   Input Parameter:
    Collider: P-P, sqrt(s)=13000.00
    Resonance: spin=0, mass= 125.00 width=   0.00407
               (This is ReadLHEFile mode. Resonance mass/width are read from LHE input parameters.)
    DecayMode1:11  DecayMode2:11
    W boson: mass=80.399, width=2.0850
    Random seed:   765543533
    To reproduce results using this seed, JHUGen should be compiled with the same compiler:
      GNU Fortran (GCC) 6.3.0
    Interference: F
    
    spin-0-ff couplings: 
      kappa=  0.68931060E+00  0.64979173E+00i
      kappa_tilde=  0.20205949E+00  0.39840175E+00i
    
    LHE output: compare_to_reference/ttH_tautau.lhe
    Histogram output: compare_to_reference/ttH_tautau.dat
    Log file: compare_to_reference/ttH_tautau.log
    LHE input: compare_to_reference/ttH.lhe
    

Output from the JHUGenerator v7.5.1 described in arXiv:1001.3396 [hep-ph], arXiv:1208.4018 [hep-ph], arXiv:1309.4819 [hep-ph], arXiv:1606.03107 [hep-ph]

   Command line: ./JHUGen Seed=765543533 PDFSet=3 Process=80 VegasNc0=100000 VegasNc2=100 DataFile=compare_to_reference/ttH TopDK=1 DecayMode1=11 DecayMode2=11

   Input Parameter:
    Collider: P-P, sqrt(s)=13000.00
    Resonance: spin=0, mass= 125.00 width=   0.00407
    DecayMode1:11  DecayMode2:11
    W boson: mass=80.399, width=2.0850
    Top quark mass=173.2000, width=2.0000
    Top quark decay= 1
    Random seed:   765543533
    To reproduce results using this seed, JHUGen should be compiled with the same compiler:
      GNU Fortran (GCC) 6.3.0

    WidthScheme:   2
    PChannel: 2
    PDFSet:   3
    Unweighted: T

    spin-0-ff couplings:
      kappa=  0.68931060E+00  0.64979173E+00i
      kappa_tilde=  0.20205949E+00  0.39840175E+00i

    LHE output: compare_to_reference/ttH.lhe
    Histogram output: compare_to_reference/ttH.dat
    Log file: compare_to_reference/ttH.log

-->
<init>
2212 2212   6500.0000000000000000    6500.0000000000000000 0 0  263000  263000  3  1
 1.0000000E+00  1.0000000E+14  1.0000000E+00  80
</init>
<event>
23  80   1.0000000E+00   2.3570000E+02   7.8125000E-03   1.1298309E-01
       -2   -1    0    0    0  502  0.00000000000E+00  0.00000000000E+00  1.72972681289E+02  1.72972681289E+02  0.00000000000E+00  0.00000000000E+00  1.
        2   -1    0    0  501    0  0.00000000000E+00  0.00000000000E+00 -1.14816141196E+03  1.14816141196E+03  0.00000000000E+00  0.00000000000E+00  1.
       25    2    1    2    0    0  3.73316552886E+01  3.44161883277E+01 -4.24322592742E+02  4.45255869380E+02  1.25000000000E+02  0.00000000000E+00  1.
       -6    2    1    2    0  502 -1.05530643308E+02 -1.42103294615E+02 -6.05012808564E+02  6.53252873503E+02  1.71373146075E+02  0.00000000000E+00  1.
        6    2    1    2  501    0  6.81989880194E+01  1.07687106287E+02  5.41466706347E+01  2.22625350366E+02  1.74305966213E+02  0.00000000000E+00  1.
       -5    1    4    4    0  502 -2.59602975632E+01  1.95376231171E+01 -1.94838374167E+02  1.97585956775E+02  4.75000000000E+00  0.00000000000E+00  1.
      -24    2    4    4    0    0 -7.95703457448E+01 -1.61640917732E+02 -4.10174434397E+02  4.55666916728E+02  8.32468988016E+01  0.00000000000E+00  1.
        1    1    7    7  704    0 -4.57185638429E+01 -1.57722346319E+02 -3.32232738017E+02  3.70601022420E+02  6.60724947956E-06  0.00000000000E+00  1.
       -2    1    7    7    0  704 -3.38517819019E+01 -3.91857141318E+00 -7.79416963797E+01  8.50658943078E+01  3.81469726562E-06  0.00000000000E+00  1.
        5    1    5    5  501    0  3.98272901826E+01  1.45608752236E+01  8.29990668822E+01  9.33254506224E+01  4.75000000000E+00  0.00000000000E+00  1.
       24    2    5    5    0    0  2.83716978368E+01  9.31262310639E+01 -2.88523962475E+01  1.29299899744E+02  8.00534518567E+01  0.00000000000E+00  1.
       -3    1   11   11    0  703  3.57379181499E+01  1.03083942961E+02 -1.40581091928E+01  1.10005129536E+02  2.00895065622E-06  0.00000000000E+00  1.
        4    1   11   11  703    0 -7.36622031307E+00 -9.95771189706E+00 -1.47942870546E+01  1.92947702080E+01  1.23885927742E-06  0.00000000000E+00  1.
      -15    2    3    3    0    0 -4.50699247371E+01  2.56667146021E+01 -1.73306925614E+02  1.80910270130E+02  1.77680000000E+00  0.00000000000E+00  1.
       15    2    3    3    0    0  8.24015800257E+01  8.74947372561E+00 -2.51015667128E+02  2.64345599250E+02  1.77680000000E+00  0.00000000000E+00  1.
       24    2   14   14    0    0 -9.97664759784E+00  5.38213625184E+00 -3.99390586708E+01  4.15187705600E+01  4.23099729151E-01  0.00000000000E+00  1.
      -24    2   15   15    0    0  4.18134256290E+01  5.04872504763E+00 -1.29374629017E+02  1.36058281207E+02  4.57235463708E-01  0.00000000000E+00  1.
       16    1   16   16    0    0 -6.90754048326E+00  3.91446715032E+00 -2.75864267639E+01  2.87062381757E+01  3.72529029846E-07  0.00000000000E+00  1.
      -16    1   14   14    0    0 -3.50932771393E+01  2.02845783502E+01 -1.33367866944E+02  1.39391499570E+02  2.98023223877E-06  0.00000000000E+00  1.
      -15    1   16   16    0    0 -3.06910711458E+00  1.46766910152E+00 -1.23526319069E+01  1.28125323843E+01  1.86264514923E-07  0.00000000000E+00  1.
       15    1   17   17    0    0  1.88187309061E+01  2.48924467634E+00 -5.85437889850E+01  6.15444246110E+01  1.49011611938E-06  0.00000000000E+00  1.
       16    1   15   15    0    0  4.05881543967E+01  3.70074867798E+00 -1.21641038111E+02  1.28287318043E+02  1.49011611938E-06  0.00000000000E+00  1.
      -16    1   17   17    0    0  2.29946947228E+01  2.55948037129E+00 -7.08308400318E+01  7.45138565958E+01  0.00000000000E+00  0.00000000000E+00  1.
</event>
<event>
23  80   1.0000000E+00   2.3570000E+02   7.8125000E-03   1.1298309E-01
       -2   -1    0    0    0  502  0.00000000000E+00  0.00000000000E+00  5.32540821939E+02  5.32540821939E+02  0.00000000000E+00  0.00000000000E+00  1.
        2   -1    0    0  501    0  0.00000000000E+00  0.00000000000E+00 -3.05278620696E+02  3.05278620696E+02  0.00000000000E+00  0.00000000000E+00  1.
       25    2    1    2    0    0  3.11888038191E+01 -1.20562218020E+02  3.06873553892E+02  3.53983570206E+02  1.25000000000E+02  0.00000000000E+00  1.
       -6    2    1    2    0  502 -1.03026698825E+02 -2.27762603735E+01  5.56847534026E+01  2.11608147192E+02  1.74768296579E+02  0.00000000000E+00  1.
        6    2    1    2  501    0  7.18378950055E+01  1.43338478393E+02 -1.35296106052E+02  2.72227725237E+02  1.73482839289E+02  0.00000000000E+00  1.
       -5    1    4    4    0  502 -8.22490224148E+01  4.26028233505E+01  2.00281377258E+00  9.27710946827E+01  4.75000000000E+00  0.00000000000E+00  1.
      -24    2    4    4    0    0 -2.07776764098E+01 -6.53790837240E+01  5.36819396300E+01  1.18837052509E+02  8.08353758015E+01  0.00000000000E+00  1.
        3    1    7    7  704    0  6.26131723598E-01 -1.41431487561E+01  6.11885936017E+01  6.28049734068E+01  0.00000000000E+00  0.00000000000E+00  1.
       -4    1    7    7    0  704 -2.14038081334E+01 -5.12359349679E+01 -7.50665397173E+00  5.60320791021E+01  1.29768497092E-06  0.00000000000E+00  1.
        5    1    5    5  501    0 -4.09378436517E+01  5.58388816947E+01 -3.64760233175E+01  7.84024905780E+01  4.75000000000E+00  0.00000000000E+00  1.
       24    2    5    5    0    0  1.12775738657E+02  8.74995966986E+01 -9.88200827343E+01  1.93825234659E+02  8.61873899523E+01  0.00000000000E+00  1.
      -11    1   11   11    0    0  6.78625437877E+01  9.71812202894E+01 -8.49626594915E+01  1.45836099558E+02  5.10999487625E-04  0.00000000000E+00  1.
       12    1   11   11    0    0  4.49131948696E+01 -9.68162359087E+00 -1.38574232428E+01  4.79891351003E+01  1.77617841074E-06  0.00000000000E+00  1.
      -15    2    3    3    0    0 -3.54708533848E+01 -1.98714000159E+01  1.53310295539E+02  1.58619852840E+02  1.77680000000E+00  0.00000000000E+00  1.
       15    2    3    3    0    0  6.66596572039E+01 -1.00690818004E+02  1.53563258353E+02  1.95363717366E+02  1.77680000000E+00  0.00000000000E+00  1.
       24    2   14   14    0    0 -1.41899586174E+01 -8.07080278751E+00  6.22851001059E+01  6.43982163614E+01  1.09717461017E+00  0.00000000000E+00  1.
      -24    2   15   15    0    0  6.37657445749E+01 -9.68463462347E+01  1.47132650917E+02  1.87332067132E+02  3.80765122277E-02  0.00000000000E+00  1.
        2    1   16   16  803    0 -3.96061795083E+00 -1.83176615049E+00  1.54010778044E+01  1.60073439183E+01  3.22619603494E-07  0.00000000000E+00  1.
      -16    1   14   14    0    0 -2.12808947673E+01 -1.18005972284E+01  9.10251954335E+01  9.42216364788E+01  1.49011611938E-06  0.00000000000E+00  1.
       -1    1   16   16    0  803 -1.02293406666E+01 -6.23903663702E+00  4.68840223015E+01  4.83908724431E+01  5.26835606386E-07  0.00000000000E+00  1.
       15    1   17   17    0    0  3.41312484231E+01 -5.18593492862E+01  7.87527782532E+01  1.00281275969E+02  1.05367121277E-06  0.00000000000E+00  1.
       16    1   15   15    0    0  2.89391262895E+00 -3.84447176937E+00  6.43060743516E+00  8.03165023358E+00  1.86264514923E-07  0.00000000000E+00  1.
      -16    1   17   17    0    0  2.96344961518E+01 -4.49869969485E+01  6.83798726643E+01  8.70507911635E+01  7.45058059692E-07  0.00000000000E+00  1.
</event>
<event>
23  80   1.0000000E+00   2.3570000E+02   7.8125000E-03   1.1298309E-01
       -2   -1    0    0    0  502  0.00000000000E+00  0.00000000000E+00  2.71936255393E+01  2.71936255393E+01  0.00000000000E+00  0.00000000000E+00  1.
        2   -1    0    0  501    0  0.00000000000E+00  0.00000000000E+00 -3.02055523650E+03  3.02055523650E+03  0.00000000000E+00  0.00000000000E+00  1.
       25    2    1    2    0    0  6.28446666030E+01  2.49594469887E+01 -5.70626239387E+02  5.88057591730E+02  1.25000000000E+02  0.00000000000E+00  1.
       -6    2    1    2    0  502 -8.46734866290E+01 -1.16715137100E+02 -1.43417485536E+03  1.45174678698E+03  1.72971660101E+02  0.00000000000E+00  1.
        6    2    1    2  501    0  2.18288200260E+01  9.17556901117E+01 -9.88560516221E+02  1.00794448333E+03  1.72640039396E+02  0.00000000000E+00  1.
       -5    1    4    4    0  502  3.41607891412E+01 -5.29940115494E+01 -2.83467575400E+02  2.90433733540E+02  4.75000000001E+00  0.00000000000E+00  1.
      -24    2    4    4    0    0 -1.18834275770E+02 -6.37211255511E+01 -1.15070727996E+03  1.16131305344E+03  7.96165623566E+01  0.00000000000E+00  1.
        3    1    7    7  704    0 -1.32819159178E+01  1.13604256300E+01 -3.28531795600E+02  3.28996366669E+02  3.81469726562E-06  0.00000000000E+00  1.
       -4    1    7    7    0  704 -1.05552359852E+02 -7.50815511811E+01 -8.22175484355E+02  8.32316686768E+02  1.07895932188E-05  0.00000000000E+00  1.
        5    1    5    5  501    0  7.18415078564E+01  6.71607122625E+01 -5.71595805780E+02  5.80013871565E+02  4.75000000000E+00  0.00000000000E+00  1.
       24    2    5    5    0    0 -5.00126878305E+01  2.45949778492E+01 -4.16964710441E+02  4.27930611770E+02  7.84783846490E+01  0.00000000000E+00  1.
      -11    1   11   11    0    0 -5.30646691698E+00  4.60095648333E+01 -2.20190449719E+02  2.25008606046E+02  5.11005717009E-04  0.00000000000E+00  1.
       12    1   11   11    0    0 -4.47062209135E+01 -2.14145869841E+01 -1.96774260722E+02  2.02922005723E+02  4.67203091199E-06  0.00000000000E+00  1.
      -15    2    3    3    0    0  5.13685291204E+01  1.63671018439E+01 -5.71062967290E+02  5.73604983795E+02  1.77680000004E+00  0.00000000000E+00  1.
       15    2    3    3    0    0  1.14761374826E+01  8.59234514481E+00  4.36727902949E-01  1.44526079345E+01  1.77680000000E+00  0.00000000000E+00  1.
       24    2   14   14    0    0  2.76519113658E+01  8.96633284930E+00 -3.17142315867E+02  3.18471790035E+02  9.59561598583E-02  0.00000000000E+00  1.
      -24    2   15   15    0    0  1.17187912237E+00  7.55995869844E-01 -4.02770663687E-01  1.47991090739E+00  2.88238882924E-01  0.00000000000E+00  1.
       16    1   16   16    0    0  1.32583945007E+01  4.34935144957E+00 -1.52186942758E+02  1.52825283997E+02  2.10734242554E-06  0.00000000000E+00  1.
      -16    1   14   14    0    0  2.37166177546E+01  7.40076899459E+00 -2.53920651423E+02  2.55133193760E+02  2.98023223877E-06  0.00000000000E+00  1.
      -15    1   16   16    0    0  1.43935168651E+01  4.61698139973E+00 -1.64955373109E+02  1.65646506038E+02  2.10734242554E-06  0.00000000000E+00  1.
       15    1   17   17    0    0  4.46223197084E-01  2.95888353335E-01 -3.02218009963E-01  6.14817684197E-01  5.82076609135E-09  0.00000000000E+00  1.
       16    1   15   15    0    0  1.03042583603E+01  7.83634927496E+00  8.39498566635E-01  1.29726970271E+01  4.94730876779E-07  0.00000000000E+00  1.
      -16    1   17   17    0    0  7.25655925287E-01  4.60107516509E-01 -1.00552653724E-01  8.65093223198E-01  6.51431889436E-08  0.00000000000E+00  1.
</event>
<event>
23  80   1.0000000E+00   2.3570000E+02   7.8125000E-03   1.1298309E-01
       -2   -1    0    0    0  502  0.00000000000E+00  0.00000000000E+00  1.30042623057E+02  1.30042623057E+02  0.00000000000E+00  0.00000000000E+00  1.
        2   -1    0    0  501    0  0.00000000000E+00  0.00000000000E+00 -5.91324638540E+02  5.91324638540E+02  0.00000000000E+00  0.00000000000E+00  1.
       25    2    1    2    0    0  6.71209764917E+01 -3.41517858733E+00 -1.23652327970E+02  1.88233331646E+02  1.25000000000E+02  0.00000000000E+00  1.
       -6    2    1    2    0  502  6.69795347542E+01  2.68358492255E+01 -1.97869045230E+02  2.72044951618E+02  1.72191392819E+02  0.00000000000E+00  1.
        6    2    1    2  501    0 -1.34100511246E+02 -2.34206706382E+01 -1.39760642283E+02  2.61088978333E+02  1.73501995799E+02  0.00000000000E+00  1.
       -5    1    4    4    0  502  1.34567545266E+01  5.87290822436E+01 -1.40758469129E+01  6.20554696209E+01  4.75000000000E+00  0.00000000000E+00  1.
      -24    2    4    4    0    0  5.35227802276E+01 -3.18932330180E+01 -1.83793198317E+02  2.09989481997E+02  8.02108252421E+01  0.00000000000E+00  1.
        3    1    7    7  704    0  1.72774919386E+01  3.09293165204E+00  1.83436374291E+00  1.76477433184E+01  2.29738987964E-06  0.00000000000E+00  1.
       -4    1    7    7    0  704  3.62452882890E+01 -3.49861646701E+01 -1.85627562060E+02  1.92341738678E+02  2.69739830470E-06  0.00000000000E+00  1.
        5    1    5    5  501    0 -7.09575125164E+01  2.22337898396E+01 -1.29188137617E+02  1.49135667746E+02  4.75000000000E+00  0.00000000000E+00  1.
       24    2    5    5    0    0 -6.31429987295E+01 -4.56544604778E+01 -1.05725046655E+01  1.11953310587E+02  7.96893835233E+01  0.00000000000E+00  1.
      -11    1   11   11    0    0 -4.13529916842E+01 -2.30737942347E+01 -4.50313580226E+01  6.53474797314E+01  5.10998597706E-04  0.00000000000E+00  1.
       12    1   11   11    0    0 -2.17900070453E+01 -2.25806662430E+01  3.44588533572E+01  4.66058308552E+01  0.00000000000E+00  0.00000000000E+00  1.
      -15    2    3    3    0    0 -1.06819053854E+01 -4.97932317274E+01 -5.11294968587E+01  7.21862278817E+01  1.77680000000E+00  0.00000000000E+00  1.
       15    2    3    3    0    0  7.78028818771E+01  4.63780531401E+01 -7.25228311113E+01  1.16047103764E+02  1.77680000000E+00  0.00000000000E+00  1.
       24    2   14   14    0    0 -8.81646040235E+00 -4.30467879695E+01 -4.47200178659E+01  6.26954002401E+01  2.78001475415E-01  0.00000000000E+00  1.
      -24    2   15   15    0    0  7.22070388635E+01  4.26229906577E+01 -6.72830875313E+01  1.07510777502E+02  9.88745270623E-01  0.00000000000E+00  1.
       16    1   16   16    0    0 -1.36083855846E+00 -6.45058868903E+00 -6.84038820690E+00  9.50015193764E+00  9.31322574615E-08  0.00000000000E+00  1.
      -16    1   14   14    0    0 -1.86544498304E+00 -6.74644375789E+00 -6.40947899282E+00  9.49082764160E+00  1.31708901597E-07  0.00000000000E+00  1.
      -15    1   16   16    0    0 -7.45562184389E+00 -3.65961992805E+01 -3.78796296590E+01  5.31952483025E+01  9.12506037497E-07  0.00000000000E+00  1.
        3    1   17   17  804    0  3.16661330432E+01  1.88391315819E+01 -3.01751589462E+01  4.76255926797E+01  0.00000000000E+00  0.00000000000E+00  1.
       16    1   15   15    0    0  5.59584301360E+00  3.75506248239E+00 -5.23974357995E+00  8.53632626269E+00  9.31322574615E-08  0.00000000000E+00  1.
       -4    1   17   17    0  804  4.05409058203E+01  2.37838590758E+01 -3.71079285851E+01  5.98851848219E+01  5.26835606386E-07  0.00000000000E+00  1.
</event>
<event>
23  80   1.0000000E+00   2.3570000E+02   7.8125000E-03   1.1298309E-01
       -2   -1    0    0    0  502  0.00000000000E+00  0.00000000000E+00  6.56929644791E+01  6.56929644791E+01  0.00000000000E+00  0.00000000000E+00  1.
        2   -1    0    0  501    0  0.00000000000E+00  0.00000000000E+00 -3.80091883945E+03  3.80091883945E+03  0.00000000000E+00  0.00000000000E+00  1.
       25    2    1    2    0    0 -5.36874041107E+01  1.56763609337E+02 -5.97904233529E+02  6.32907291034E+02  1.25000000000E+02  0.00000000000E+00  1.
       -6    2    1    2    0  502 -2.54494706889E+02 -2.65477975754E+02 -1.82125138383E+03  1.86603061361E+03  1.72822268196E+02  0.00000000000E+00  1.
        6    2    1    2  501    0  3.08182111000E+02  1.08714366418E+02 -1.31607025760E+03  1.36767389928E+03  1.78033549665E+02  0.00000000000E+00  1.
       -5    1    4    4    0  502 -1.54777605202E+02 -1.03528209408E+02 -1.10540842651E+03  1.12099266238E+03  4.74999999998E+00  0.00000000000E+00  1.
      -24    2    4    4    0    0 -9.97171016865E+01 -1.61949766346E+02 -7.15842957321E+02  7.45037951230E+02  8.04933664200E+01  0.00000000000E+00  1.
        1    1    7    7  704    0  4.12476941568E+00  2.89385699836E+00 -7.65982379904E+01  7.67637817873E+01  4.67203091199E-06  0.00000000000E+00  1.
       -2    1    7    7    0  704 -1.03841871102E+02 -1.64843623345E+02 -6.39244719331E+02  6.68274169443E+02  1.07895932188E-05  0.00000000000E+00  1.
        5    1    5    5  501    0  1.25478856258E+01 -2.46904745226E+01 -4.11108719492E+01  4.97969402499E+01  4.75000000003E+00  0.00000000000E+00  1.
       24    2    5    5    0    0  2.95634225374E+02  1.33404840940E+02 -1.27495938565E+03  1.31787695903E+03  7.79858786249E+01  0.00000000000E+00  1.
       -3    1   11   11    0  703  1.45866850864E+02  9.06174814887E+01 -5.42115226066E+02  5.68662979686E+02  1.32144989591E-05  0.00000000000E+00  1.
        4    1   11   11  703    0  1.49767374510E+02  4.27873594516E+01 -7.32844159587E+02  7.49213979340E+02  1.07895932188E-05  0.00000000000E+00  1.
      -15    2    3    3    0    0 -3.46336063860E+01 -1.27672934255E+01 -1.06817635063E+02  1.13029441525E+02  1.77680000000E+00  0.00000000000E+00  1.
       15    2    3    3    0    0 -1.90537977247E+01  1.69530902762E+02 -4.91086598466E+02  5.19877849509E+02  1.77680000001E+00  0.00000000000E+00  1.
       24    2   14   14    0    0 -3.41467535592E+01 -1.24532834288E+01 -1.05620324608E+02  1.11699336161E+02  6.06773132619E-02  0.00000000000E+00  1.
      -24    2   15   15    0    0 -5.35212800316E+00  4.63214466552E+01 -1.36243598373E+02  1.44003055805E+02  4.90192900885E-01  0.00000000000E+00  1.
       16    1   16   16    0    0 -2.47602789943E+01 -9.05594216118E+00 -7.65758934430E+01  8.09873382752E+01  1.05367121277E-06  0.00000000000E+00  1.
      -16    1   14   14    0    0 -4.86852826717E-01 -3.14009996674E-01 -1.19731045552E+00  1.33010536417E+00  8.86592677080E-08  0.00000000000E+00  1.
      -15    1   16   16    0    0 -9.38647456499E+00 -3.39734126761E+00 -2.90444311648E+01  3.07119978858E+01  3.72529029846E-07  0.00000000000E+00  1.
       15    1   17   17    0    0 -4.15847813151E+00  3.76575044583E+01 -1.10682203147E+02  1.16986882495E+02  2.10734242554E-06  0.00000000000E+00  1.
       16    1   15   15    0    0 -1.37016697216E+01  1.23209456107E+02 -3.54843000092E+02  3.75874793704E+02  7.30004829998E-06  0.00000000000E+00  1.
      -16    1   17   17    0    0 -1.19364987164E+00  8.66394219694E+00 -2.55613952257E+01  2.70161733096E+01  5.26835606386E-07  0.00000000000E+00  1.
</event>
<event>
23  80   1.0000000E+00   2.3570000E+02   7.8125000E-03   1.1298309E-01
       -2   -1    0    0    0  502  0.00000000000E+00  0.00000000000E+00  9.78176835601E+01  9.78176835601E+01  0.00000000000E+00  0.00000000000E+00  1.
        2   -1    0    0  501    0  0.00000000000E+00  0.00000000000E+00 -9.93029795252E+02  9.93029795252E+02  0.00000000000E+00  0.00000000000E+00  1.
       25    2    1    2    0    0 -4.44751343683E+01 -1.49556180779E+01 -8.03773178727E+01  1.55843579648E+02  1.25000000000E+02  0.00000000000E+00  1.
       -6    2    1    2    0  502 -9.70485034455E+01 -8.10868154146E+01 -3.36277146210E+02  3.98135042021E+02  1.71568379858E+02  0.00000000000E+00  1.
        6    2    1    2  501    0  1.41523637814E+02  9.60424334924E+01 -4.78557647609E+02  5.36868857143E+02  1.73082808485E+02  0.00000000000E+00  1.
       -5    1    4    4    0  502  1.93367152427E+01  9.02621409942E+00 -1.32032137198E+02  1.33829850372E+02  4.75000000000E+00  0.00000000000E+00  1.
      -24    2    4    4    0    0 -1.16385218688E+02 -9.01130295140E+01 -2.04245009012E+02  2.64305191650E+02  8.04694563761E+01  0.00000000000E+00  1.
        1    1    7    7  704    0 -9.08823046399E+01 -5.81620521094E+01 -1.94272064616E+02  2.22225229649E+02  0.00000000000E+00  0.00000000000E+00  1.
       -2    1    7    7    0  704 -2.55029140483E+01 -3.19509774046E+01 -9.97294439536E+00  4.20799620006E+01  3.95372484965E-07  0.00000000000E+00  1.
        5    1    5    5  501    0 -1.43502908342E+01  4.12804258272E+01 -3.73318122387E+01  5.76734870502E+01  4.75000000000E+00  0.00000000000E+00  1.
       24    2    5    5    0    0  1.55873928648E+02  5.47620076652E+01 -4.41225835370E+02  4.79195370092E+02  8.74780304074E+01  0.00000000000E+00  1.
      -15    1   11   11    0    0  1.09947752394E+02  1.63166575870E+01 -1.83036316402E+02  2.14149928115E+02  1.77679999999E+00  0.00000000000E+00  1.
       16    1   11   11    0    0  4.59261762540E+01  3.84453500782E+01 -2.58189518969E+02  2.65045441978E+02  0.00000000000E+00  0.00000000000E+00  1.
      -15    2    3    3    0    0 -7.30554440912E+01 -2.86306899793E+01 -9.29998913250E+01  1.21692033941E+02  1.77680000000E+00  0.00000000000E+00  1.
       15    2    3    3    0    0  2.85803097229E+01  1.36750719014E+01  1.26225734523E+01  3.41515457068E+01  1.77680000000E+00  0.00000000000E+00  1.
       24    2   14   14    0    0 -5.22877243148E+01 -1.99641340027E+01 -6.68610158905E+01  8.72007569833E+01  1.00190421605E+00  0.00000000000E+00  1.
      -24    2   15   15    0    0  1.95042028052E+01  9.12860109887E+00  8.54377027050E+00  2.32115846038E+01  1.42701236676E+00  0.00000000000E+00  1.
        2    1   16   16  803    0 -1.35785940050E+01 -5.50621604312E+00 -1.70038214809E+01  2.24460815115E+01  5.58793544769E-07  0.00000000000E+00  1.
      -16    1   14   14    0    0 -2.07677197764E+01 -8.66655597657E+00 -2.61388754345E+01  3.44912769579E+01  3.72529029846E-07  0.00000000000E+00  1.
       -1    1   16   16    0  803 -3.87091303099E+01 -1.44579179596E+01 -4.98571944096E+01  6.47546754718E+01  9.12506037497E-07  0.00000000000E+00  1.
        3    1   17   17  804    0  1.42160478814E+01  6.58681239711E+00  6.88817117291E+00  1.71151692083E+01  6.38482589312E-07  0.00000000000E+00  1.
       16    1   15   15    0    0  9.07610691770E+00  4.54647080253E+00  4.07880318176E+00  1.09399611030E+01  1.47255028606E-07  0.00000000000E+00  1.
       -4    1   17   17    0  804  5.28815492383E+00  2.54178870176E+00  1.65559909759E+00  6.09641539552E+00  1.04125029291E-07  0.00000000000E+00  1.
</event>
<event>
23  80   1.0000000E+00   2.3570000E+02   7.8125000E-03   1.1298309E-01
       -2   -1    0    0    0  502  0.00000000000E+00  0.00000000000E+00  3.78888628382E+02  3.78888628382E+02  0.00000000000E+00  0.00000000000E+00  1.
        2   -1    0    0  501    0  0.00000000000E+00  0.00000000000E+00 -7.30230522454E+02  7.30230522454E+02  0.00000000000E+00  0.00000000000E+00  1.
       25    2    1    2    0    0 -8.20886609039E+01 -4.99057421907E+01 -4.83778857006E+02  5.08818350532E+02  1.25000000000E+02  0.00000000000E+00  1.
       -6    2    1    2    0  502 -3.19410992079E+01  2.29570275877E+02 -1.14777249731E+01  2.89920988883E+02  1.73780597995E+02  0.00000000000E+00  1.
        6    2    1    2  501    0  1.14029760112E+02 -1.79664533686E+02  1.43914687907E+02  3.10379811421E+02  1.74189721529E+02  0.00000000000E+00  1.
       -5    1    4    4    0  502 -7.68723426752E+01  1.16027577439E+02 -3.11356738307E+01  1.42701606437E+02  4.75000000000E+00  0.00000000000E+00  1.
      -24    2    4    4    0    0  4.49312434673E+01  1.13542698438E+02  1.96579488576E+01  1.47219382446E+02  7.98520544912E+01  0.00000000000E+00  1.
       15    1    7    7    0    0 -4.01802384766E+00  8.44906603768E+01 -5.92733506068E+00  8.48121838282E+01  1.77680000000E+00  0.00000000000E+00  1.
      -16    1    7    7    0    0  4.89492673150E+01  2.90520380614E+01  2.55852839183E+01  6.24071986182E+01  4.76837158203E-07  0.00000000000E+00  1.
        5    1    5    5  501    0  1.02571444531E+01 -4.02959617041E+01  1.07788843012E+02  1.15628589543E+02  4.75000000000E+00  0.00000000000E+00  1.
       24    2    5    5    0    0  1.03772615659E+02 -1.39368571982E+02  3.61258448955E+01  1.94751221877E+02  8.01910664368E+01  0.00000000000E+00  1.
       -3    1   11   11    0  703  3.04946847465E+00 -5.73172023131E+01  2.98255377821E+01  6.46848022566E+01  1.81574180266E-06  0.00000000000E+00  1.
        4    1   11   11  703    0  1.00723147184E+02 -8.20513696692E+01  6.30030711338E+00  1.30066419621E+02  1.76010406735E-06  0.00000000000E+00  1.
      -15    2    3    3    0    0 -4.08890495001E+01 -9.06768817789E+01 -3.17090533266E+02  3.32330820965E+02  1.77680000000E+00  0.00000000000E+00  1.
       15    2    3    3    0    0 -4.11996114038E+01  4.07711395882E+01 -1.66688323740E+02  1.76487529567E+02  1.77680000000E+00  0.00000000000E+00  1.
       24    2   14   14    0    0 -1.75973530399E+01 -3.89191491017E+01 -1.39039692667E+02  1.45452604327E+02  2.38679104547E-01  0.00000000000E+00  1.
      -24    2   15   15    0    0 -3.34253911937E+01  3.37712618278E+01 -1.36696292688E+02  1.44723419078E+02  1.11206701967E+00  0.00000000000E+00  1.
       16    1   16   16    0    0 -1.33921307077E+01 -2.98589854759E+01 -1.06593621377E+02  1.11503848799E+02  2.10734242554E-06  0.00000000000E+00  1.
      -16    1   14   14    0    0 -2.32916964602E+01 -5.17577326771E+01 -1.78050840600E+02  1.86878216639E+02  2.10734242554E-06  0.00000000000E+00  1.
      -15    1   16   16    0    0 -4.20522233223E+00 -9.06016362588E+00 -3.24460712894E+01  3.39487555281E+01  5.26835606386E-07  0.00000000000E+00  1.
        3    1   17   17  804    0 -6.49330831247E+00  7.15284355754E+00 -2.72917100872E+01  2.89510563414E+01  0.00000000000E+00  0.00000000000E+00  1.
       16    1   15   15    0    0 -7.77422021010E+00  6.99987776041E+00 -2.99920310516E+01  3.17641104886E+01  6.45239206988E-07  0.00000000000E+00  1.
       -4    1   17   17    0  804 -2.69320828812E+01  2.66184182702E+01 -1.09404582601E+02  1.15772362737E+02  2.10734242554E-06  0.00000000000E+00  1.
</event>
<event>
23  80   1.0000000E+00   2.3570000E+02   7.8125000E-03   1.1298309E-01
       -2   -1    0    0    0  502  0.00000000000E+00  0.00000000000E+00  1.49488835479E+02  1.49488835479E+02  0.00000000000E+00  0.00000000000E+00  1.
        2   -1    0    0  501    0  0.00000000000E+00  0.00000000000E+00 -2.16202299798E+03  2.16202299798E+03  0.00000000000E+00  0.00000000000E+00  1.
       25    2    1    2    0    0  1.00920855920E+02  2.00318196062E-01  8.19274505415E+01  1.80339031935E+02  1.25000000000E+02  0.00000000000E+00  1.
       -6    2    1    2    0  502 -1.11197856333E+02 -5.37952158309E+01 -1.13278192759E+03  1.15270397372E+03  1.73990422280E+02  0.00000000000E+00  1.
        6    2    1    2  501    0  1.02770004136E+01  5.35948976349E+01 -9.61679685451E+02  9.78468827808E+02  1.72033135737E+02  0.00000000000E+00  1.
       -5    1    4    4    0  502 -1.03249774115E+02  9.84427985157E+00 -7.37423289040E+02  7.44696646574E+02  4.75000000000E+00  0.00000000000E+00  1.
      -24    2    4    4    0    0 -7.94808221779E+00 -6.36394956825E+01 -3.95358638550E+02  4.08007327141E+02  7.77712575628E+01  0.00000000000E+00  1.
        1    1    7    7  704    0  3.68266127962E-01  4.24477304593E+00 -2.16148095645E+02  2.16190085270E+02  2.69739830470E-06  0.00000000000E+00  1.
       -2    1    7    7    0  704 -8.31634834575E+00 -6.78842687284E+01 -1.79210542905E+02  1.91817241871E+02  1.90734863281E-06  0.00000000000E+00  1.
        5    1    5    5  501    0  2.86612315225E+01 -1.78695112389E+01 -5.30061678209E+01  6.30317535165E+01  4.74999999999E+00  0.00000000000E+00  1.
       24    2    5    5    0    0 -1.83842311089E+01  7.14644088738E+01 -9.08673517630E+02  9.15437074291E+02  8.30200798286E+01  0.00000000000E+00  1.
       -3    1   11   11    0  703 -5.07102953769E+01  5.29885255751E+01 -6.42277750243E+02  6.46451874742E+02  1.70598447990E-05  0.00000000000E+00  1.
        4    1   11   11  703    0  3.23260642680E+01  1.84758832987E+01 -2.66395767387E+02  2.68985199549E+02  9.34406182397E-06  0.00000000000E+00  1.
      -15    2    3    3    0    0  1.07028638105E+01 -2.27650442799E+01  8.34883902319E+01  8.72139143518E+01  1.77680000000E+00  0.00000000000E+00  1.
       15    2    3    3    0    0  9.02179921095E+01  2.29653624759E+01 -1.56093969044E+00  9.31251175832E+01  1.77680000000E+00  0.00000000000E+00  1.
       24    2   14   14    0    0  7.49509467488E+00 -1.50388418145E+01  5.50552356104E+01  5.75756237618E+01  1.23704330770E+00  0.00000000000E+00  1.
      -24    2   15   15    0    0  4.68449960080E+01  1.19260491249E+01 -1.53168455286E+00  4.83692901867E+01  7.46911555837E-01  0.00000000000E+00  1.
        4    1   16   16  803    0  1.13731304998E+00 -2.55787265716E+00  1.07829781965E+01  1.11404134704E+01  3.22619603494E-07  0.00000000000E+00  1.
      -16    1   14   14    0    0  3.20776913563E+00 -7.72620246533E+00  2.84331546216E+01  2.96382905900E+01  0.00000000000E+00  0.00000000000E+00  1.
       -3    1   16   16    0  803  6.35778162490E+00 -1.24809691574E+01  4.42722574138E+01  4.64352102915E+01  5.26835606386E-07  0.00000000000E+00  1.
       15    1   17   17    0    0  2.33453531803E+01  5.56497805997E+00 -8.31013000901E-01  2.40138518053E+01  3.25546866611E-07  0.00000000000E+00  1.
       16    1   15   15    0    0  4.33729961014E+01  1.10393133510E+01 -2.92551375817E-02  4.47558273965E+01  2.29344197204E-07  0.00000000000E+00  1.
      -16    1   17   17    0    0  2.34996428278E+01  6.36107106494E+00 -7.00671551959E-01  2.43554383814E+01  2.24533741386E-07  0.00000000000E+00  1.
</event>
<event>
23  80   1.0000000E+00   2.3570000E+02   7.8125000E-03   1.1298309E-01
       -2   -1    0    0    0  502  0.00000000000E+00  0.00000000000E+00  2.56982379393E+02  2.56982379393E+02  0.00000000000E+00  0.00000000000E+00  1.
        2   -1    0    0  501    0  0.00000000000E+00  0.00000000000E+00 -2.48082802858E+02  2.48082802858E+02  0.00000000000E+00  0.00000000000E+00  1.
       25    2    1    2    0    0 -2.57732686628E+00 -5.39395950183E+01  4.51845787942E+01  1.43466960257E+02  1.25000000000E+02  0.00000000000E+00  1.
       -6    2    1    2    0  502 -2.50027688470E+01  4.71064583627E+01  5.09309452564E-02  1.81231881198E+02  1.73207492041E+02  0.00000000000E+00  1.
        6    2    1    2  501    0  2.75800957133E+01  6.83313665557E+00 -3.63359332045E+01  1.80366340796E+02  1.74368470241E+02  0.00000000000E+00  1.
       -5    1    4    4    0  502  4.69804842992E+01  3.05563098125E+01  3.74288323750E+01  6.75598547016E+01  4.75000000000E+00  0.00000000000E+00  1.
      -24    2    4    4    0    0 -7.19832531462E+01  1.65501485503E+01 -3.73779014298E+01  1.13672026496E+02  7.79020278423E+01  0.00000000000E+00  1.
       11    1    7    7    0    0 -3.54343537149E+01  3.43281986190E+01 -5.08538017537E+01  7.08528601870E+01  5.10999042666E-04  0.00000000000E+00  1.
      -12    1    7    7    0    0 -3.65488994313E+01 -1.77780500687E+01  1.34759003239E+01  4.28191663093E+01  8.59630411974E-07  0.00000000000E+00  1.
        5    1    5    5  501    0 -4.86153226095E-01 -6.45878413752E+01  2.96829580886E-01  6.47647759686E+01  4.75000000000E+00  0.00000000000E+00  1.
       24    2    5    5    0    0  2.80662489394E+01  7.14209780308E+01 -3.66327627854E+01  1.15601564827E+02  7.83140603518E+01  0.00000000000E+00  1.
       -1    1   11   11    0  703 -1.64513842257E+00  9.79685695305E+00  2.28688305057E+01  2.49332768662E+01  6.74349576174E-07  0.00000000000E+00  1.
        2    1   11   11  703    0  2.97113873620E+01  6.16241210777E+01 -5.95015932911E+01  9.06682879609E+01  0.00000000000E+00  0.00000000000E+00  1.
      -15    2    3    3    0    0  5.52137040023E+01 -5.54676036698E+01  2.77736713583E+01  8.30646856701E+01  1.77680000000E+00  0.00000000000E+00  1.
       15    2    3    3    0    0 -5.77910308685E+01  1.52800865148E+00  1.74109074359E+01  6.04022745869E+01  1.77680000000E+00  0.00000000000E+00  1.
       24    2   14   14    0    0  4.66682207492E+01 -4.74240660054E+01  2.33564996815E+01  7.05253400808E+01  1.15440536944E+00  0.00000000000E+00  1.
      -24    2   15   15    0    0 -5.26641898993E+01  1.33045634592E+00  1.53348824417E+01  5.48675293340E+01  1.19951106434E-02  0.00000000000E+00  1.
        2    1   16   16  803    0  1.94649805361E+01 -2.03375692403E+01  1.03219417390E+01  2.99840736248E+01  4.16500117164E-07  0.00000000000E+00  1.
      -16    1   14   14    0    0  8.54548325304E+00 -8.04353766436E+00  4.41717167675E+00  1.25393455893E+01  9.31322574615E-08  0.00000000000E+00  1.
       -1    1   16   16    0  803  2.72032402132E+01 -2.70864967651E+01  1.30345579425E+01  4.05412664561E+01  2.63417803193E-07  0.00000000000E+00  1.
       15    1   17   17    0    0 -1.87435662690E+01  4.68241052143E-01  5.46011906124E+00  1.95282724870E+01  3.15826851089E-07  0.00000000000E+00  1.
       16    1   15   15    0    0 -5.12684096927E+00  1.97552305558E-01  2.07602499424E+00  5.53474525289E+00  5.20625146455E-08  0.00000000000E+00  1.
      -16    1   17   17    0    0 -3.39206236302E+01  8.62215293775E-01  9.87476338042E+00  3.53392568470E+01  2.28126509374E-07  0.00000000000E+00  1.
</event>
<event>
23  80   1.0000000E+00   2.3570000E+02   7.8125000E-03   1.1298309E-01
       -2   -1    0    0    0  502  0.00000000000E+00  0.00000000000E+00  2.75152526234E+02  2.75152526234E+02  0.00000000000E+00  0.00000000000E+00  1.
        2   -1    0    0  501    0  0.00000000000E+00  0.00000000000E+00 -3.50708878789E+03  3.50708878789E+03  0.00000000000E+00  0.00000000000E+00  1.
       25    2    1    2    0    0  7.11023958091E+02 -5.23730882663E+02 -1.00439637767E+03  1.34323720538E+03  1.25000000000E+02  0.00000000000E+00  1.
       -6    2    1    2    0  502 -2.68780249639E+02  9.17623917925E+01 -5.56520875098E+02  6.48688165222E+02  1.74406686041E+02  0.00000000000E+00  1.
        6    2    1    2  501    0 -4.42243708452E+02  4.31968490870E+02 -1.67101900888E+03  1.79031594352E+03  1.75357847847E+02  0.00000000000E+00  1.
       -5    1    4    4    0  502 -8.24922136222E+01  3.60977863036E+01 -3.19127485512E+02  3.31621666955E+02  4.75000000000E+00  0.00000000000E+00  1.
      -24    2    4    4    0    0 -1.86288036017E+02  5.56646054888E+01 -2.37393389585E+02  3.17066498267E+02  7.98358455668E+01  0.00000000000E+00  1.
        3    1    7    7  704    0 -1.14864934526E+02  6.68310869481E+01 -1.85010614304E+02  2.27792174518E+02  3.81469726562E-06  0.00000000000E+00  1.
       -4    1    7    7    0  704 -7.14231014909E+01 -1.11664814593E+01 -5.23827752810E+01  8.92743237494E+01  2.86102294922E-06  0.00000000000E+00  1.
        5    1    5    5  501    0 -2.96859281750E+02  2.78720150081E+02 -1.20373053214E+03  1.27074785530E+03  4.74999999998E+00  0.00000000000E+00  1.
       24    2    5    5    0    0 -1.45384426702E+02  1.53248340789E+02 -4.67288476737E+02  5.19568088222E+02  8.34912709540E+01  0.00000000000E+00  1.
       -3    1   11   11    0  703 -1.06189150656E+02  5.23654637538E+01 -2.26674745362E+02  2.55733685103E+02  6.60724947956E-06  0.00000000000E+00  1.
        4    1   11   11  703    0 -3.91952760460E+01  1.00882877035E+02 -2.40613731375E+02  2.63834403120E+02  5.39479660939E-06  0.00000000000E+00  1.
      -15    2    3    3    0    0  1.86162578226E+01 -4.32973816351E+01 -3.50547306651E+01  5.87641001974E+01  1.77680000000E+00  0.00000000000E+00  1.
       15    2    3    3    0    0  6.92407700268E+02 -4.80433501028E+02 -9.69341647005E+02  1.28447310518E+03  1.77680000018E+00  0.00000000000E+00  1.
       24    2   14   14    0    0  8.21370845058E+00 -1.85639618286E+01 -1.52609991268E+01  2.54212314400E+01  1.12036971408E+00  0.00000000000E+00  1.
      -24    2   15   15    0    0  3.88848097745E+02 -2.68782854964E+02 -5.43296102724E+02  7.20151181043E+02  4.56008267163E-02  0.00000000000E+00  1.
       12    1   16   16    0    0  8.24040815713E+00 -1.85220365713E+01 -1.51789361713E+01  2.53252891126E+01  8.73658016291E-07  0.00000000000E+00  1.
      -16    1   14   14    0    0  1.04025493720E+01 -2.47334198065E+01 -1.97937315383E+01  3.33428687574E+01  6.45239206988E-07  0.00000000000E+00  1.
      -11    1   16   16    0    0 -2.66997065485E-02 -4.19252572037E-02 -8.20629554542E-02  9.59423273600E-02  1.90846579042E-08  0.00000000000E+00  1.
       15    1   17   17    0    0  1.32659962760E+02 -9.17102319504E+01 -1.85388805790E+02  2.45720250847E+02  2.10734242554E-06  0.00000000000E+00  1.
       16    1   15   15    0    0  3.03559602524E+02 -2.11650646064E+02 -4.26045544281E+02  5.64321924140E+02  5.96046447754E-06  0.00000000000E+00  1.
      -16    1   17   17    0    0  2.56188134984E+02 -1.77072623013E+02 -3.57907296934E+02  4.74430930196E+02  1.03238273118E-05  0.00000000000E+00  1.
</event>
<event>
23  80   1.0000000E+00   2.3570000E+02   7.8125000E-03   1.1298309E-01
       -2   -1    0    0    0  502  0.00000000000E+00  0.00000000000E+00  3.93811896558E+01  3.93811896558E+01  0.00000000000E+00  0.00000000000E+00  1.
        2   -1    0    0  501    0  0.00000000000E+00  0.00000000000E+00 -1.81564103563E+03  1.81564103563E+03  0.00000000000E+00  0.00000000000E+00  1.
       25    2    1    2    0    0 -3.20516141631E+01 -3.48663895828E+01 -6.79405511415E+02  6.92430371976E+02  1.25000000000E+02  0.00000000000E+00  1.
       -6    2    1    2    0  502  4.12730286771E+01 -3.48656947270E+01 -6.97977609239E+02  7.21301818627E+02  1.73736844078E+02  0.00000000000E+00  1.
        6    2    1    2  501    0 -9.22141451402E+00  6.97320843098E+01 -3.98876725316E+02  4.41290034680E+02  1.75176067546E+02  0.00000000000E+00  1.
       -5    1    4    4    0  502 -1.85500025806E+00  4.01588470398E+01 -3.93930239447E+02  3.96004760164E+02  4.75000000000E+00  0.00000000000E+00  1.
      -24    2    4    4    0    0  4.31280289352E+01 -7.50245417668E+01 -3.04047369792E+02  3.25297058463E+02  7.67115664031E+01  0.00000000000E+00  1.
       13    1    7    7    0    0  1.12441941514E+01 -4.68496507092E+00 -6.21743320371E-01  1.21974804211E+01  1.05660000110E-01  0.00000000000E+00  1.
      -14    1    7    7    0    0  3.18838347838E+01 -7.03395766959E+01 -3.03425626471E+02  3.13099578042E+02  0.00000000000E+00  0.00000000000E+00  1.
        5    1    5    5  501    0 -4.02320056452E+01  8.77698103583E+01 -2.58133142663E+02  2.75640047398E+02  4.75000000000E+00  0.00000000000E+00  1.
       24    2    5    5    0    0  3.10105911312E+01 -1.80377260485E+01 -1.40743582653E+02  1.65649987281E+02  7.96501469240E+01  0.00000000000E+00  1.
       -1    1   11   11    0  703  1.64491759411E+01  3.86411992549E+00 -1.38197190773E+02  1.39226327788E+02  1.90734863281E-06  0.00000000000E+00  1.
        2    1   11   11  703    0  1.45614151901E+01 -2.19018459740E+01 -2.54639188041E+00  2.64236594932E+01  3.69837094724E-07  0.00000000000E+00  1.
      -15    2    3    3    0    0 -9.24986531404E+00  4.14014746979E+01 -1.17999658237E+02  1.25406213872E+02  1.77680000000E+00  0.00000000000E+00  1.
       15    2    3    3    0    0 -2.28017488491E+01 -7.62678642807E+01 -5.61405853178E+02  5.67024158104E+02  1.77679999999E+00  0.00000000000E+00  1.
       24    2   14   14    0    0 -8.99335682840E+00  3.92432613951E+01 -1.10934117505E+02  1.18013951221E+02  1.49769729073E-02  0.00000000000E+00  1.
      -24    2   15   15    0    0 -1.81408093694E+01 -6.00698981853E+01 -4.38306824437E+02  4.42776545091E+02  8.45518689190E-01  0.00000000000E+00  1.
       16    1   16   16    0    0 -3.09786182497E+00  1.34915251762E+01 -3.81301802191E+01  4.05651160852E+01  0.00000000000E+00  0.00000000000E+00  1.
      -16    1   14   14    0    0 -2.56508485637E-01  2.15821330281E+00 -7.06554073256E+00  7.39226265139E+00  1.31708901597E-07  0.00000000000E+00  1.
      -15    1   16   16    0    0 -5.89549500343E+00  2.57517362189E+01 -7.28039372855E+01  7.74488351358E+01  1.82501207499E-06  0.00000000000E+00  1.
        1    1   17   17  804    0 -1.44184080698E+01 -4.69354178599E+01 -3.41112911686E+02  3.44628557232E+02  4.21468485109E-06  0.00000000000E+00  1.
       16    1   15   15    0    0 -4.66093947970E+00 -1.61979660954E+01 -1.23099028741E+02  1.24247613013E+02  2.98023223877E-06  0.00000000000E+00  1.
       -2    1   17   17    0  804 -3.72240129958E+00 -1.31344803254E+01 -9.71939127515E+01  9.81479878592E+01  1.82501207499E-06  0.00000000000E+00  1.
</event>
<event>
23  80   1.0000000E+00   2.3570000E+02   7.8125000E-03   1.1298309E-01
       -2   -1    0    0    0  502  0.00000000000E+00  0.00000000000E+00  4.39900147468E+01  4.39900147468E+01  0.00000000000E+00  0.00000000000E+00  1.
        2   -1    0    0  501    0  0.00000000000E+00  0.00000000000E+00 -2.40439792551E+03  2.40439792551E+03  0.00000000000E+00  0.00000000000E+00  1.
       25    2    1    2    0    0 -1.06492157849E+02 -4.77840860543E+01 -1.09472911894E+03  1.10800755522E+03  1.25000000000E+02  0.00000000000E+00  1.
       -6    2    1    2    0  502  1.08322163861E+02  1.06716139749E+02 -4.63368345985E+02  5.17720102558E+02  1.73786808663E+02  0.00000000000E+00  1.
        6    2    1    2  501    0 -1.83000601195E+00 -5.89320536943E+01 -8.02310445834E+02  8.22660282478E+02  1.72021954986E+02  0.00000000000E+00  1.
       -5    1    4    4    0  502  1.09355892592E+02  1.63215013707E+01 -2.50442728842E+02  2.73805086843E+02  4.75000000000E+00  0.00000000000E+00  1.
      -24    2    4    4    0    0 -1.03372873066E+00  9.03946383778E+01 -2.12925617143E+02  2.43915015715E+02  7.73625052116E+01  0.00000000000E+00  1.
       15    1    7    7    0    0 -1.02286810462E+01 -8.06945667411E+00 -5.75864176139E+00  1.43548256742E+01  1.77680000000E+00  0.00000000000E+00  1.
      -16    1    7    7    0    0  9.19495231550E+00  9.84640950519E+01 -2.07166975382E+02  2.29560190041E+02  2.69739830470E-06  0.00000000000E+00  1.
        5    1    5    5  501    0 -5.86073152349E+01 -1.30305337734E+01 -4.43344093068E+02  4.47416092209E+02  4.74999999999E+00  0.00000000000E+00  1.
       24    2    5    5    0    0  5.67773092230E+01 -4.59015199209E+01 -3.58966352767E+02  3.75244190269E+02  8.13679761234E+01  0.00000000000E+00  1.
       -1    1   11   11    0  703  5.91703254274E+01 -5.34800609096E+01 -1.89613243649E+02  2.05704707027E+02  4.67203091199E-06  0.00000000000E+00  1.
        2    1   11   11  703    0 -2.39301620444E+00  7.57854098872E+00 -1.69353109118E+02  1.69539483242E+02  2.69739830470E-06  0.00000000000E+00  1.
      -15    2    3    3    0    0 -4.01596684293E+01 -5.45132626955E+01 -2.07495493799E+02  2.18270547127E+02  1.77679999999E+00  0.00000000000E+00  1.
       15    2    3    3    0    0 -6.63324894197E+01  6.72917664118E+00 -8.87233625141E+02  8.89737008093E+02  1.77680000006E+00  0.00000000000E+00  1.
       24    2   14   14    0    0 -2.39053509413E+01 -3.28054130332E+01 -1.22608283480E+02  1.29156731982E+02  1.00464445714E+00  0.00000000000E+00  1.
      -24    2   15   15    0    0 -1.53595622066E+01  2.18503606995E+00 -2.02118064352E+02  2.02712830820E+02  2.98844179183E-01  0.00000000000E+00  1.
        2    1   16   16  803    0 -2.86470330852E+00 -4.49867095525E+00 -1.62914270845E+01  1.71422041132E+01  2.63417803193E-07  0.00000000000E+00  1.
      -16    1   14   14    0    0 -1.62543174881E+01 -2.17078496623E+01 -8.48872103184E+01  8.91138151445E+01  1.49011611938E-06  0.00000000000E+00  1.
       -1    1   16   16    0  803 -2.10406476328E+01 -2.83067420780E+01 -1.06316856396E+02  1.12014527869E+02  0.00000000000E+00  0.00000000000E+00  1.
       15    1   17   17    0    0 -5.69459875613E+00  8.54004198292E-01 -7.32273671825E+01  7.34534211773E+01  0.00000000000E+00  0.00000000000E+00  1.
       16    1   15   15    0    0 -5.09729272130E+01  4.54414057123E+00 -6.85115560789E+02  6.87024177273E+02  1.19209289551E-05  0.00000000000E+00  1.
      -16    1   17   17    0    0 -9.66496345050E+00  1.33103187166E+00 -1.28890697170E+02  1.29259409643E+02  2.10734242554E-06  0.00000000000E+00  1.
</event>
<event>
23  80   1.0000000E+00   2.3570000E+02   7.8125000E-03   1.1298309E-01
       -2   -1    0    0    0  502  0.00000000000E+00  0.00000000000E+00  3.07222644917E+02  3.07222644917E+02  0.00000000000E+00  0.00000000000E+00  1.
        2   -1    0    0  501    0  0.00000000000E+00  0.00000000000E+00 -5.44593842930E+02  5.44593842930E+02  0.00000000000E+00  0.00000000000E+00  1.
       25    2    1    2    0    0 -4.40232290948E+01 -4.96131770236E+01 -1.27118548732E+02  1.90219971259E+02  1.25000000000E+02  0.00000000000E+00  1.
       -6    2    1    2    0  502 -1.27074564364E+02  1.23558807747E+02 -2.68687267548E+02  3.65291577842E+02  1.72714693119E+02  0.00000000000E+00  1.
        6    2    1    2  501    0  1.71097793459E+02 -7.39456307237E+01  1.58434618267E+02  2.96304938746E+02  1.67190541689E+02  0.00000000000E+00  1.
       -5    1    4    4    0  502 -8.98477045001E+01  7.91624949779E+01 -2.24526774146E+02  2.54507652976E+02  4.74999999999E+00  0.00000000000E+00  1.
      -24    2    4    4    0    0 -3.72268598641E+01  4.43963127694E+01 -4.41604934018E+01  1.10783924865E+02  8.34629088168E+01  0.00000000000E+00  1.
        1    1    7    7  704    0 -5.63562713242E+01  6.31019072359E+00 -3.66122512093E+01  6.75004056517E+01  1.26159253648E-06  0.00000000000E+00  1.
       -2    1    7    7    0  704  1.91294114601E+01  3.80861220458E+01 -7.54824219247E+00  4.32835192134E+01  7.67952127858E-07  0.00000000000E+00  1.
        5    1    5    5  501    0  2.69848287017E+01 -5.12842550352E+01  1.07200488528E+02  1.21953938170E+02  4.75000000000E+00  0.00000000000E+00  1.
       24    2    5    5    0    0  1.44112964757E+02 -2.26613756885E+01  5.12341297385E+01  1.74351000576E+02  8.05682989303E+01  0.00000000000E+00  1.
      -15    1   11   11    0    0  4.29205004221E+01  1.75927613106E+01  4.59521585908E+01  6.53179340182E+01  1.77680000000E+00  0.00000000000E+00  1.
       16    1   11   11    0    0  1.01192464335E+02 -4.02541369991E+01  5.28197114769E+00  1.09033066558E+02  1.81769736790E-06  0.00000000000E+00  1.
      -15    2    3    3    0    0  3.02129104667E+01 -4.61782849466E+01 -9.36107988350E+01  1.08680231120E+02  1.77680000000E+00  0.00000000000E+00  1.
       15    2    3    3    0    0 -7.42361395615E+01 -3.43489207700E+00 -3.35077498970E+01  8.15397401393E+01  1.77680000000E+00  0.00000000000E+00  1.
       24    2   14   14    0    0  1.39401582107E+01 -1.98132054721E+01 -4.04762951838E+01  4.71725457468E+01  1.65766122307E-01  0.00000000000E+00  1.
      -24    2   15   15    0    0 -5.59080060407E+01 -3.12220491859E+00 -2.57559429025E+01  6.16372588041E+01  5.74260469953E-01  0.00000000000E+00  1.
       16    1   16   16    0    0  2.93963653009E+00 -4.12311786935E+00 -8.34497526788E+00  9.76115649475E+00  2.63417803193E-07  0.00000000000E+00  1.
      -16    1   14   14    0    0  1.62727522560E+01 -2.63650794745E+01 -5.31345036512E+01  6.15076853729E+01  7.45058059692E-07  0.00000000000E+00  1.
      -15    1   16   16    0    0  1.10005216807E+01 -1.56900876028E+01 -3.21313199159E+01  3.74113892520E+01  3.72529029846E-07  0.00000000000E+00  1.
       13    1   17   17    0    0 -2.13150021417E+01 -9.17427951815E-01 -9.74750000334E+00  2.34560172805E+01  1.86264514923E-07  0.00000000000E+00  1.
       16    1   15   15    0    0 -1.83281335209E+01 -3.12687158418E-01 -7.75180699454E+00  1.99024813352E+01  3.83994134666E-07  0.00000000000E+00  1.
      -14    1   17   17    0    0 -3.45930038989E+01 -2.20477696677E+00 -1.60084428992E+01  3.81812415236E+01  7.45058059692E-07  0.00000000000E+00  1.
</event>
<event>
23  80   1.0000000E+00   2.3570000E+02   7.8125000E-03   1.1298309E-01
       -2   -1    0    0    0  502  0.00000000000E+00  0.00000000000E+00  1.07159495702E+02  1.07159495702E+02  0.00000000000E+00  0.00000000000E+00  1.
        2   -1    0    0  501    0  0.00000000000E+00  0.00000000000E+00 -2.55799208399E+03  2.55799208399E+03  0.00000000000E+00  0.00000000000E+00  1.
       25    2    1    2    0    0  1.77914497462E+02  3.74228123462E+02 -1.01651167203E+03  1.10481728632E+03  1.25000000000E+02  0.00000000000E+00  1.
       -6    2    1    2    0  502  6.14545056304E+01 -1.39174319087E+02 -5.55335773145E+02  6.03918972978E+02  1.82137743570E+02  0.00000000000E+00  1.
        6    2    1    2  501    0 -2.39369003093E+02 -2.35053804375E+02 -8.78985143121E+02  9.56415320393E+02  1.71952239482E+02  0.00000000000E+00  1.
       -5    1    4    4    0  502 -1.10604148801E+01 -8.46583654636E+01 -9.31893646551E+01  1.26476052299E+02  4.75000000000E+00  0.00000000000E+00  1.
      -24    2    4    4    0    0  7.25149205105E+01 -5.45159536234E+01 -4.62146408490E+02  4.77442920679E+02  7.83711473083E+01  0.00000000000E+00  1.
        3    1    7    7  704    0 -1.49865197651E+01 -1.52443843125E+01 -5.18143572027E+01  5.60510003485E+01  3.30362473978E-06  0.00000000000E+00  1.
       -4    1    7    7    0  704  8.75014402755E+01 -3.92715693110E+01 -4.10332051287E+02  4.21391920330E+02  0.00000000000E+00  0.00000000000E+00  1.
        5    1    5    5  501    0  2.89750063797E+00 -1.44064288487E+01 -1.75166754294E+02  1.75846225470E+02  4.75000000000E+00  0.00000000000E+00  1.
       24    2    5    5    0    0 -2.42266503731E+02 -2.20647375526E+02 -7.03818388827E+02  7.80569094923E+02  8.09287609069E+01  0.00000000000E+00  1.
       -3    1   11   11    0  703 -9.40097806975E+01 -1.07970486747E+02 -3.92679408325E+02  4.17962417686E+02  7.62939453125E-06  0.00000000000E+00  1.
        4    1   11   11  703    0 -1.48256723033E+02 -1.12676888779E+02 -3.11138980501E+02  3.62606677237E+02  5.39479660939E-06  0.00000000000E+00  1.
      -15    2    3    3    0    0  1.23312970128E+02  3.27798185286E+02 -9.21348257407E+02  9.85669065824E+02  1.77679999998E+00  0.00000000000E+00  1.
       15    2    3    3    0    0  5.46015273343E+01  4.64299381757E+01 -9.51634146233E+01  1.19148220496E+02  1.77680000000E+00  0.00000000000E+00  1.
       24    2   14   14    0    0  9.64998998334E+01  2.55458531789E+02 -7.16622053623E+02  7.66888845690E+02  2.04382401117E-01  0.00000000000E+00  1.
      -24    2   15   15    0    0  4.05330036988E+01  3.43884751497E+01 -6.97753469488E+01  8.77241187687E+01  1.19597657029E+00  0.00000000000E+00  1.
       16    1   16   16    0    0  2.40719844030E+01  6.38427119039E+01 -1.78833682511E+02  1.91407518914E+02  2.10734242554E-06  0.00000000000E+00  1.
      -16    1   14   14    0    0  2.68130702943E+01  7.23396534973E+01 -2.04726203783E+02  2.18780220135E+02  5.16191365590E-06  0.00000000000E+00  1.
      -15    1   16   16    0    0  7.24279154303E+01  1.91615819885E+02 -5.37788371112E+02  5.75481326776E+02  1.19209289551E-05  0.00000000000E+00  1.
        3    1   17   17  804    0  5.75751482414E+00  4.43527192712E+00 -9.91614163624E+00  1.22943271051E+01  4.36829008146E-07  0.00000000000E+00  1.
       16    1   15   15    0    0  1.40685236356E+01  1.20414630260E+01 -2.53880676745E+01  3.14241017268E+01  0.00000000000E+00  0.00000000000E+00  1.
       -4    1   17   17    0  804  3.47754888747E+01  2.99532032226E+01 -5.98592053125E+01  7.54297916636E+01  1.66600046866E-06  0.00000000000E+00  1.
</event>
<event>
23  80   1.0000000E+00   2.3570000E+02   7.8125000E-03   1.1298309E-01
       -1   -1    0    0    0  502  0.00000000000E+00  0.00000000000E+00  8.74101419785E+02  8.74101419785E+02  0.00000000000E+00  0.00000000000E+00  1.
        1   -1    0    0  501    0  0.00000000000E+00  0.00000000000E+00 -1.75683839125E+02  1.75683839125E+02  0.00000000000E+00  0.00000000000E+00  1.
       25    2    1    2    0    0  5.07396303931E+01  7.73888388371E+01  1.45039326149E+02  2.12661582329E+02  1.25000000000E+02  0.00000000000E+00  1.
       -6    2    1    2    0  502 -2.50654492140E+02 -2.02707029070E+01  1.25060077150E+02  3.29940604863E+02  1.73153700550E+02  0.00000000000E+00  1.
        6    2    1    2  501    0  1.99914861747E+02 -5.71181359301E+01  4.28318177362E+02  5.07183071719E+02  1.74784935792E+02  0.00000000000E+00  1.
       -5    1    4    4    0  502 -1.31049188983E+02 -7.17445188880E+01  5.17408430892E+01  1.58179781474E+02  4.75000000000E+00  0.00000000000E+00  1.
      -24    2    4    4    0    0 -1.19605303157E+02  5.14738159811E+01  7.33192340606E+01  1.71760823389E+02  8.46822773256E+01  0.00000000000E+00  1.
       15    1    7    7    0    0  8.10902819176E+00  1.54523996112E+01 -4.25862895090E+00  1.80506490393E+01  1.77680000000E+00  0.00000000000E+00  1.
      -16    1    7    7    0    0 -1.27714331349E+02  3.60214163699E+01  7.75778630115E+01  1.53710174349E+02  3.56832255056E-06  0.00000000000E+00  1.
        5    1    5    5  501    0  1.18745407211E+02 -8.92702766177E+01  1.90950935676E+02  2.41980322251E+02  4.74999999999E+00  0.00000000000E+00  1.
       24    2    5    5    0    0  8.11694545357E+01  3.21521406876E+01  2.37367241686E+02  2.65202749468E+02  7.97937992526E+01  0.00000000000E+00  1.
       -1    1   11   11    0  703  5.55032503574E+01  2.28965341781E+01  5.70149874803E+01  8.27983748330E+01  2.61174467805E-06  0.00000000000E+00  1.
        2    1   11   11  703    0  2.56662041783E+01  9.25560650946E+00  1.80352254206E+02  1.82404374635E+02  0.00000000000E+00  0.00000000000E+00  1.
      -15    2    3    3    0    0  1.77797495198E+01 -3.31371383691E+01  2.03329415213E+01  4.27875561516E+01  1.77680000000E+00  0.00000000000E+00  1.
       15    2    3    3    0    0  3.29598808733E+01  1.10525977206E+02  1.24706384628E+02  1.69874026177E+02  1.77680000000E+00  0.00000000000E+00  1.
       24    2   14   14    0    0  1.69995064955E+01 -3.22135743594E+01  1.98664509459E+01  4.14916537194E+01  4.28790254294E-01  0.00000000000E+00  1.
      -24    2   15   15    0    0  8.73060870443E+00  2.87381720930E+01  3.17664889895E+01  4.37228196976E+01  6.84891226731E-01  0.00000000000E+00  1.
       16    1   16   16    0    0  1.01033294159E+01 -1.86968006051E+01  1.15577897264E+01  2.41915299539E+01  5.43049713117E-07  0.00000000000E+00  1.
      -16    1   14   14    0    0  7.80243024327E-01 -9.23564009653E-01  4.66490575368E-01  1.29590243222E+00  2.25437301340E-08  0.00000000000E+00  1.
      -15    1   16   16    0    0  6.89617707962E+00 -1.35167737543E+01  8.30866121952E+00  1.73001237655E+01  1.86264514923E-07  0.00000000000E+00  1.
       15    1   17   17    0    0  3.90127195848E+00  1.16847071214E+01  1.29974419378E+01  1.79077022628E+01  1.86264514923E-07  0.00000000000E+00  1.
       16    1   15   15    0    0  2.42292721689E+01  8.17878051132E+01  9.29398956383E+01  1.26151206480E+02  1.49011611938E-06  0.00000000000E+00  1.
      -16    1   17   17    0    0  4.82933674596E+00  1.70534649716E+01  1.87690470517E+01  2.58151174348E+01  2.63417803193E-07  0.00000000000E+00  1.
</event>
<event>
23  80   1.0000000E+00   2.3570000E+02   7.8125000E-03   1.1298309E-01
       -1   -1    0    0    0  502  0.00000000000E+00  0.00000000000E+00  9.85555910808E+01  9.85555910808E+01  0.00000000000E+00  0.00000000000E+00  1.
        1   -1    0    0  501    0  0.00000000000E+00  0.00000000000E+00 -7.13171704613E+02  7.13171704613E+02  0.00000000000E+00  0.00000000000E+00  1.
       25    2    1    2    0    0 -3.17485033506E+01 -5.30225412682E+00 -4.45513017828E+01  1.36549990313E+02  1.25000000000E+02  0.00000000000E+00  1.
       -6    2    1    2    0  502 -2.56029780054E+01 -2.37416169396E+01 -2.39218358792E+02  2.96207809439E+02  1.71156262905E+02  0.00000000000E+00  1.
        6    2    1    2  501    0  5.73514813561E+01  2.90438710664E+01 -3.30846452958E+02  3.78969495943E+02  1.73279440673E+02  0.00000000000E+00  1.
       -5    1    4    4    0  502 -4.84147789865E+01  2.61266887866E+01 -1.66848836365E+02  1.75748944201E+02  4.75000000000E+00  0.00000000000E+00  1.
      -24    2    4    4    0    0  2.28118009811E+01 -4.98683057262E+01 -7.23695224265E+01  1.20458865238E+02  7.91565806369E+01  0.00000000000E+00  1.
        3    1    7    7  704    0 -9.13219261993E+00 -1.81238105420E+01 -7.26415771995E+01  7.54232602626E+01  9.53674316406E-07  0.00000000000E+00  1.
       -4    1    7    7    0  704  3.19439936010E+01 -3.17444951842E+01  2.72054772978E-01  4.50356049752E+01  3.57666671655E-07  0.00000000000E+00  1.
        5    1    5    5  501    0  5.74980644323E+01 -3.05878088275E+01 -2.26448627297E+02  2.35676016530E+02  4.75000000000E+00  0.00000000000E+00  1.
       24    2    5    5    0    0 -1.46583076215E-01  5.96316798939E+01 -1.04397825660E+02  1.43293479413E+02  7.79625327074E+01  0.00000000000E+00  1.
       -1    1   11   11    0  703  1.20501870067E+01  1.13056854792E+01 -8.98722551725E+01  9.13785958572E+01  1.90734863281E-06  0.00000000000E+00  1.
        2    1   11   11  703    0 -1.21967700829E+01  4.83259944147E+01 -1.45255704878E+01  5.19148835559E+01  1.61703347757E-06  0.00000000000E+00  1.
      -15    2    3    3    0    0  2.46268583684E+00  3.15354586058E+01  3.19477740224E+01  4.49929689423E+01  1.77680000000E+00  0.00000000000E+00  1.
       15    2    3    3    0    0 -3.42111891874E+01 -3.68377127327E+01 -7.64990758052E+01  9.15570213707E+01  1.77680000000E+00  0.00000000000E+00  1.
       24    2   14   14    0    0  2.14880583703E+00  3.02304305735E+01  3.08513475516E+01  4.32598302215E+01  1.05402365210E+00  0.00000000000E+00  1.
      -24    2   15   15    0    0 -4.15080089889E+00 -3.72430073387E+00 -8.09245774342E+00  9.82826025869E+00  8.52251432988E-02  0.00000000000E+00  1.
        4    1   16   16  803    0  6.17705917441E-01  4.20526247606E+00  4.07010939657E+00  5.88486054151E+00  1.80349841072E-07  0.00000000000E+00  1.
      -16    1   14   14    0    0  3.13879999812E-01  1.30502803233E+00  1.09642647081E+00  1.73313872074E+00  3.29272253991E-08  0.00000000000E+00  1.
       -3    1   16   16    0  803  1.53109991958E+00  2.60251680974E+01  2.67812381550E+01  3.73749696800E+01  9.12506037497E-07  0.00000000000E+00  1.
       15    1   17   17    0    0 -3.56660398939E+00 -3.17644178188E+00 -6.88734018552E+00  8.38128279215E+00  9.31322574615E-08  0.00000000000E+00  1.
       16    1   15   15    0    0 -3.00603882885E+01 -3.31134119988E+01 -6.84066180618E+01  8.17287611121E+01  1.29047841398E-06  0.00000000000E+00  1.
      -16    1   17   17    0    0 -5.84196909501E-01 -5.47858951988E-01 -1.20511755790E+00  1.44697746655E+00  2.85158136718E-08  0.00000000000E+00  1.
</event>
<event>
23  80   1.0000000E+00   2.3570000E+02   7.8125000E-03   1.1298309E-01
       -1   -1    0    0    0  502  0.00000000000E+00  0.00000000000E+00  1.16309070998E+02  1.16309070998E+02  0.00000000000E+00  0.00000000000E+00  1.
        1   -1    0    0  501    0  0.00000000000E+00  0.00000000000E+00 -2.59195657693E+03  2.59195657693E+03  0.00000000000E+00  0.00000000000E+00  1.
       25    2    1    2    0    0 -1.08187362123E+01 -1.52541941078E+02 -1.05877586009E+03  1.07704104413E+03  1.25000000000E+02  0.00000000000E+00  1.
       -6    2    1    2    0  502 -2.68613980931E-01  2.10509356363E+02 -8.36842164617E+01  2.85502282211E+02  1.73764909557E+02  0.00000000000E+00  1.
        6    2    1    2  501    0  1.10873501932E+01 -5.79674152844E+01 -1.33318742939E+03  1.34572232159E+03  1.73483988816E+02  0.00000000000E+00  1.
       -5    1    4    4    0  502  5.74261375627E+01  4.05958372871E+01  3.51123654906E+00  7.05738943414E+01  4.75000000000E+00  0.00000000000E+00  1.
      -24    2    4    4    0    0 -5.76947515437E+01  1.69913519075E+02 -8.71954530107E+01  2.14928387870E+02  7.99492124181E+01  0.00000000000E+00  1.
       13    1    7    7    0    0 -2.80522136878E+01  2.14165379460E+01 -4.60353879680E+01  5.80074383142E+01  1.05660000002E-01  0.00000000000E+00  1.
      -14    1    7    7    0    0 -2.96425378558E+01  1.48496981129E+02 -4.11600650428E+01  1.56920949556E+02  1.26159253648E-06  0.00000000000E+00  1.
        5    1    5    5  501    0  1.63570713908E+01 -8.88346919146E+01 -8.62762253301E+02  8.67490878623E+02  4.75000000001E+00  0.00000000000E+00  1.
       24    2    5    5    0    0 -5.26972119761E+00  3.08672766302E+01 -4.70425176088E+02  4.78231442968E+02  8.01555239353E+01  0.00000000000E+00  1.
      -11    1   11   11    0    0  2.43847707461E+01  6.79462107040E+00 -4.96919360161E+01  5.57680233209E+01  5.10960329757E-04  0.00000000000E+00  1.
       12    1   11   11    0    0 -2.96544919438E+01  2.40726555598E+01 -4.20733240072E+02  4.22463419647E+02  5.39479660939E-06  0.00000000000E+00  1.
      -15    2    3    3    0    0  4.32561019561E+01 -1.05311776744E+01 -2.88103628817E+02  2.91528478910E+02  1.77680000000E+00  0.00000000000E+00  1.
       15    2    3    3    0    0 -5.40748381684E+01 -1.42010763404E+02 -7.70672231273E+02  7.85512565220E+02  1.77679999990E+00  0.00000000000E+00  1.
       24    2   14   14    0    0  1.25052153703E+01 -3.48554627833E+00 -8.31557640322E+01  8.41667533492E+01  7.94879394032E-01  0.00000000000E+00  1.
      -24    2   15   15    0    0 -3.99442985721E+01 -1.05313126244E+02 -5.70932163214E+02  5.81938294963E+02  1.49753299644E+00  0.00000000000E+00  1.
        2    1   16   16  803    0  4.31020196667E-02  2.10211144785E-02 -1.49830980731E-01  1.57318130360E-01  1.39577067554E-08  0.00000000000E+00  1.
      -16    1   14   14    0    0  3.07508865858E+01 -7.04563139611E+00 -2.04947864785E+02  2.07361725560E+02  2.98023223877E-06  0.00000000000E+00  1.
       -1    1   16   16    0  803  1.24621133506E+01 -3.50656739281E+00 -8.30059330515E+01  8.40094352189E+01  1.05367121277E-06  0.00000000000E+00  1.
       13    1   17   17    0    0 -7.86541477090E+00 -2.23948752414E+01 -1.19453641409E+02  1.21789029196E+02  2.10734242554E-06  0.00000000000E+00  1.
       16    1   15   15    0    0 -1.41305395964E+01 -3.66976371594E+01 -1.99740068059E+02  2.03574270257E+02  0.00000000000E+00  0.00000000000E+00  1.
      -14    1   17   17    0    0 -3.20788838012E+01 -8.29182510028E+01 -4.51478521804E+02  4.60149265767E+02  5.96046447754E-06  0.00000000000E+00  1.
</event>
<event>
23  80   1.0000000E+00   2.3570000E+02   7.8125000E-03   1.1298309E-01
       -1   -1    0    0    0  502  0.00000000000E+00  0.00000000000E+00  3.96864546852E+01  3.96864546852E+01  0.00000000000E+00  0.00000000000E+00  1.
        1   -1    0    0  501    0  0.00000000000E+00  0.00000000000E+00 -2.04032636599E+03  2.04032636599E+03  0.00000000000E+00  0.00000000000E+00  1.
       25    2    1    2    0    0 -2.77731544598E+01  4.50826584407E+01 -3.44560535454E+02  3.70338705502E+02  1.25000000000E+02  0.00000000000E+00  1.
       -6    2    1    2    0  502  1.14504843511E+02 -2.32411077203E+01 -1.10897464761E+03  1.12849719290E+03  1.73290614515E+02  0.00000000000E+00  1.
        6    2    1    2  501    0 -8.67316890511E+01 -2.18415507204E+01 -5.47104728242E+02  5.81176922269E+02  1.74480921849E+02  0.00000000000E+00  1.
       -5    1    4    4    0  502 -2.04742523772E+01 -4.04393343367E+01 -1.61280463906E+02  1.67596197182E+02  4.74999999999E+00  0.00000000000E+00  1.
      -24    2    4    4    0    0  1.34979095888E+02  1.71982266164E+01 -9.47694183702E+02  9.60900995722E+02  8.18005038604E+01  0.00000000000E+00  1.
        1    1    7    7  704    0  5.20877851394E+01 -2.57084758301E+01 -5.14302019536E+02  5.17571860121E+02  7.62939453125E-06  0.00000000000E+00  1.
       -2    1    7    7    0  704  8.28913107487E+01  4.29067024465E+01 -4.33392164165E+02  4.43329135600E+02  5.39479660939E-06  0.00000000000E+00  1.
        5    1    5    5  501    0 -3.00210617919E+01 -2.27164026471E+01 -4.14822531469E+02  4.16554431275E+02  4.74999999999E+00  0.00000000000E+00  1.
       24    2    5    5    0    0 -5.67106272592E+01  8.74851926728E-01 -1.32282196773E+02  1.64622490994E+02  7.99069730863E+01  0.00000000000E+00  1.
       -1    1   11   11    0  703 -7.01930189986E+01 -1.97968400894E+01 -1.04875478354E+02  1.27741304023E+02  1.34869915235E-06  0.00000000000E+00  1.
        2    1   11   11  703    0  1.34823917394E+01  2.06716920161E+01 -2.74067184194E+01  3.68811869703E+01  6.74349576174E-07  0.00000000000E+00  1.
      -15    2    3    3    0    0 -3.52595163901E-01 -2.11253952902E+01 -3.09210304296E+00  2.14271969466E+01  1.77680000000E+00  0.00000000000E+00  1.
       15    2    3    3    0    0 -2.74205592959E+01  6.62080537309E+01 -3.41468432411E+02  3.48911508555E+02  1.77680000000E+00  0.00000000000E+00  1.
       24    2   14   14    0    0  4.46304107280E-01 -9.54287689017E+00 -1.68114685198E+00  9.73173757524E+00  7.84075760529E-01  0.00000000000E+00  1.
      -24    2   15   15    0    0 -1.87641317246E+01  4.63654629276E+01 -2.41733656412E+02  2.46854232031E+02  4.93684108722E-02  0.00000000000E+00  1.
        4    1   16   16  803    0 -6.64146260831E-02 -4.93101218419E+00 -1.12594180247E+00  5.05836307571E+00  1.98930589140E-07  0.00000000000E+00  1.
      -16    1   14   14    0    0 -7.98899271180E-01 -1.15825184001E+01 -1.41095619098E+00  1.16954593713E+01  8.13575704100E-07  0.00000000000E+00  1.
       -3    1   16   16    0  803  5.12718733363E-01 -4.61186470598E+00 -5.55205049514E-01  4.67337449953E+00  2.54521275743E-07  0.00000000000E+00  1.
       15    1   17   17    0    0 -9.76667518533E+00  2.40834396248E+01 -1.25519428444E+02  1.28181616955E+02  2.10734242554E-06  0.00000000000E+00  1.
       16    1   15   15    0    0 -8.65642757131E+00  1.98425908033E+01 -9.97347759988E+01  1.02057276525E+02  2.10734242554E-06  0.00000000000E+00  1.
      -16    1   17   17    0    0 -8.99745653926E+00  2.22820233028E+01 -1.16214227968E+02  1.18672615076E+02  0.00000000000E+00  0.00000000000E+00  1.
</event>
<event>
23  80   1.0000000E+00   2.3570000E+02   7.8125000E-03   1.1298309E-01
       -1   -1    0    0    0  502  0.00000000000E+00  0.00000000000E+00  6.10117940946E+02  6.10117940946E+02  0.00000000000E+00  0.00000000000E+00  1.
        1   -1    0    0  501    0  0.00000000000E+00  0.00000000000E+00 -2.70134259597E+02  2.70134259597E+02  0.00000000000E+00  0.00000000000E+00  1.
       25    2    1    2    0    0 -1.27258637722E+02  1.17316574466E+02  2.36065844799E+02  3.18292353977E+02  1.25000000000E+02  0.00000000000E+00  1.
       -6    2    1    2    0  502 -1.48857032933E+01 -1.29289925254E+02 -1.17772916370E+02  2.46587058739E+02  1.73197138464E+02  0.00000000000E+00  1.
        6    2    1    2  501    0  1.42144341016E+02  1.19733507886E+01  2.21690752920E+02  3.15372787828E+02  1.73103525557E+02  0.00000000000E+00  1.
       -5    1    4    4    0  502  3.41976699740E+01  5.76569719161E+00 -6.47388955939E+01  7.35962702756E+01  4.75000000000E+00  0.00000000000E+00  1.
      -24    2    4    4    0    0 -4.90833732673E+01 -1.35055622446E+02 -5.30340207763E+01  1.72990788463E+02  8.03990475553E+01  0.00000000000E+00  1.
        1    1    7    7  704    0 -7.11598463215E+00 -1.17654401755E+02 -2.81251040962E+01  1.21178450931E+02  1.11828226085E-06  0.00000000000E+00  1.
       -2    1    7    7    0  704 -4.19673886352E+01 -1.74012206914E+01 -2.49089166801E+01  5.18123375325E+01  1.54512898884E-06  0.00000000000E+00  1.
        5    1    5    5  501    0 -2.25402219513E+01  3.18122609771E+01  2.46292350953E+01  4.63599317889E+01  4.75000000000E+00  0.00000000000E+00  1.
       24    2    5    5    0    0  1.64684562967E+02 -1.98389101885E+01  1.97061517825E+02  2.69012856039E+02  7.75892213504E+01  0.00000000000E+00  1.
       -3    1   11   11    0  703  9.78076771846E+01 -1.02352237421E+01  1.69667586456E+02  1.96107601625E+02  0.00000000000E+00  0.00000000000E+00  1.
        4    1   11   11  703    0  6.68768857823E+01 -9.60368644640E+00  2.73939313684E+01  7.29052544136E+01  8.25906184945E-07  0.00000000000E+00  1.
      -15    2    3    3    0    0 -5.16894774074E+01 -2.59289404934E+00  1.20029233463E+01  5.31578062122E+01  1.77680000000E+00  0.00000000000E+00  1.
       15    2    3    3    0    0 -7.55691603146E+01  1.19909468515E+02  2.24062921453E+02  2.65134547765E+02  1.77680000000E+00  0.00000000000E+00  1.
       24    2   14   14    0    0 -1.52333232614E+01 -3.55365396722E-01  4.24068782231E+00  1.58173454503E+01  1.56721838624E-01  0.00000000000E+00  1.
      -24    2   15   15    0    0 -1.37530916382E+01  2.09118439589E+01  4.03585270509E+01  4.74902036229E+01  2.36615841622E-01  0.00000000000E+00  1.
       16    1   16   16    0    0 -6.76166937681E+00 -7.98533385548E-02  1.88221807471E+00  7.01920894387E+00  1.52677263233E-07  0.00000000000E+00  1.
      -16    1   14   14    0    0 -3.64561541459E+01 -2.23752865262E+00  7.76223552400E+00  3.73404607619E+01  6.03566011266E-07  0.00000000000E+00  1.
      -15    1   16   16    0    0 -8.47165388460E+00 -2.75512058167E-01  2.35846974761E+00  8.79813650639E+00  9.31322574615E-08  0.00000000000E+00  1.
       15    1   17   17    0    0 -9.01946352489E+00  1.36450849434E+01  2.65749900929E+01  3.12052746155E+01  5.26835606386E-07  0.00000000000E+00  1.
       16    1   15   15    0    0 -6.18160686764E+01  9.89976245564E+01  1.83704394402E+02  2.17644344142E+02  2.10734242554E-06  0.00000000000E+00  1.
      -16    1   17   17    0    0 -4.73362811332E+00  7.26675901550E+00  1.37835369580E+01  1.62849290075E+01  2.63417803193E-07  0.00000000000E+00  1.
</event>
<event>
23  80   1.0000000E+00   2.3570000E+02   7.8125000E-03   1.1298309E-01
       21   -1    0    0  501  510  0.00000000000E+00  0.00000000000E+00  1.16087159902E+02  1.16087159902E+02  0.00000000000E+00  0.00000000000E+00  1.
       21   -1    0    0  510  502  0.00000000000E+00  0.00000000000E+00 -6.39776518265E+02  6.39776518265E+02  0.00000000000E+00  0.00000000000E+00  1.
       25    2    1    2    0    0 -1.01876399502E+02 -6.41216213317E+01 -1.33977795183E+02  2.19238301170E+02  1.25000000000E+02  0.00000000000E+00  1.
       -6    2    1    2    0  502  4.00445797935E+01  3.19895871060E+01 -2.07227032110E+02  2.74154752567E+02  1.72020008905E+02  0.00000000000E+00  1.
        6    2    1    2  501    0  6.18318197089E+01  3.21320342257E+01 -1.82484531070E+02  2.62470624430E+02  1.75312814868E+02  0.00000000000E+00  1.
       -5    1    4    4    0  502  7.31647388747E+01  5.23309841651E+01 -1.13328864155E+02  1.44767416461E+02  4.75000000000E+00  0.00000000000E+00  1.
      -24    2    4    4    0    0 -3.31201590811E+01 -2.03413970591E+01 -9.38981679554E+01  1.29387336105E+02  8.00843269759E+01  0.00000000000E+00  1.
        1    1    7    7  704    0 -2.06086134795E+01 -3.08154761725E+01 -1.03854430656E+02  1.10272622569E+02  1.90734863281E-06  0.00000000000E+00  1.
       -4    1    7    7    0  704 -1.25115456016E+01  1.04740791134E+01  9.95626270079E+00  1.91147135365E+01  1.98045345853E-06  0.00000000000E+00  1.
        5    1    5    5  501    0  2.36773971956E+01 -2.60325066881E+01  1.43892563451E+01  3.83134929312E+01  4.75000000000E+00  0.00000000000E+00  1.
       24    2    5    5    0    0  3.81544225133E+01  5.81645409138E+01 -1.96873787415E+02  2.24157131499E+02  8.15368484403E+01  0.00000000000E+00  1.
       -1    1   11   11    0  703  6.33567140442E+01  4.63085672431E+01 -1.32148581079E+02  1.53693864861E+02  1.90734863281E-06  0.00000000000E+00  1.
        2    1   11   11  703    0 -2.52022915308E+01  1.18559736707E+01 -6.47252063358E+01  7.04632666380E+01  3.16297987972E-06  0.00000000000E+00  1.
      -15    2    3    3    0    0  2.76313032568E+01 -3.40309611646E+00 -3.73338372205E+01  4.66051757071E+01  1.77680000000E+00  0.00000000000E+00  1.
       15    2    3    3    0    0 -1.29507702759E+02 -6.07185252152E+01 -9.66439579625E+01  1.72633125463E+02  1.77680000000E+00  0.00000000000E+00  1.
       24    2   14   14    0    0  1.46660958343E+01 -1.95905081464E+00 -1.83771412893E+01  2.35934788777E+01  2.60090463863E-02  0.00000000000E+00  1.
      -24    2   15   15    0    0 -9.79095845843E+01 -4.65247067382E+01 -7.36655661818E+01  1.31064964041E+02  7.57672590474E-01  0.00000000000E+00  1.
       16    1   16   16    0    0  5.55562455551E+00 -7.54736789565E-01 -6.96594059001E+00  8.94197518039E+00  2.46404792281E-07  0.00000000000E+00  1.
      -16    1   14   14    0    0  1.29652074225E+01 -1.44404530182E+00 -1.89566959312E+01  2.30116968295E+01  6.45239206988E-07  0.00000000000E+00  1.
      -15    1   16   16    0    0  9.11047127880E+00 -1.20431402507E+00 -1.14112006993E+01  1.46515036973E+01  2.63417803193E-07  0.00000000000E+00  1.
       13    1   17   17    0    0 -7.18198105814E+01 -3.44735628779E+01 -5.39927977370E+01  9.62379028082E+01  0.00000000000E+00  0.00000000000E+00  1.
       16    1   15   15    0    0 -3.15981181745E+01 -1.41938184770E+01 -2.29783917807E+01  4.15681614214E+01  3.72529029846E-07  0.00000000000E+00  1.
      -14    1   17   17    0    0 -2.60897740029E+01 -1.20511438602E+01 -1.96727684448E+01  3.48270612333E+01  0.00000000000E+00  0.00000000000E+00  1.
</event>
<event>
23  80   1.0000000E+00   2.3570000E+02   7.8125000E-03   1.1298309E-01
       21   -1    0    0  501  510  0.00000000000E+00  0.00000000000E+00  1.18425369772E+03  1.18425369772E+03  0.00000000000E+00  0.00000000000E+00  1.
       21   -1    0    0  510  502  0.00000000000E+00  0.00000000000E+00 -2.55798804850E+02  2.55798804850E+02  0.00000000000E+00  0.00000000000E+00  1.
       25    2    1    2    0    0  9.37241983353E+01  2.28940117127E+02  3.80452005928E+02  4.70708541880E+02  1.25000000000E+02  0.00000000000E+00  1.
       -6    2    1    2    0  502  5.95313292399E+01 -4.08048501847E+02  1.42626977749E+02  4.70015306029E+02  1.74712260873E+02  0.00000000000E+00  1.
        6    2    1    2  501    0 -1.53255527575E+02  1.79108384719E+02  4.05375909188E+02  4.99328654657E+02  1.71558757870E+02  0.00000000000E+00  1.
       -5    1    4    4    0  502 -4.56225019564E+01 -6.21809134673E+01  2.47784267391E+01  8.11443874587E+01  4.75000000000E+00  0.00000000000E+00  1.
      -24    2    4    4    0    0  1.05153831196E+02 -3.45867588379E+02  1.17848551010E+02  3.88870918570E+02  8.15511706104E+01  0.00000000000E+00  1.
        3    1    7    7  704    0  1.08541177385E+02 -3.29491663805E+02  1.27459319993E+02  3.69583308549E+02  3.56832255056E-06  0.00000000000E+00  1.
       -2    1    7    7    0  704 -3.38734618917E+00 -1.63759245747E+01 -9.61076898317E+00  1.92876100212E+01  5.56466103410E-06  0.00000000000E+00  1.
        5    1    5    5  501    0 -1.03556290344E+02  7.73761686583E+01  2.72766019958E+02  3.01885476447E+02  4.75000000000E+00  0.00000000000E+00  1.
       24    2    5    5    0    0 -4.96992372308E+01  1.01732216061E+02  1.32609889231E+02  1.97443178210E+02  9.26227182381E+01  0.00000000000E+00  1.
       -1    1   11   11    0  703 -7.32756731089E+01  5.64741909913E+01  6.65241070374E+01  1.13947862353E+02  9.53674316406E-07  0.00000000000E+00  1.
        2    1   11   11  703    0  2.35764358782E+01  4.52580250699E+01  6.60857821934E+01  8.34953158570E+01  2.13248059988E-06  0.00000000000E+00  1.
      -15    2    3    3    0    0  4.55864585774E+00  1.51647362305E+02  1.59026268564E+02  2.19795848136E+02  1.77680000000E+00  0.00000000000E+00  1.
       15    2    3    3    0    0  8.91655524776E+01  7.72927548223E+01  2.21425737364E+02  2.50912693744E+02  1.77680000000E+00  0.00000000000E+00  1.
       24    2   14   14    0    0  2.14363083938E-01  2.62274359187E+01  2.75916801757E+01  3.80705561361E+01  3.76939248748E-01  0.00000000000E+00  1.
      -24    2   15   15    0    0  6.73771451263E+01  5.73952761722E+01  1.66246875352E+02  1.88339926789E+02  8.39420913841E-02  0.00000000000E+00  1.
       16    1   16   16    0    0  2.58521588176E-01  1.73813159304E+01  1.80897176202E+01  2.50881418296E+01  4.56253018749E-07  0.00000000000E+00  1.
      -16    1   14   14    0    0  4.34428277381E+00  1.25419926386E+02  1.31434588389E+02  1.81725292000E+02  2.98023223877E-06  0.00000000000E+00  1.
      -15    1   16   16    0    0 -4.41585042376E-02  8.84611998829E+00  9.50196255546E+00  1.29824143065E+01  1.86264514923E-07  0.00000000000E+00  1.
       15    1   17   17    0    0  4.06530947405E+01  3.46567065885E+01  1.00263559764E+02  1.13606966512E+02  0.00000000000E+00  0.00000000000E+00  1.
       16    1   15   15    0    0  2.17884073513E+01  1.98974786501E+01  5.51788620121E+01  6.25727669557E+01  1.05367121277E-06  0.00000000000E+00  1.
      -16    1   17   17    0    0  2.67240503858E+01  2.27385695837E+01  6.59833155879E+01  7.47329602767E+01  0.00000000000E+00  0.00000000000E+00  1.
</event>
<event>
23  80   1.0000000E+00   2.3570000E+02   7.8125000E-03   1.1298309E-01
       21   -1    0    0  501  510  0.00000000000E+00  0.00000000000E+00  1.39879013694E+02  1.39879013694E+02  0.00000000000E+00  0.00000000000E+00  1.
       21   -1    0    0  510  502  0.00000000000E+00  0.00000000000E+00 -7.70371865722E+02  7.70371865722E+02  0.00000000000E+00  0.00000000000E+00  1.
       25    2    1    2    0    0  2.12633346157E+01 -8.90624356761E+01 -4.34523218882E+01  1.60926539530E+02  1.25000000000E+02  0.00000000000E+00  1.
       -6    2    1    2    0  502  6.39512852630E+01  1.19196711136E+02 -4.75411691913E+02  5.24022232593E+02  1.74027011155E+02  0.00000000000E+00  1.
        6    2    1    2  501    0 -8.52146198787E+01 -3.01342754597E+01 -1.11628838227E+02  2.25302107293E+02  1.73581208742E+02  0.00000000000E+00  1.
       -5    1    4    4    0  502  6.93881090119E+01  3.17288954646E+01 -3.08582951884E+02  3.17911046007E+02  4.75000000000E+00  0.00000000000E+00  1.
      -24    2    4    4    0    0 -5.43682374891E+00  8.74678156713E+01 -1.66828740029E+02  2.06111186586E+02  8.34854173224E+01  0.00000000000E+00  1.
        3    1    7    7  704    0  2.04293655484E+01  8.13691258288E+01 -1.56559079988E+02  1.77620491896E+02  1.90734863281E-06  0.00000000000E+00  1.
       -4    1    7    7    0  704 -2.58661892973E+01  6.09868984244E+00 -1.02696600416E+01  2.84906946902E+01  1.56795340037E-06  0.00000000000E+00  1.
        5    1    5    5  501    0 -6.11900835214E+01  5.16648836752E+01 -4.58210601949E+01  9.23884115239E+01  4.75000000000E+00  0.00000000000E+00  1.
       24    2    5    5    0    0 -2.40245363574E+01 -8.17991591349E+01 -6.58077780322E+01  1.32913695769E+02  7.78916304306E+01  0.00000000000E+00  1.
       -3    1   11   11    0  703  3.73880015097E+00 -8.51849076750E+01 -3.75959306094E+01  9.31874515187E+01  9.53674316406E-07  0.00000000000E+00  1.
        4    1   11   11  703    0 -2.77633365083E+01  3.38574854003E+00 -2.82118474227E+01  3.97262442506E+01  5.84003863998E-07  0.00000000000E+00  1.
      -15    2    3    3    0    0 -6.92288102944E+00 -6.15334414909E+01 -8.39934499154E+01  1.04366409109E+02  1.77680000000E+00  0.00000000000E+00  1.
       15    2    3    3    0    0  2.81862156451E+01 -2.75289941852E+01  4.05411280272E+01  5.65601304206E+01  1.77680000000E+00  0.00000000000E+00  1.
       24    2   14   14    0    0 -5.05793980236E+00 -4.65688014343E+01 -6.47684927943E+01  7.99324689009E+01  7.68354034388E-02  0.00000000000E+00  1.
      -24    2   15   15    0    0  2.15102614757E+01 -2.07540856294E+01  2.97250205837E+01  4.21567998947E+01  4.42164664692E-01  0.00000000000E+00  1.
       16    1   16   16    0    0 -3.29030084074E+00 -3.05798402406E+01 -4.25593852636E+01  5.25095608702E+01  9.12506037497E-07  0.00000000000E+00  1.
      -16    1   14   14    0    0 -1.86494122708E+00 -1.49646400566E+01 -1.92249571211E+01  2.44339402085E+01  2.63417803193E-07  0.00000000000E+00  1.
      -15    1   16   16    0    0 -1.76763896163E+00 -1.59889611937E+01 -2.22091075307E+01  2.74229080307E+01  2.63417803193E-07  0.00000000000E+00  1.
       15    1   17   17    0    0  5.86221737350E+00 -5.47470514323E+00  7.77122253558E+00  1.11682536073E+01  9.31322574615E-08  0.00000000000E+00  1.
       16    1   15   15    0    0  6.67595416944E+00 -6.77490855579E+00  1.08161074434E+01  1.44033305260E+01  1.86264514923E-07  0.00000000000E+00  1.
      -16    1   17   17    0    0  1.56480441022E+01 -1.52793804862E+01  2.19537980481E+01  3.09885462874E+01  6.96937998156E-07  0.00000000000E+00  1.
</event>
<event>
23  80   1.0000000E+00   2.3570000E+02   7.8125000E-03   1.1298309E-01
       21   -1    0    0  501  510  0.00000000000E+00  0.00000000000E+00  2.69595774817E+02  2.69595774817E+02  0.00000000000E+00  0.00000000000E+00  1.
       21   -1    0    0  510  502  0.00000000000E+00  0.00000000000E+00 -5.84726194838E+02  5.84726194838E+02  0.00000000000E+00  0.00000000000E+00  1.
       25    2    1    2    0    0  1.16679163545E+02 -6.63304246081E+01  9.91169056290E+01  2.08477608907E+02  1.25000000000E+02  0.00000000000E+00  1.
       -6    2    1    2    0  502 -2.03193967675E+02 -8.26911857876E+00 -1.43401375243E+02  3.03873373094E+02  1.74410164935E+02  0.00000000000E+00  1.
        6    2    1    2  501    0  8.65148041301E+01  7.45995431868E+01 -2.70845950407E+02  3.41970987654E+02  1.74747601894E+02  0.00000000000E+00  1.
       -5    1    4    4    0  502 -6.34451425788E+01 -5.14248499348E+01 -1.04465115546E+02  1.32685056332E+02  4.75000000000E+00  0.00000000000E+00  1.
      -24    2    4    4    0    0 -1.39748825096E+02  4.31557313561E+01 -3.89362596963E+01  1.71188316763E+02  7.99828494879E+01  0.00000000000E+00  1.
        1    1    7    7  704    0 -3.57171158093E+01 -1.12094615874E+01 -3.86508015543E+01  5.38075166831E+01  1.16800772800E-06  0.00000000000E+00  1.
       -2    1    7    7    0  704 -1.04031709287E+02  5.43651929435E+01 -2.85458142045E-01  1.17380800080E+02  1.75055747417E-06  0.00000000000E+00  1.
        5    1    5    5  501    0  9.88509985548E+01  4.43150791259E+01 -2.10035318791E+02  2.36374160586E+02  4.75000000000E+00  0.00000000000E+00  1.
       24    2    5    5    0    0 -1.23361944247E+01  3.02844640609E+01 -6.08106316163E+01  1.05596827068E+02  7.98963485577E+01  0.00000000000E+00  1.
       -1    1   11   11    0  703 -1.37970915101E+01 -2.39552907369E+01 -3.73869289799E+01  4.64972918241E+01  0.00000000000E+00  0.00000000000E+00  1.
        2    1   11   11  703    0  1.46089708545E+00  5.42397547978E+01 -2.34237026364E+01  5.90995352436E+01  0.00000000000E+00  0.00000000000E+00  1.
      -15    2    3    3    0    0  7.14515826659E+00 -6.96692831271E+01  5.95761151528E+01  9.19637581498E+01  1.77680000000E+00  0.00000000000E+00  1.
       15    2    3    3    0    0  1.09534005278E+02  3.33885851903E+00  3.95407904762E+01  1.16513850757E+02  1.77680000000E+00  0.00000000000E+00  1.
       24    2   14   14    0    0  5.12467495631E+00 -5.47532129575E+01  4.66190777144E+01  7.21028336675E+01  1.14175013353E+00  0.00000000000E+00  1.
      -24    2   15   15    0    0  2.51668947037E+01  3.80552087229E-01  8.40523431416E+00  2.65361658504E+01  5.22038646338E-02  0.00000000000E+00  1.
       16    1   16   16    0    0  1.31289198797E+00 -9.87174115864E+00  8.71511309938E+00  1.32335994805E+01  9.31322574615E-08  0.00000000000E+00  1.
      -16    1   14   14    0    0  2.02048331028E+00 -1.49160701697E+01  1.29570374383E+01  1.98609244823E+01  1.86264514923E-07  0.00000000000E+00  1.
      -15    1   16   16    0    0  3.81178296834E+00 -4.48814717988E+01  3.79039646150E+01  5.88692341870E+01  1.17804022885E-06  0.00000000000E+00  1.
       15    1   17   17    0    0  1.95474865006E+01  3.03933431131E-01  6.54965890323E+00  2.06178232549E+01  1.86264514923E-07  0.00000000000E+00  1.
       16    1   15   15    0    0  8.43671105747E+01  2.95830643180E+00  3.11355561621E+01  8.99776849068E+01  1.39387599631E-06  0.00000000000E+00  1.
      -16    1   17   17    0    0  5.61940820314E+00  7.66186560985E-02  1.85557541093E+00  5.91834259549E+00  8.39482824193E-08  0.00000000000E+00  1.
</event>
<event>
23  80   1.0000000E+00   2.3570000E+02   7.8125000E-03   1.1298309E-01
       21   -1    0    0  501  510  0.00000000000E+00  0.00000000000E+00  2.54190262080E+02  2.54190262080E+02  0.00000000000E+00  0.00000000000E+00  1.
       21   -1    0    0  510  502  0.00000000000E+00  0.00000000000E+00 -1.30445210112E+03  1.30445210112E+03  0.00000000000E+00  0.00000000000E+00  1.
       25    2    1    2    0    0 -2.75608048400E+02  3.64083155873E+01 -6.09432083065E+02  6.81408706766E+02  1.25000000000E+02  0.00000000000E+00  1.
       -6    2    1    2    0  502  3.48654256836E+02  3.44859191453E+01  2.91303954458E+00  3.90400032228E+02  1.72205197178E+02  0.00000000000E+00  1.
        6    2    1    2  501    0 -7.30462084354E+01 -7.08942347326E+01 -4.43742795518E+02  4.86833624205E+02  1.72445840766E+02  0.00000000000E+00  1.
       -5    1    4    4    0  502  1.89084286489E+02  4.24318202302E+01 -5.59051484440E+01  2.01745569686E+02  4.75000000000E+00  0.00000000000E+00  1.
      -24    2    4    4    0    0  1.59569970346E+02 -7.94590108489E+00  5.88181879886E+01  1.88654462542E+02  8.12724690064E+01  0.00000000000E+00  1.
        1    1    7    7  704    0  1.22984344438E+02  1.25260824726E+00  7.86966008300E+01  1.46013263050E+02  2.69739830470E-06  0.00000000000E+00  1.
       -2    1    7    7    0  704  3.65856259081E+01 -9.19850933216E+00 -1.98784128414E+01  4.26411994920E+01  7.15255737305E-07  0.00000000000E+00  1.
        5    1    5    5  501    0 -8.55031333014E+01 -4.69362291795E+01 -1.35612497748E+02  1.67114055242E+02  4.75000000000E+00  0.00000000000E+00  1.
       24    2    5    5    0    0  1.24569248660E+01 -2.39580055531E+01 -3.08130297770E+02  3.19719568963E+02  8.09145312473E+01  0.00000000000E+00  1.
      -15    1   11   11    0    0  1.25917561595E+01 -5.38576181250E+01 -1.94117057713E+02  2.01850896621E+02  1.77680000000E+00  0.00000000000E+00  1.
       16    1   11   11    0    0 -1.34831293543E-01  2.98996125719E+01 -1.14013240057E+02  1.17868672342E+02  0.00000000000E+00  0.00000000000E+00  1.
      -15    2    3    3    0    0 -2.73300219926E+02  5.53047429294E+01 -5.96112350616E+02  6.58106918652E+02  1.77680000004E+00  0.00000000000E+00  1.
       15    2    3    3    0    0 -2.30782847377E+00 -1.88964273421E+01 -1.33197324485E+01  2.33017881138E+01  1.77680000000E+00  0.00000000000E+00  1.
       24    2   14   14    0    0 -2.05459025764E+02  4.19769168632E+01 -4.46748024213E+02  4.93517245298E+02  3.80884341641E-02  0.00000000000E+00  1.
      -24    2   15   15    0    0 -1.28976275029E+00 -1.08235206197E+01 -7.72432988457E+00  1.34267280827E+01  1.34151715704E+00  0.00000000000E+00  1.
       16    1   16   16    0    0 -1.22930562187E+02  2.51029732081E+01 -2.67326265527E+02  2.95305629178E+02  5.16191365590E-06  0.00000000000E+00  1.
      -16    1   14   14    0    0 -6.78411941621E+01  1.33278260662E+01 -1.49364326404E+02  1.64589673355E+02  2.10734242554E-06  0.00000000000E+00  1.
      -15    1   16   16    0    0 -8.25284635767E+01  1.68739436551E+01 -1.79421758686E+02  1.98211616120E+02  2.98023223877E-06  0.00000000000E+00  1.
        1    1   17   17  804    0 -1.31817601942E+00 -8.78307036508E+00 -6.80406176322E+00  1.11881709646E+01  6.31653702178E-07  0.00000000000E+00  1.
       16    1   15   15    0    0 -1.01806572348E+00 -8.07290672234E+00 -5.59540256397E+00  9.87506003110E+00  2.18414504073E-07  0.00000000000E+00  1.
       -2    1   17   17    0  804  2.84132691303E-02 -2.04045025465E+00 -9.20268121351E-01  2.23855711804E+00  1.34256698595E-07  0.00000000000E+00  1.
</event>
<event>
23  80   1.0000000E+00   2.3570000E+02   7.8125000E-03   1.1298309E-01
       21   -1    0    0  501  510  0.00000000000E+00  0.00000000000E+00  2.09999605745E+02  2.09999605745E+02  0.00000000000E+00  0.00000000000E+00  1.
       21   -1    0    0  510  502  0.00000000000E+00  0.00000000000E+00 -3.09503356927E+03  3.09503356927E+03  0.00000000000E+00  0.00000000000E+00  1.
       25    2    1    2    0    0 -1.09141323557E+02  2.80467405023E+02 -8.32560456519E+02  8.94066948023E+02  1.25000000000E+02  0.00000000000E+00  1.
       -6    2    1    2    0  502 -1.31977575310E+02  3.93209947480E+02 -1.22285640401E+03  1.30273864035E+03  1.72389202200E+02  0.00000000000E+00  1.
        6    2    1    2  501    0  2.41118898868E+02 -6.73677352504E+02 -8.29617102992E+02  1.10822758664E+03  1.67105797492E+02  0.00000000000E+00  1.
       -5    1    4    4    0  502 -1.34467214556E+02  2.56997861326E+02 -8.17875087417E+02  8.67796954152E+02  4.75000000000E+00  0.00000000000E+00  1.
      -24    2    4    4    0    0  2.48963924628E+00  1.36212086154E+02 -4.04981316597E+02  4.34941686197E+02  8.12679080626E+01  0.00000000000E+00  1.
        1    1    7    7  704    0 -3.90171309123E+01  5.75053252950E+01 -1.67955263982E+02  1.81764049364E+02  3.30362473978E-06  0.00000000000E+00  1.
       -2    1    7    7    0  704  4.15067701585E+01  7.87067608589E+01 -2.37026052615E+02  2.53177636833E+02  0.00000000000E+00  0.00000000000E+00  1.
        5    1    5    5  501    0 -5.11134062202E+00 -1.53532192458E+02 -1.69809916760E+02  2.29033251415E+02  4.75000000000E+00  0.00000000000E+00  1.
       24    2    5    5    0    0  2.46230239490E+02 -5.20145160046E+02 -6.59807186232E+02  8.79194335229E+02  8.03544506372E+01  0.00000000000E+00  1.
      -11    1   11   11    0    0  1.29510997305E+02 -2.80521002343E+02 -2.93304093279E+02  4.26019274579E+02  5.11012836212E-04  0.00000000000E+00  1.
       12    1   11   11    0    0  1.16719242184E+02 -2.39624157703E+02 -3.66503092953E+02  4.53175060650E+02  1.07895932188E-05  0.00000000000E+00  1.
      -15    2    3    3    0    0 -7.24997517576E+01  6.54048137026E+01 -3.69464409589E+02  3.82153255424E+02  1.77680000000E+00  0.00000000000E+00  1.
       15    2    3    3    0    0 -3.66415717994E+01  2.15062591320E+02 -4.63096046930E+02  5.11913692599E+02  1.77680000001E+00  0.00000000000E+00  1.
       24    2   14   14    0    0 -4.38961801742E+01  4.03601087014E+01 -2.28183430538E+02  2.35846329417E+02  1.09315552262E-02  0.00000000000E+00  1.
      -24    2   15   15    0    0 -3.43958928935E+01  2.02322248295E+02 -4.35863136155E+02  4.81764217588E+02  1.64872248156E+00  0.00000000000E+00  1.
       16    1   16   16    0    0 -7.38103860488E+00  6.78508927578E+00 -3.83492923135E+01  3.96381809411E+01  0.00000000000E+00  0.00000000000E+00  1.
      -16    1   14   14    0    0 -2.86035715834E+01  2.50447050012E+01 -1.41280979051E+02  1.46306926007E+02  2.98023223877E-06  0.00000000000E+00  1.
      -15    1   16   16    0    0 -3.65151415693E+01  3.35750194256E+01 -1.89834138224E+02  1.96208148476E+02  2.10734242554E-06  0.00000000000E+00  1.
        3    1   17   17  804    0 -2.08365678094E+01  1.23628382711E+02 -2.68105170526E+02  2.95970474934E+02  5.16191365590E-06  0.00000000000E+00  1.
       16    1   15   15    0    0 -2.24567890593E+00  1.27403430259E+01 -2.72329107752E+01  3.01494750113E+01  6.45239206988E-07  0.00000000000E+00  1.
       -4    1   17   17    0  804 -1.35593250841E+01  7.86938655839E+01 -1.67757965629E+02  1.85793742654E+02  2.10734242554E-06  0.00000000000E+00  1.
</event>
<event>
23  80   1.0000000E+00   2.3570000E+02   7.8125000E-03   1.1298309E-01
       21   -1    0    0  501  510  0.00000000000E+00  0.00000000000E+00  6.53201733788E+02  6.53201733788E+02  0.00000000000E+00  0.00000000000E+00  1.
       21   -1    0    0  510  502  0.00000000000E+00  0.00000000000E+00 -1.05431266035E+03  1.05431266035E+03  0.00000000000E+00  0.00000000000E+00  1.
       25    2    1    2    0    0 -4.25494854555E+01 -8.87428160249E+01 -7.46223674566E+02  7.62994442045E+02  1.25000000000E+02  0.00000000000E+00  1.
       -6    2    1    2    0  502  9.08649334557E+01  1.23149216896E+02  5.92659440178E+02  6.35652478945E+02  1.71425482944E+02  0.00000000000E+00  1.
        6    2    1    2  501    0 -4.83154480002E+01 -3.44064008714E+01 -2.47546692178E+02  3.08867473153E+02  1.74933039267E+02  0.00000000000E+00  1.
       -5    1    4    4    0  502 -3.45930350780E+01  3.97970750668E-01  6.75665380272E+01  7.60567946840E+01  4.75000000000E+00  0.00000000000E+00  1.
      -24    2    4    4    0    0  1.25457968534E+02  1.22751246146E+02  5.25092902151E+02  5.59595684260E+02  8.13461963165E+01  0.00000000000E+00  1.
        3    1    7    7  704    0  7.40383893816E+01  1.20564992277E+02  3.66507000092E+02  3.92867638755E+02  5.39479660939E-06  0.00000000000E+00  1.
       -2    1    7    7    0  704  5.14195791521E+01  2.18625386873E+00  1.58585902059E+02  1.66728045505E+02  3.30362473978E-06  0.00000000000E+00  1.
        5    1    5    5  501    0 -3.26744469301E+01 -6.99574568923E+01 -4.89130439502E+01  9.15243881460E+01  4.75000000000E+00  0.00000000000E+00  1.
       24    2    5    5    0    0 -1.56410010701E+01  3.55510560209E+01 -1.98633648227E+02  2.17343085007E+02  7.92096704534E+01  0.00000000000E+00  1.
      -13    1   11   11    0    0 -1.55701007559E+00  2.86872021496E-01  7.53826046812E+00  7.70344798470E+00  1.05659999907E-01  0.00000000000E+00  1.
       14    1   11   11    0    0 -1.40839909945E+01  3.52641839994E+01 -2.06171908696E+02  2.09639637022E+02  6.03156597170E-06  0.00000000000E+00  1.
      -15    2    3    3    0    0  4.70108776752E+00 -1.05628922132E+02 -5.71433291161E+02  5.81135726559E+02  1.77680000002E+00  0.00000000000E+00  1.
       15    2    3    3    0    0 -4.72505732230E+01  1.68861061075E+01 -1.74790383405E+02  1.81858715486E+02  1.77680000000E+00  0.00000000000E+00  1.
       24    2   14   14    0    0  4.32729047495E+00 -9.54283304251E+01 -5.16863196092E+02  5.25619178832E+02  1.63278629041E+00  0.00000000000E+00  1.
      -24    2   15   15    0    0 -4.25124707598E+01  1.49677008397E+01 -1.55679531780E+02  1.62076032565E+02  1.08695834821E+00  0.00000000000E+00  1.
       14    1   16   16    0    0  7.83534517155E-02 -1.46440930726E+01 -7.88958308031E+01  8.02434278884E+01  0.00000000000E+00  0.00000000000E+00  1.
      -16    1   14   14    0    0  3.73797292569E-01 -1.02005917073E+01 -5.45700950698E+01  5.55165477270E+01  1.05367121277E-06  0.00000000000E+00  1.
      -13    1   16   16    0    0  4.24893702324E+00 -8.07842373526E+01 -4.37967365289E+02  4.45375750943E+02  5.96046447754E-06  0.00000000000E+00  1.
       15    1   17   17    0    0 -2.10273493965E+01  7.73758894411E+00 -7.89765939531E+01  8.20933742621E+01  1.05367121277E-06  0.00000000000E+00  1.
       16    1   15   15    0    0 -4.73810246324E+00  1.91840526786E+00 -1.91108516251E+01  1.97826829212E+01  0.00000000000E+00  0.00000000000E+00  1.
      -16    1   17   17    0    0 -2.14851213633E+01  7.23011189556E+00 -7.67029378265E+01  7.99826583031E+01  1.05367121277E-06  0.00000000000E+00  1.
</event>
<event>
23  80   1.0000000E+00   2.3570000E+02   7.8125000E-03   1.1298309E-01
       21   -1    0    0  501  510  0.00000000000E+00  0.00000000000E+00  3.13013327324E+02  3.13013327324E+02  0.00000000000E+00  0.00000000000E+00  1.
       21   -1    0    0  510  502  0.00000000000E+00  0.00000000000E+00 -7.64867622269E+02  7.64867622269E+02  0.00000000000E+00  0.00000000000E+00  1.
       25    2    1    2    0    0  2.13238317346E+01  2.49237874630E+01  5.89156179095E+01  1.42027993772E+02  1.25000000000E+02  0.00000000000E+00  1.
       -6    2    1    2    0  502 -5.60403347020E+01  1.01741304857E+02  1.39051767470E+02  2.50594670439E+02  1.73119850360E+02  0.00000000000E+00  1.
        6    2    1    2  501    0  3.47165029674E+01 -1.26665092320E+02 -6.49821680325E+02  6.85258285381E+02  1.73382295154E+02  0.00000000000E+00  1.
       -5    1    4    4    0  502 -5.49797673226E+01  7.33859444613E+01  6.82715937666E+00  9.20730376629E+01  4.75000000000E+00  0.00000000000E+00  1.
      -24    2    4    4    0    0 -1.06056737939E+00  2.83553603958E+01  1.32224608093E+02  1.58521632776E+02  8.27079790971E+01  0.00000000000E+00  1.
       11    1    7    7    0    0  2.26675919203E+01 -8.06802197883E+00  5.68455491251E+00  2.47230027896E+01  5.11004152717E-04  0.00000000000E+00  1.
      -12    1    7    7    0    0 -2.37281592997E+01  3.64233823746E+01  1.26540053181E+02  1.33798629987E+02  1.34869915235E-06  0.00000000000E+00  1.
        5    1    5    5  501    0  6.93781190417E+01 -9.76096646542E+01 -4.31911693635E+02  4.48231239021E+02  4.74999999999E+00  0.00000000000E+00  1.
       24    2    5    5    0    0 -3.46616160743E+01 -2.90554276659E+01 -2.17909986689E+02  2.37027046360E+02  8.15561947458E+01  0.00000000000E+00  1.
       -1    1   11   11    0  703 -5.22733035258E+01 -4.48425672610E+01 -1.48389799738E+02  1.63593663589E+02  1.90734863281E-06  0.00000000000E+00  1.
        2    1   11   11  703    0  1.76116874515E+01  1.57871395951E+01 -6.95201869513E+01  7.34333827712E+01  2.33601545599E-06  0.00000000000E+00  1.
      -15    2    3    3    0    0  5.75590830652E+01  2.74154359003E+01 -9.56360918253E+00  6.44924321742E+01  1.77680000000E+00  0.00000000000E+00  1.
       15    2    3    3    0    0 -3.62352513306E+01 -2.49164843733E+00  6.84792270920E+01  7.75355615978E+01  1.77680000000E+00  0.00000000000E+00  1.
       24    2   14   14    0    0  1.21323145176E+01  6.45256558923E+00 -2.21409599437E+00  1.39251643377E+01  4.23464898242E-01  0.00000000000E+00  1.
      -24    2   15   15    0    0 -1.40953327558E+01 -1.63629577134E+00  2.63249920542E+01  2.99132227818E+01  6.63190163079E-01  0.00000000000E+00  1.
       16    1   16   16    0    0  4.95450008072E+00  2.43179386137E+00 -7.83321104952E-01  5.57443130620E+00  8.71172497695E-08  0.00000000000E+00  1.
      -16    1   14   14    0    0  4.54267685475E+01  2.09628703111E+01 -7.34951318816E+00  5.05672678365E+01  1.61309801747E-07  0.00000000000E+00  1.
      -15    1   16   16    0    0  7.17781443693E+00  4.02077172786E+00 -1.43077488942E+00  8.35073303146E+00  1.47255028606E-07  0.00000000000E+00  1.
        3    1   17   17  804    0 -4.88024641897E+00 -5.87500856537E-01  8.46471500617E+00  9.78843003254E+00  9.31322574615E-08  0.00000000000E+00  1.
       16    1   15   15    0    0 -2.21399185748E+01 -8.55352665988E-01  4.21542350379E+01  4.76223388160E+01  0.00000000000E+00  0.00000000000E+00  1.
       -4    1   17   17    0  804 -9.21508633683E+00 -1.04879491480E+00  1.78602770480E+01  2.01247927492E+01  2.63417803193E-07  0.00000000000E+00  1.
</event>
<event>
23  80   1.0000000E+00   2.3570000E+02   7.8125000E-03   1.1298309E-01
       21   -1    0    0  501  510  0.00000000000E+00  0.00000000000E+00  1.99198704073E+02  1.99198704073E+02  0.00000000000E+00  0.00000000000E+00  1.
       21   -1    0    0  510  502  0.00000000000E+00  0.00000000000E+00 -9.35653875092E+02  9.35653875092E+02  0.00000000000E+00  0.00000000000E+00  1.
       25    2    1    2    0    0  1.41636877909E+02 -6.41746029867E+00  1.15328799336E+01  1.89367886137E+02  1.25000000000E+02  0.00000000000E+00  1.
       -6    2    1    2    0  502 -6.47770491158E+01 -1.43042748586E+02 -1.02626412144E+02  2.56395194018E+02  1.74782782421E+02  0.00000000000E+00  1.
        6    2    1    2  501    0 -7.68598287932E+01  1.49460208885E+02 -6.45361638809E+02  6.89089499009E+02  1.73513415841E+02  0.00000000000E+00  1.
       -5    1    4    4    0  502 -6.92473549669E+01 -1.31690756198E+02 -4.48160112047E+01  1.55462821273E+02  4.75000000000E+00  0.00000000000E+00  1.
      -24    2    4    4    0    0  4.47030585105E+00 -1.13519923880E+01 -5.78104009388E+01  1.00932372745E+02  8.18318400482E+01  0.00000000000E+00  1.
        1    1    7    7  704    0 -3.81815603752E+00  3.20314074017E+01 -4.41908035264E+01  5.47121238116E+01  1.58148993986E-06  0.00000000000E+00  1.
       -2    1    7    7    0  704  8.28846188858E+00 -4.33833997898E+01 -1.36195974124E+01  4.62202489335E+01  7.72564494420E-07  0.00000000000E+00  1.
        5    1    5    5  501    0 -4.77179851936E+01  3.25161820441E+00 -3.07673657802E+02  3.11405236529E+02  4.75000000000E+00  0.00000000000E+00  1.
       24    2    5    5    0    0 -2.91418435995E+01  1.46208590680E+02 -3.37687981006E+02  3.77684262481E+02  7.99126433819E+01  0.00000000000E+00  1.
       -1    1   11   11    0  703 -5.53293838441E+01  7.63222697579E+01 -1.78181257615E+02  2.01581224678E+02  3.30362473978E-06  0.00000000000E+00  1.
        2    1   11   11  703    0  2.61875402446E+01  6.98863209222E+01 -1.59506723392E+02  1.76103037802E+02  1.90734863281E-06  0.00000000000E+00  1.
      -15    2    3    3    0    0 -2.27086873093E+01  6.37268768802E+00 -3.15738074997E+00  2.38625585200E+01  1.77680000000E+00  0.00000000000E+00  1.
       15    2    3    3    0    0  1.64345565218E+02 -1.27901479867E+01  1.46902606836E+01  1.65505327617E+02  1.77680000000E+00  0.00000000000E+00  1.
       24    2   14   14    0    0 -1.55059087272E+01  3.67507069407E+00 -2.65096797655E+00  1.61545360340E+01  4.53122074789E-02  0.00000000000E+00  1.
      -24    2   15   15    0    0  1.11203460078E+02 -8.36578869633E+00  9.99482362721E+00  1.11973043684E+02  1.36750094390E+00  0.00000000000E+00  1.
       16    1   16   16    0    0 -8.42896921935E+00  2.00988346860E+00 -1.42201906240E+00  8.78118966154E+00  3.87856998689E-07  0.00000000000E+00  1.
      -16    1   14   14    0    0 -7.20277858201E+00  2.69761699395E+00 -5.06412773420E-01  7.70802248599E+00  2.34208995694E-07  0.00000000000E+00  1.
      -15    1   16   16    0    0 -7.07693950790E+00  1.66518722546E+00 -1.22894891415E+00  7.37334637243E+00  1.86264514923E-07  0.00000000000E+00  1.
       11    1   17   17    0    0  1.56056160657E+01 -1.40340891777E+00  9.86471171362E-01  1.56996157517E+01  7.98103236640E-08  0.00000000000E+00  1.
       16    1   15   15    0    0  5.31421051404E+01 -4.42435929036E+00  4.69543705636E+00  5.35322839326E+01  1.14442833955E-06  0.00000000000E+00  1.
      -12    1   17   17    0    0  9.55978440122E+01 -6.96237977856E+00  9.00835245585E+00  9.62734279328E+01  1.14821158405E-06  0.00000000000E+00  1.
</event>
<event>
23  80   1.0000000E+00   2.3570000E+02   7.8125000E-03   1.1298309E-01
       21   -1    0    0  501  510  0.00000000000E+00  0.00000000000E+00  9.44899124774E+02  9.44899124774E+02  0.00000000000E+00  0.00000000000E+00  1.
       21   -1    0    0  510  502  0.00000000000E+00  0.00000000000E+00 -5.23695115148E+02  5.23695115148E+02  0.00000000000E+00  0.00000000000E+00  1.
       25    2    1    2    0    0 -5.53813694621E+01  2.45203194828E+01 -1.41576433866E+02  1.98336150959E+02  1.25000000000E+02  0.00000000000E+00  1.
       -6    2    1    2    0  502  2.87923847009E+02  5.05804608726E+01  8.12727822743E+02  8.79987100139E+02  1.68500023296E+02  0.00000000000E+00  1.
        6    2    1    2  501    0 -2.32542477547E+02 -7.51007803554E+01 -2.49947379252E+02  3.90270988825E+02  1.73555815949E+02  0.00000000000E+00  1.
       -5    1    4    4    0  502  3.71609158120E+01 -4.27903031023E+01  1.59930630981E+02  1.69741900925E+02  4.74999999999E+00  0.00000000000E+00  1.
      -24    2    4    4    0    0  2.50762931197E+02  9.33707639749E+01  6.52797191763E+02  7.10245199214E+02  8.18774828984E+01  0.00000000000E+00  1.
        1    1    7    7  704    0  8.51672030168E+01  7.44689232128E+01  2.59329912766E+02  2.82932989680E+02  0.00000000000E+00  0.00000000000E+00  1.
       -2    1    7    7    0  704  1.65595728180E+02  1.89018407621E+01  3.93467278997E+02  4.27312209534E+02  0.00000000000E+00  0.00000000000E+00  1.
        5    1    5    5  501    0 -2.35460818468E+01  3.63094408886E+01 -6.86813270444E+01  8.13171608737E+01  4.75000000000E+00  0.00000000000E+00  1.
       24    2    5    5    0    0 -2.08996395700E+02 -1.11410221244E+02 -1.81266052208E+02  3.08953827951E+02  8.06433835444E+01  0.00000000000E+00  1.
      -15    1   11   11    0    0 -1.44772841726E+02 -1.13485092440E+02 -1.16650945070E+02  2.17827091776E+02  1.77680000000E+00  0.00000000000E+00  1.
       16    1   11   11    0    0 -6.42235539741E+01  2.07487119644E+00 -6.46151071371E+01  9.11267361749E+01  1.34869915235E-06  0.00000000000E+00  1.
      -15    2    3    3    0    0 -6.44375369753E+01  6.46026019194E+01 -6.71649762693E+01  1.13313650553E+02  1.77680000000E+00  0.00000000000E+00  1.
       15    2    3    3    0    0  9.05616751323E+00 -4.00822824366E+01 -7.44114575967E+01  8.50225004058E+01  1.77680000000E+00  0.00000000000E+00  1.
       24    2   14   14    0    0 -1.66007228713E+01  1.63320864283E+01 -1.80426820618E+01  2.94601876694E+01  2.07929272642E-01  0.00000000000E+00  1.
      -24    2   15   15    0    0  4.17222231698E+00 -1.95396725376E+01 -3.44453401768E+01  3.98213689625E+01  2.31784831062E-01  0.00000000000E+00  1.
       16    1   16   16    0    0 -1.42014570214E+01  1.40037435846E+01 -1.55395154649E+01  2.52836460345E+01  1.86264514923E-07  0.00000000000E+00  1.
      -16    1   14   14    0    0 -4.78368141040E+01  4.82705154911E+01 -4.91222942076E+01  8.38534628838E+01  5.26835606386E-07  0.00000000000E+00  1.
      -15    1   16   16    0    0 -2.39926584991E+00  2.32834284367E+00 -2.50316659686E+00  4.17654163487E+00  8.06549008735E-08  0.00000000000E+00  1.
       15    1   17   17    0    0  1.46465128067E+00 -6.34337118854E+00 -1.11952948712E+01  1.29506057257E+01  1.31708901597E-07  0.00000000000E+00  1.
       16    1   15   15    0    0  4.88394519625E+00 -2.05426098989E+01 -3.99661174198E+01  4.52011314433E+01  9.12506037497E-07  0.00000000000E+00  1.
      -16    1   17   17    0    0  2.70757103631E+00 -1.31963013491E+01 -2.32500453056E+01  2.68707632368E+01  4.56253018749E-07  0.00000000000E+00  1.
</event>
<event>
23  80   1.0000000E+00   2.3570000E+02   7.8125000E-03   1.1298309E-01
       21   -1    0    0  501  510  0.00000000000E+00  0.00000000000E+00  8.90510486966E+02  8.90510486966E+02  0.00000000000E+00  0.00000000000E+00  1.
       21   -1    0    0  510  502  0.00000000000E+00  0.00000000000E+00 -1.28454120664E+02  1.28454120664E+02  0.00000000000E+00  0.00000000000E+00  1.
       25    2    1    2    0    0  9.54686000846E+01  7.57120202413E+01  1.87198538439E+02  2.55958700584E+02  1.25000000000E+02  0.00000000000E+00  1.
       -6    2    1    2    0  502 -1.88858332224E+02  1.01989025660E+01  1.78147940526E+02  3.11947683043E+02  1.72635978227E+02  0.00000000000E+00  1.
        6    2    1    2  501    0  9.33897321393E+01 -8.59109228073E+01  3.96709887337E+02  4.51058224002E+02  1.73125555602E+02  0.00000000000E+00  1.
       -5    1    4    4    0  502 -2.94041643982E+01 -5.73185070222E+01  3.61013240963E+01  7.39992177845E+01  4.75000000000E+00  0.00000000000E+00  1.
      -24    2    4    4    0    0 -1.59454167826E+02  6.75174095882E+01  1.42046616430E+02  2.37948465259E+02  8.03616739826E+01  0.00000000000E+00  1.
        1    1    7    7  704    0 -1.02440294541E+02  2.52143218699E+01  1.27486583627E+02  1.65476901645E+02  2.33601545599E-06  0.00000000000E+00  1.
       -2    1    7    7    0  704 -5.70138732847E+01  4.23030877184E+01  1.45600328026E+01  7.24715636139E+01  2.09211454091E-06  0.00000000000E+00  1.
        5    1    5    5  501    0 -3.44723031406E+01 -2.52538420757E+01  3.99074143466E+01  5.86622573998E+01  4.75000000000E+00  0.00000000000E+00  1.
       24    2    5    5    0    0  1.27862035280E+02 -6.06570807316E+01  3.56802472990E+02  3.92395966602E+02  8.14776556180E+01  0.00000000000E+00  1.
       -1    1   11   11    0  703  5.29452548189E+01  1.49334376878E+01  9.48285602844E+01  1.09629664848E+02  2.33601545599E-06  0.00000000000E+00  1.
        2    1   11   11  703    0  7.49167804610E+01 -7.55905184194E+01  2.61973912706E+02  2.82766301754E+02  5.39479660939E-06  0.00000000000E+00  1.
      -15    2    3    3    0    0  7.35577741582E+01  6.03070266844E+01  2.03439257445E+02  2.24584888394E+02  1.77680000000E+00  0.00000000000E+00  1.
       15    2    3    3    0    0  2.19108259264E+01  1.54049935569E+01 -1.62407190064E+01  3.13738121903E+01  1.77680000000E+00  0.00000000000E+00  1.
       24    2   14   14    0    0  3.68464945385E+01  2.90650772435E+01  1.00188775449E+02  1.10635603671E+02  5.65584815319E-02  0.00000000000E+00  1.
      -24    2   15   15    0    0  1.11425623506E+01  7.46460594398E+00 -8.09230841575E+00  1.57085049467E+01  1.18094645478E+00  0.00000000000E+00  1.
       16    1   16   16    0    0  2.92587611960E+01  2.30721140377E+01  7.94948915662E+01  8.77942785039E+01  1.82501207499E-06  0.00000000000E+00  1.
      -16    1   14   14    0    0  3.67112796197E+01  3.12419494409E+01  1.03250481997E+02  1.13949284722E+02  1.49011611938E-06  0.00000000000E+00  1.
      -15    1   16   16    0    0  7.58773334251E+00  5.99296320577E+00  2.06938838825E+01  2.28413251674E+01  0.00000000000E+00  0.00000000000E+00  1.
       11    1   17   17    0    0  9.52224950457E+00  6.56170584505E+00 -6.51136429071E+00  1.32712879613E+01  3.35793129677E-07  0.00000000000E+00  1.
       16    1   15   15    0    0  1.07682635757E+01  7.94038761295E+00 -8.14841059069E+00  1.56653072436E+01  5.50977865523E-07  0.00000000000E+00  1.
      -12    1   17   17    0    0  1.62031284608E+00  9.02900098930E-01 -1.58094412504E+00  2.43721698548E+00  1.04125029291E-07  0.00000000000E+00  1.
</event>
<event>
23  80   1.0000000E+00   2.3570000E+02   7.8125000E-03   1.1298309E-01
       21   -1    0    0  501  510  0.00000000000E+00  0.00000000000E+00  1.05174987171E+02  1.05174987171E+02  0.00000000000E+00  0.00000000000E+00  1.
       21   -1    0    0  510  502  0.00000000000E+00  0.00000000000E+00 -9.62389362573E+02  9.62389362573E+02  0.00000000000E+00  0.00000000000E+00  1.
       25    2    1    2    0    0  5.92987701013E+01  4.01845898293E+01 -9.94871642707E+01  1.75082384179E+02  1.25000000000E+02  0.00000000000E+00  1.
       -6    2    1    2    0  502 -8.05459561068E+01 -4.73373955991E+01 -1.20517544132E+02  2.30693530195E+02  1.73108481487E+02  0.00000000000E+00  1.
        6    2    1    2  501    0  2.12471860054E+01  7.15280576977E+00 -6.37209667000E+02  6.61788435370E+02  1.77271452660E+02  0.00000000000E+00  1.
       -5    1    4    4    0  502 -3.05329836188E+00 -4.89534345218E+01 -1.04376120506E+02  1.15423994101E+02  4.75000000000E+00  0.00000000000E+00  1.
      -24    2    4    4    0    0 -7.74926577449E+01  1.61603892269E+00 -1.61414236263E+01  1.15269536094E+02  8.37782597605E+01  0.00000000000E+00  1.
        1    1    7    7  704    0 -2.61686035879E+01 -3.37004326436E+00 -4.79161104328E+01  5.47001521420E+01  1.34869915235E-06  0.00000000000E+00  1.
       -2    1    7    7    0  704 -5.13240541570E+01  4.98608218705E+00  3.17746868065E+01  6.05693839521E+01  1.68587394044E-06  0.00000000000E+00  1.
        5    1    5    5  501    0 -4.31561079334E+01 -3.55627264468E-01 -4.00489895115E+02  4.02836560793E+02  4.74999999999E+00  0.00000000000E+00  1.
       24    2    5    5    0    0  6.44032939389E+01  7.50843303424E+00 -2.36719771885E+02  2.58951874577E+02  8.25570233763E+01  0.00000000000E+00  1.
      -15    1   11   11    0    0  7.49183970840E+01  2.28576390341E+01 -2.21389954984E+02  2.34844431635E+02  1.77680000000E+00  0.00000000000E+00  1.
       16    1   11   11    0    0 -1.05151031451E+01 -1.53492059998E+01 -1.53298169007E+01  2.41074429417E+01  4.23151000721E-06  0.00000000000E+00  1.
      -15    2    3    3    0    0  4.39724269234E+01 -8.25833540643E+00  1.70698617700E+01  4.79198459128E+01  1.77680000000E+00  0.00000000000E+00  1.
       15    2    3    3    0    0  1.53263431779E+01  4.84429252357E+01 -1.16557026041E+02  1.27162538266E+02  1.77680000000E+00  0.00000000000E+00  1.
       24    2   14   14    0    0  2.41566848984E+01 -5.39193406266E+00  9.14935801877E+00  2.63881421173E+01  7.01001345071E-02  0.00000000000E+00  1.
      -24    2   15   15    0    0  1.15533850173E+01  3.54042120851E+01 -8.70516144031E+01  9.46846601056E+01  5.12201531323E-01  0.00000000000E+00  1.
       16    1   16   16    0    0  6.69421925119E+00 -1.47631662101E+00  2.50622289061E+00  7.29885164433E+00  8.06549008735E-08  0.00000000000E+00  1.
      -16    1   14   14    0    0  1.98157420250E+01 -2.86640134377E+00  7.92050375127E+00  2.15317037955E+01  3.72529029846E-07  0.00000000000E+00  1.
      -15    1   16   16    0    0  1.74624656472E+01 -3.91561744165E+00  6.64313512817E+00  1.90892904729E+01  2.28126509374E-07  0.00000000000E+00  1.
       15    1   17   17    0    0  2.53140703163E+00  8.43988036652E+00 -2.07226512638E+01  2.25181677222E+01  4.56253018749E-07  0.00000000000E+00  1.
       16    1   15   15    0    0  3.77295816062E+00  1.30387131506E+01 -2.95054116377E+01  3.24778781606E+01  3.72529029846E-07  0.00000000000E+00  1.
      -16    1   17   17    0    0  9.02197798568E+00  2.69643317186E+01 -6.63289631393E+01  7.21664923835E+01  1.05367121277E-06  0.00000000000E+00  1.
</event>
<event>
23  80   1.0000000E+00   2.3570000E+02   7.8125000E-03   1.1298309E-01
       21   -1    0    0  501  510  0.00000000000E+00  0.00000000000E+00  1.37518123376E+02  1.37518123376E+02  0.00000000000E+00  0.00000000000E+00  1.
       21   -1    0    0  510  502  0.00000000000E+00  0.00000000000E+00 -4.61175556736E+02  4.61175556736E+02  0.00000000000E+00  0.00000000000E+00  1.
       25    2    1    2    0    0 -1.76444714821E+01  2.00586702033E+01 -1.04168302039E+02  1.64893034340E+02  1.25000000000E+02  0.00000000000E+00  1.
       -6    2    1    2    0  502  3.12268101537E+00 -2.71859262435E+01 -2.56174938850E+01  1.74498776282E+02  1.70425177742E+02  0.00000000000E+00  1.
        6    2    1    2  501    0  1.45217904668E+01  7.12725604018E+00 -1.93871637436E+02  2.59301869491E+02  1.71433857631E+02  0.00000000000E+00  1.
       -5    1    4    4    0  502 -4.22877696570E+00  2.97039600186E+01  4.64177531062E+01  5.54741209830E+01  4.75000000000E+00  0.00000000000E+00  1.
      -24    2    4    4    0    0  7.35145798106E+00 -5.68898862621E+01 -7.20352469912E+01  1.19024655299E+02  7.54141145051E+01  0.00000000000E+00  1.
        1    1    7    7  704    0 -2.66132248330E+01 -2.02280298375E+01 -5.82851201864E+01  6.71907148516E+01  6.74349576174E-07  0.00000000000E+00  1.
       -2    1    7    7    0  704  3.39646828141E+01 -3.66618564245E+01 -1.37501268048E+01  5.18339404474E+01  9.23391186287E-07  0.00000000000E+00  1.
        5    1    5    5  501    0  1.56053414024E+01 -9.35721121860E-01 -1.75921630196E+02  1.76678761386E+02  4.75000000000E+00  0.00000000000E+00  1.
       24    2    5    5    0    0 -1.08355093561E+00  8.06297716204E+00 -1.79500072407E+01  8.26231081044E+01  8.02383296782E+01  0.00000000000E+00  1.
       -3    1   11   11    0  703  2.71915371138E+00  9.07804809666E+00 -4.97175676739E+01  5.06126593804E+01  6.74349576174E-07  0.00000000000E+00  1.
        4    1   11   11  703    0 -3.80270464698E+00 -1.01507093462E+00  3.17675604332E+01  3.20104487240E+01  1.16800772800E-06  0.00000000000E+00  1.
      -15    2    3    3    0    0 -1.99659334234E+00 -2.80167205279E+01 -1.10391487970E+02  1.13922608154E+02  1.77680000000E+00  0.00000000000E+00  1.
       15    2    3    3    0    0 -1.56478781398E+01  4.80753907312E+01  6.22318593092E+00  5.09704261862E+01  1.77680000000E+00  0.00000000000E+00  1.
       24    2   14   14    0    0 -6.77533547507E-01 -1.60245977307E+01 -6.06539043196E+01  6.27427473168E+01  7.13755915425E-01  0.00000000000E+00  1.
      -24    2   15   15    0    0 -1.42464108977E+01  4.20948233989E+01  5.21743159856E+00  4.47460516937E+01  2.30584549092E-01  0.00000000000E+00  1.
        2    1   16   16  803    0 -6.45242881740E-01 -1.39040052686E+01 -5.16734994752E+01  5.35153085472E+01  0.00000000000E+00  0.00000000000E+00  1.
      -16    1   14   14    0    0 -1.31905979483E+00 -1.19921227972E+01 -4.97375836503E+01  5.11798608370E+01  1.05367121277E-06  0.00000000000E+00  1.
       -1    1   16   16    0  803 -3.22906657670E-02 -2.12059246205E+00 -8.98040484437E+00  9.22743876956E+00  0.00000000000E+00  0.00000000000E+00  1.
       15    1   17   17    0    0 -1.16234138524E+01  3.44367647997E+01  4.18252108428E+00  3.65853522886E+01  7.47962780493E-07  0.00000000000E+00  1.
       16    1   15   15    0    0 -1.40146724204E+00  5.98056733225E+00  1.00575433236E+00  6.22437449252E+00  1.39212477290E-07  0.00000000000E+00  1.
      -16    1   17   17    0    0 -2.62299704528E+00  7.65805859918E+00  1.03491051428E+00  8.16069940511E+00  1.43053542444E-07  0.00000000000E+00  1.
</event>
<event>
23  80   1.0000000E+00   2.3570000E+02   7.8125000E-03   1.1298309E-01
       21   -1    0    0  501  510  0.00000000000E+00  0.00000000000E+00  5.70265927488E+02  5.70265927488E+02  0.00000000000E+00  0.00000000000E+00  1.
       21   -1    0    0  510  502  0.00000000000E+00  0.00000000000E+00 -5.70098411904E+02  5.70098411904E+02  0.00000000000E+00  0.00000000000E+00  1.
       25    2    1    2    0    0  1.79448165543E+02 -1.08267994474E+02 -1.64895846990E+02  2.94515268023E+02  1.25000000000E+02  0.00000000000E+00  1.
       -6    2    1    2    0  502 -3.15606908405E+01 -5.47342297248E+01 -2.70854421670E+02  3.27783396753E+02  1.73458710762E+02  0.00000000000E+00  1.
        6    2    1    2  501    0 -1.47887474702E+02  1.63002224199E+02  4.35917784243E+02  5.18065674615E+02  1.72995081801E+02  0.00000000000E+00  1.
       -5    1    4    4    0  502 -2.99828233173E+01 -7.91249745780E+01 -7.05406584638E+01  1.10264583129E+02  4.75000000000E+00  0.00000000000E+00  1.
      -24    2    4    4    0    0 -1.57786752324E+00  2.43907448532E+01 -2.00313763206E+02  2.17518813624E+02  8.11876373004E+01  0.00000000000E+00  1.
        1    1    7    7  704    0 -2.35324309705E+01 -1.21109878852E+01 -2.26959074274E+01  3.48648182111E+01  1.50789149292E-06  0.00000000000E+00  1.
       -2    1    7    7    0  704  2.19545634473E+01  3.65017327384E+01 -1.77617855779E+02  1.82653995413E+02  3.30362473978E-06  0.00000000000E+00  1.
        5    1    5    5  501    0 -9.13927076313E+01  8.39924440293E+01  9.71327979393E+01  1.57685448275E+02  4.75000000000E+00  0.00000000000E+00  1.
       24    2    5    5    0    0 -5.64947670712E+01  7.90097801698E+01  3.38784986304E+02  3.60380226340E+02  7.52624509508E+01  0.00000000000E+00  1.
      -11    1   11   11    0    0 -5.22893078331E+00 -1.48299188826E+01  3.66396973772E+01  3.98714890035E+01  5.10989253472E-04  0.00000000000E+00  1.
       12    1   11   11    0    0 -5.12658362879E+01  9.38396990523E+01  3.02145288927E+02  3.20508737337E+02  0.00000000000E+00  0.00000000000E+00  1.
      -15    2    3    3    0    0  6.57803417724E+00  1.72683075393E+01 -4.69134383495E+01  5.04528759826E+01  1.77680000000E+00  0.00000000000E+00  1.
       15    2    3    3    0    0  1.72870131366E+02 -1.25536302013E+02 -1.17982408641E+02  2.44062392040E+02  1.77680000000E+00  0.00000000000E+00  1.
       24    2   14   14    0    0  2.20808967626E+00  6.63485174471E+00 -1.84815192351E+01  1.97846379895E+01  9.84088128873E-01  0.00000000000E+00  1.
      -24    2   15   15    0    0  8.49224374982E+01 -6.13907443767E+01 -5.76451133287E+01  1.19603408328E+02  1.17145518977E+00  0.00000000000E+00  1.
       16    1   16   16    0    0  2.27341610091E+00  6.54016458751E+00 -1.79136535600E+01  1.92052377613E+01  3.72529029846E-07  0.00000000000E+00  1.
      -16    1   14   14    0    0  4.36994450098E+00  1.06334557946E+01 -2.84319191144E+01  3.06682379931E+01  3.72529029846E-07  0.00000000000E+00  1.
      -15    1   16   16    0    0 -6.53264246541E-02  9.46871571969E-02 -5.67865675158E-01  5.79400228269E-01  5.58308270214E-08  0.00000000000E+00  1.
        1    1   17   17  804    0  1.44268376783E+01 -1.09419499445E+01 -1.01353314433E+01  2.07505387267E+01  1.86264514923E-07  0.00000000000E+00  1.
       16    1   15   15    0    0  8.79476938676E+01 -6.41455576366E+01 -6.03372953118E+01  1.24458983712E+02  1.29047841398E-06  0.00000000000E+00  1.
       -2    1   17   17    0  804  7.04955998199E+01 -5.04487944322E+01 -4.75097818854E+01  9.88528696014E+01  1.66600046866E-06  0.00000000000E+00  1.
</event>
<event>
23  80   1.0000000E+00   2.3570000E+02   7.8125000E-03   1.1298309E-01
       21   -1    0    0  501  510  0.00000000000E+00  0.00000000000E+00  5.78963555215E+02  5.78963555215E+02  0.00000000000E+00  0.00000000000E+00  1.
       21   -1    0    0  510  502  0.00000000000E+00  0.00000000000E+00 -8.28622923875E+02  8.28622923875E+02  0.00000000000E+00  0.00000000000E+00  1.
       25    2    1    2    0    0  2.45740600435E+02 -2.99532465962E+02  7.98097747705E+01  4.14852673869E+02  1.25000000000E+02  0.00000000000E+00  1.
       -6    2    1    2    0  502 -2.07516444387E+02  2.96288233156E+02 -5.68015099520E+02  6.95351523525E+02  1.73270875190E+02  0.00000000000E+00  1.
        6    2    1    2  501    0 -3.82241560485E+01  3.24423280636E+00  2.38545956089E+02  2.97382281696E+02  1.73379459995E+02  0.00000000000E+00  1.
       -5    1    4    4    0  502 -1.29268800100E+02  2.19278504559E+02 -4.39531117371E+02  5.07940597786E+02  4.75000000000E+00  0.00000000000E+00  1.
      -24    2    4    4    0    0 -7.82476442867E+01  7.70097285967E+01 -1.28483982148E+02  1.87410925740E+02  8.10032671133E+01  0.00000000000E+00  1.
        3    1    7    7  704    0 -7.39626278058E+01  1.81092486521E+01 -5.97499435833E+01  9.67908619493E+01  1.16800772800E-06  0.00000000000E+00  1.
       -4    1    7    7    0  704 -4.28501648090E+00  5.89004799446E+01 -6.87340385648E+01  9.06200637904E+01  9.53674316406E-07  0.00000000000E+00  1.
        5    1    5    5  501    0  1.99863963529E+01  5.89506303891E+01  1.13237561133E+02  1.29305609367E+02  4.75000000000E+00  0.00000000000E+00  1.
       24    2    5    5    0    0 -5.82105524014E+01 -5.57063975827E+01  1.25308394955E+02  1.68076672328E+02  7.78196812651E+01  0.00000000000E+00  1.
       -1    1   11   11    0  703 -9.53638538409E+00  9.53228461789E+00 -5.04589182889E+00  1.43968093889E+01  2.59742242926E-06  0.00000000000E+00  1.
        4    1   11   11  703    0 -4.86741670173E+01 -6.52386822006E+01  1.30354286784E+02  1.53679862940E+02  3.81469726562E-06  0.00000000000E+00  1.
      -15    2    3    3    0    0  2.48424377171E+02 -2.46262726210E+02  8.83934300904E+01  3.60799884970E+02  1.77680000000E+00  0.00000000000E+00  1.
       15    2    3    3    0    0 -2.68377673614E+00 -5.32697397524E+01 -8.58365531988E+00  5.40527888989E+01  1.77680000000E+00  0.00000000000E+00  1.
       24    2   14   14    0    0  7.73023962315E+01 -7.67868680143E+01  2.67001772835E+01  1.12181992787E+02  1.28359202038E-01  0.00000000000E+00  1.
      -24    2   15   15    0    0 -1.26910327018E+00 -1.85800772356E+01 -3.77735263601E+00  1.90031878736E+01  1.51205920991E-01  0.00000000000E+00  1.
       16    1   16   16    0    0  1.93798241231E+01 -1.92713028974E+01  6.64210816290E+00  2.81261141869E+01  4.46646616171E-07  0.00000000000E+00  1.
      -16    1   14   14    0    0  1.71121980940E+02 -1.69475858195E+02  6.16932528068E+01  2.48617892183E+02  2.98023223877E-06  0.00000000000E+00  1.
      -15    1   16   16    0    0  5.79225721084E+01 -5.75155651169E+01  2.00580691206E+01  8.40558786000E+01  1.02021276486E-06  0.00000000000E+00  1.
       15    1   17   17    0    0 -3.44247884970E-01 -5.95045869994E+00 -1.17469590619E+00  6.07506179541E+00  5.20625146455E-08  0.00000000000E+00  1.
       16    1   15   15    0    0 -1.41467346596E+00 -3.46896625168E+01 -4.80630268387E+00  3.50496010253E+01  7.12324797212E-07  0.00000000000E+00  1.
      -16    1   17   17    0    0 -9.24855385212E-01 -1.26296185357E+01 -2.60265672982E+00  1.29281260782E+01  2.46404792281E-07  0.00000000000E+00  1.
</event>
<event>
23  80   1.0000000E+00   2.3570000E+02   7.8125000E-03   1.1298309E-01
       21   -1    0    0  501  510  0.00000000000E+00  0.00000000000E+00  5.19752449776E+01  5.19752449776E+01  0.00000000000E+00  0.00000000000E+00  1.
       21   -1    0    0  510  502  0.00000000000E+00  0.00000000000E+00 -1.98160477964E+03  1.98160477964E+03  0.00000000000E+00  0.00000000000E+00  1.
       25    2    1    2    0    0 -1.33892562422E+01  5.99866518417E+01 -7.10723548248E+02  7.24244870617E+02  1.25000000000E+02  0.00000000000E+00  1.
       -6    2    1    2    0  502  1.48235606439E+02  1.82025143100E+01 -4.38487571385E+02  4.94787333445E+02  1.73890852362E+02  0.00000000000E+00  1.
        6    2    1    2  501    0 -1.34846350197E+02 -7.81891661518E+01 -7.80418415035E+02  8.14547820560E+02  1.73603472283E+02  0.00000000000E+00  1.
       -5    1    4    4    0  502  1.23317154690E+02  5.41105879367E+01 -2.96962228051E+02  3.26104590211E+02  4.75000000000E+00  0.00000000000E+00  1.
      -24    2    4    4    0    0  2.49184517491E+01 -3.59080736266E+01 -1.41525343334E+02  1.68682743234E+02  8.07101361046E+01  0.00000000000E+00  1.
       13    1    7    7    0    0  5.33937948168E+01 -2.05446307469E+01 -7.17157465024E+01  9.17395151387E+01  1.05660000017E-01  0.00000000000E+00  1.
      -14    1    7    7    0    0 -2.84753430677E+01 -1.53634428798E+01 -6.98095968318E+01  7.69432280955E+01  1.34869915235E-06  0.00000000000E+00  1.
        5    1    5    5  501    0 -9.50396753669E+01 -6.77320985628E+01 -6.59086565870E+02  6.69356288445E+02  4.75000000001E+00  0.00000000000E+00  1.
       24    2    5    5    0    0 -3.98066748304E+01 -1.04570675890E+01 -1.21331849164E+02  1.45191532115E+02  6.83025750082E+01  0.00000000000E+00  1.
      -15    1   11   11    0    0  1.73831748949E+01 -1.21780246656E+01 -2.24237600516E+01  3.09267050827E+01  1.77680000000E+00  0.00000000000E+00  1.
       16    1   11   11    0    0 -5.71898497253E+01  1.72095707660E+00 -9.89080891127E+01  1.14264827033E+02  0.00000000000E+00  0.00000000000E+00  1.
      -15    2    3    3    0    0 -9.23017586015E+00  9.91793433621E+01 -4.90409863979E+02  5.00426548059E+02  1.77679999997E+00  0.00000000000E+00  1.
       15    2    3    3    0    0 -4.15908038205E+00 -3.91926915204E+01 -2.20313684269E+02  2.23818322558E+02  1.77680000000E+00  0.00000000000E+00  1.
       24    2   14   14    0    0 -7.43196925905E+00  7.27513356197E+01 -3.59299385538E+02  3.66666947667E+02  7.81704150541E-01  0.00000000000E+00  1.
      -24    2   15   15    0    0 -2.26120735206E+00 -1.85838224254E+01 -1.00047997623E+02  1.01784873079E+02  2.95033242547E-01  0.00000000000E+00  1.
        2    1   16   16  803    0 -1.52984883595E+00  1.22413495238E+01 -6.01484849238E+01  6.14005807322E+01  1.05367121277E-06  0.00000000000E+00  1.
      -16    1   14   14    0    0 -1.79820660110E+00  2.64280077424E+01 -1.31110478440E+02  1.33759600392E+02  2.10734242554E-06  0.00000000000E+00  1.
       -1    1   16   16    0  803 -5.90212042310E+00  6.05099860958E+01 -2.99150900615E+02  3.05266366934E+02  0.00000000000E+00  0.00000000000E+00  1.
       15    1   17   17    0    0 -6.77106716455E-01 -6.41724291441E+00 -3.39673682560E+01  3.45748692892E+01  7.45058059692E-07  0.00000000000E+00  1.
       16    1   15   15    0    0 -1.89787303000E+00 -2.06088690950E+01 -1.20265686646E+02  1.22033449479E+02  2.10734242554E-06  0.00000000000E+00  1.
      -16    1   17   17    0    0 -1.58410063560E+00 -1.21665795110E+01 -6.60806293672E+01  6.72100037895E+01  1.49011611938E-06  0.00000000000E+00  1.
</event>
<event>
23  80   1.0000000E+00   2.3570000E+02   7.8125000E-03   1.1298309E-01
       21   -1    0    0  501  510  0.00000000000E+00  0.00000000000E+00  1.37178877898E+03  1.37178877898E+03  0.00000000000E+00  0.00000000000E+00  1.
       21   -1    0    0  510  502  0.00000000000E+00  0.00000000000E+00 -5.07816420631E+01  5.07816420631E+01  0.00000000000E+00  0.00000000000E+00  1.
       25    2    1    2    0    0 -7.49880874369E+00  7.80942342901E+00  1.61913697293E+02  2.04837166056E+02  1.25000000000E+02  0.00000000000E+00  1.
       -6    2    1    2    0  502 -1.25030208589E+01  7.31308524489E+00  3.48442185742E+02  3.89400673463E+02  1.73237181177E+02  0.00000000000E+00  1.
        6    2    1    2  501    0  2.00018296026E+01 -1.51225086739E+01  8.10651253884E+02  8.28332581526E+02  1.68376502928E+02  0.00000000000E+00  1.
       -5    1    4    4    0  502  2.16292377113E+01  5.74086495322E+01  2.04494569102E+02  2.13551324644E+02  4.75000000000E+00  0.00000000000E+00  1.
      -24    2    4    4    0    0 -3.41322585702E+01 -5.00955642873E+01  1.43947616641E+02  1.75849348819E+02  8.07929483753E+01  0.00000000000E+00  1.
       13    1    7    7    0    0 -5.67190125530E+01 -3.53242481751E+01  1.28289156060E+02  1.44647736314E+02  1.05660000004E-01  0.00000000000E+00  1.
      -14    1    7    7    0    0  2.25867539828E+01 -1.47713161122E+01  1.56584605808E+01  3.12016125052E+01  2.50055515330E-06  0.00000000000E+00  1.
        5    1    5    5  501    0  6.13680280996E+01 -2.69766110241E+01  2.06779638900E+02  2.17426203524E+02  4.75000000000E+00  0.00000000000E+00  1.
       24    2    5    5    0    0 -4.13661984970E+01  1.18541023502E+01  6.03871614983E+02  6.10906378002E+02  8.18168269986E+01  0.00000000000E+00  1.
       -1    1   11   11    0  703 -5.22463636918E+00 -2.73172555823E+01  3.69764657682E+02  3.70809157584E+02  5.39479660939E-06  0.00000000000E+00  1.
        2    1   11   11  703    0 -3.61415621278E+01  3.91713579325E+01  2.34106957302E+02  2.40097220418E+02  0.00000000000E+00  0.00000000000E+00  1.
      -15    2    3    3    0    0 -2.06127064099E+01 -4.70487464172E+00 -1.56355443395E+01  2.63561525259E+01  1.77680000000E+00  0.00000000000E+00  1.
       15    2    3    3    0    0  1.31138976663E+01  1.25142980707E+01  1.77549241633E+02  1.78481013530E+02  1.77680000000E+00  0.00000000000E+00  1.
       24    2   14   14    0    0 -9.45015904470E+00 -2.60367347495E+00 -8.20403021298E+00  1.27824679769E+01  2.74646999776E-02  0.00000000000E+00  1.
      -24    2   15   15    0    0  1.18983423722E+01  1.07359849628E+01  1.52956410639E+02  1.53794026908E+02  3.27464214844E-01  0.00000000000E+00  1.
       16    1   16   16    0    0 -2.92671258876E+00 -7.99775686024E-01 -2.55367711099E+00  3.96567201271E+00  1.57913425544E-07  0.00000000000E+00  1.
      -16    1   14   14    0    0 -1.11625473652E+01 -2.10120116677E+00 -7.43151412653E+00  1.35736845491E+01  3.08884753879E-07  0.00000000000E+00  1.
      -15    1   16   16    0    0 -6.52344645594E+00 -1.80389778892E+00 -5.65035310199E+00  8.81679596416E+00  3.22619603494E-07  0.00000000000E+00  1.
        3    1   17   17  804    0  5.81748099967E+00  5.42158458797E+00  7.49085440143E+01  7.53294539405E+01  0.00000000000E+00  0.00000000000E+00  1.
       16    1   15   15    0    0  1.21555529402E+00  1.77831310794E+00  2.45928309939E+01  2.46869866221E+01  4.56253018749E-07  0.00000000000E+00  1.
       -4    1   17   17    0  804  6.08086137257E+00  5.31440037482E+00  7.80478666243E+01  7.84645729676E+01  1.05367121277E-06  0.00000000000E+00  1.
</event>
<event>
23  80   1.0000000E+00   2.3570000E+02   7.8125000E-03   1.1298309E-01
       21   -1    0    0  501  510  0.00000000000E+00  0.00000000000E+00  4.07163891381E+02  4.07163891381E+02  0.00000000000E+00  0.00000000000E+00  1.
       21   -1    0    0  510  502  0.00000000000E+00  0.00000000000E+00 -5.20477250626E+02  5.20477250626E+02  0.00000000000E+00  0.00000000000E+00  1.
       25    2    1    2    0    0 -1.08740015169E+02 -9.88300456835E+01  3.95391108182E+00  1.92956995835E+02  1.25000000000E+02  0.00000000000E+00  1.
       -6    2    1    2    0  502 -2.12932319959E+02  1.25343115461E+01  1.11513157752E+02  2.96369285503E+02  1.72922778107E+02  0.00000000000E+00  1.
        6    2    1    2  501    0  3.21672335129E+02  8.62957341374E+01 -2.28780428080E+02  4.38314860670E+02  1.69880510637E+02  0.00000000000E+00  1.
       -5    1    4    4    0  502 -1.50717938011E+02  3.94138622594E+01  2.09070268564E+01  1.57254620436E+02  4.75000000000E+00  0.00000000000E+00  1.
      -24    2    4    4    0    0 -6.22143819485E+01 -2.68795507133E+01  9.06061308958E+01  1.39114665067E+02  8.09337970992E+01  0.00000000000E+00  1.
        1    1    7    7  704    0 -6.01593435345E+01 -1.13988674910E+01  1.02560681790E+02  1.19447788777E+02  2.69739830470E-06  0.00000000000E+00  1.
       -2    1    7    7    0  704 -2.05503841408E+00 -1.54806832223E+01 -1.19545508939E+01  1.96668762895E+01  1.74388156394E-06  0.00000000000E+00  1.
        5    1    5    5  501    0 -1.38119764347E+01 -5.41644500335E+00 -2.30477760514E+00  1.57474781891E+01  4.75000000000E+00  0.00000000000E+00  1.
       24    2    5    5    0    0  3.35484311563E+02  9.17121791408E+01 -2.26475650474E+02  4.22567382481E+02  7.94425916679E+01  0.00000000000E+00  1.
      -13    1   11   11    0    0  1.40197382124E+02  1.05384165223E+01 -1.24437485327E+02  1.87752664683E+02  1.05660000004E-01  0.00000000000E+00  1.
       14    1   11   11    0    0  1.95286929440E+02  8.11737626185E+01 -1.02038165147E+02  2.34814717797E+02  3.30362473978E-06  0.00000000000E+00  1.
      -15    2    3    3    0    0 -5.25210418588E+01  2.27764733878E+01  1.27759054262E+01  5.86822661084E+01  1.77680000000E+00  0.00000000000E+00  1.
       15    2    3    3    0    0 -5.62189733102E+01 -1.21606519071E+02 -8.82199434434E+00  1.34274729727E+02  1.77680000000E+00  0.00000000000E+00  1.
       24    2   14   14    0    0 -2.77863152223E+01  1.29040222828E+01  7.16874513176E+00  3.14662370231E+01  3.74247142910E-01  0.00000000000E+00  1.
      -24    2   15   15    0    0 -5.37334491382E+01 -1.15598036386E+02 -8.61075947288E+00  1.27769015718E+02  7.65915323059E-01  0.00000000000E+00  1.
       12    1   16   16    0    0 -2.68343301764E+01  1.23990303490E+01  6.87669071160E+00  3.03497298959E+01  7.27386183656E-07  0.00000000000E+00  1.
      -16    1   14   14    0    0 -2.47347266365E+01  9.87245110505E+00  5.60716029440E+00  2.72160290853E+01  6.41869788621E-07  0.00000000000E+00  1.
      -11    1   16   16    0    0 -9.51985045860E-01  5.04991933745E-01  2.92054420160E-01  1.11650712717E+00  3.31834722630E-08  0.00000000000E+00  1.
        3    1   17   17  804    0 -3.04417442638E+01 -6.53471739692E+01 -4.49379983724E+00  7.22298219336E+01  1.12724662171E-06  0.00000000000E+00  1.
       16    1   15   15    0    0 -2.48552417202E+00 -6.00848268577E+00 -2.11234871461E-01  6.50571400891E+00  1.34854726938E-07  0.00000000000E+00  1.
       -4    1   17   17    0  804 -2.32917048744E+01 -5.02508624164E+01 -4.11695963564E+00  5.55391937841E+01  3.48468999078E-07  0.00000000000E+00  1.
</event>
<event>
23  80   1.0000000E+00   2.3570000E+02   7.8125000E-03   1.1298309E-01
       21   -1    0    0  501  510  0.00000000000E+00  0.00000000000E+00  9.53665695872E+02  9.53665695872E+02  0.00000000000E+00  0.00000000000E+00  1.
       21   -1    0    0  510  502  0.00000000000E+00  0.00000000000E+00 -1.36333473011E+02  1.36333473011E+02  0.00000000000E+00  0.00000000000E+00  1.
       25    2    1    2    0    0 -7.96161753893E+01  8.63766772914E+01  4.71919159343E+01  1.77909366513E+02  1.25000000000E+02  0.00000000000E+00  1.
       -6    2    1    2    0  502  1.54060924301E+02 -1.27658081517E+02  5.95822930842E+02  6.51850021549E+02  1.72835562034E+02  0.00000000000E+00  1.
        6    2    1    2  501    0 -7.44447489118E+01  4.12814042251E+01  1.74317376084E+02  2.60239780821E+02  1.73470518941E+02  0.00000000000E+00  1.
       -5    1    4    4    0  502  9.33964397987E+00 -8.31279112957E+01  1.21869410982E+02  1.47892509679E+02  4.75000000000E+00  0.00000000000E+00  1.
      -24    2    4    4    0    0  1.44721280321E+02 -4.45301702208E+01  4.73953519860E+02  5.03957511870E+02  8.00877627666E+01  0.00000000000E+00  1.
       11    1    7    7    0    0  2.06027735237E+01  5.76376100125E+00  1.75940827137E+02  1.77236762190E+02  5.10980799017E-04  0.00000000000E+00  1.
      -12    1    7    7    0    0  1.24118506798E+02 -5.02939312221E+01  2.98012692723E+02  3.26720749680E+02  3.81469726562E-06  0.00000000000E+00  1.
        5    1    5    5  501    0 -4.58821567679E+01 -3.49447596513E+01  1.21948508437E+02  1.34982627574E+02  4.75000000000E+00  0.00000000000E+00  1.
       24    2    5    5    0    0 -2.85625921439E+01  7.62261638764E+01  5.23688676475E+01  1.25257153247E+02  7.95022415509E+01  0.00000000000E+00  1.
       -1    1   11   11    0  703  1.34459400038E+01  3.67431251257E+01  5.50571317370E+01  6.75436029665E+01  1.78416127528E-06  0.00000000000E+00  1.
        2    1   11   11  703    0 -4.20085321478E+01  3.94830387507E+01 -2.68826408943E+00  5.77135502808E+01  1.40987350613E-06  0.00000000000E+00  1.
      -15    2    3    3    0    0 -8.61180792056E+01  1.02571283964E+02  6.83927963985E+01  1.50392564569E+02  1.77680000000E+00  0.00000000000E+00  1.
       15    2    3    3    0    0  6.50190381629E+00 -1.61946066731E+01 -2.12008804642E+01  2.75168019441E+01  1.77680000000E+00  0.00000000000E+00  1.
       24    2   14   14    0    0 -3.34369547534E+01  3.95444246154E+01  2.68643544536E+01  5.83474812493E+01  9.71373554595E-01  0.00000000000E+00  1.
      -24    2   15   15    0    0  4.11099541730E+00 -1.23040604481E+01 -1.54915082141E+01  2.02058701025E+01  1.31537931269E-02  0.00000000000E+00  1.
       16    1   16   16    0    0 -2.22304947957E+01  2.69564071400E+01  1.82917953092E+01  3.94389726082E+01  5.89020114423E-07  0.00000000000E+00  1.
      -16    1   14   14    0    0 -5.26811244522E+01  6.30268593490E+01  4.15284419449E+01  9.20450833197E+01  1.39387599631E-06  0.00000000000E+00  1.
      -15    1   16   16    0    0 -1.12064599577E+01  1.25880174754E+01  8.57255914444E+00  1.89085086411E+01  3.48468999078E-07  0.00000000000E+00  1.
       15    1   17   17    0    0  1.57622372549E+00 -4.73068963082E+00 -5.96213047229E+00  7.77244526417E+00  1.61309801747E-07  0.00000000000E+00  1.
       16    1   15   15    0    0  2.39090839899E+00 -3.89054622495E+00 -5.70937225012E+00  7.31093184151E+00  3.89600184995E-07  0.00000000000E+00  1.
      -16    1   17   17    0    0  2.53477169182E+00 -7.57337081730E+00 -9.52937774178E+00  1.24334248384E+01  5.89020114423E-07  0.00000000000E+00  1.
</event>
<event>
23  80   1.0000000E+00   2.3570000E+02   7.8125000E-03   1.1298309E-01
       21   -1    0    0  501  510  0.00000000000E+00  0.00000000000E+00  3.72733764116E+02  3.72733764116E+02  0.00000000000E+00  0.00000000000E+00  1.
       21   -1    0    0  510  502  0.00000000000E+00  0.00000000000E+00 -4.69473220961E+02  4.69473220961E+02  0.00000000000E+00  0.00000000000E+00  1.
       25    2    1    2    0    0  1.06695529197E+02  1.41546206376E+02 -3.65688857324E+01  2.19958059397E+02  1.25000000000E+02  0.00000000000E+00  1.
       -6    2    1    2    0  502 -2.69153286050E+02 -4.55068196595E+01 -1.43512446762E+02  3.52910648586E+02  1.71568474618E+02  0.00000000000E+00  1.
        6    2    1    2  501    0  1.62457756854E+02 -9.60393867169E+01  8.33418756497E+01  2.69338277093E+02  1.73150664763E+02  0.00000000000E+00  1.
       -5    1    4    4    0  502 -4.76707796244E+01  4.31007366145E+01 -5.88066334552E+01  8.72408124965E+01  4.75000000000E+00  0.00000000000E+00  1.
      -24    2    4    4    0    0 -2.21482506426E+02 -8.86075562741E+01 -8.47058133071E+01  2.65669836090E+02  8.06200180999E+01  0.00000000000E+00  1.
       15    1    7    7    0    0 -1.11020837677E+02 -4.67991229357E+01 -8.51762622850E+01  1.47559943688E+02  1.77680000000E+00  0.00000000000E+00  1.
      -16    1    7    7    0    0 -1.10461668749E+02 -4.18084333384E+01  4.70448977921E-01  1.18109892402E+02  9.06769635595E-07  0.00000000000E+00  1.
        5    1    5    5  501    0  5.30599025681E+01 -5.63101269411E+01 -3.46421966037E+01  8.49048169551E+01  4.75000000000E+00  0.00000000000E+00  1.
       24    2    5    5    0    0  1.09397854285E+02 -3.97292597758E+01  1.17984072253E+02  1.84433460138E+02  8.09268515911E+01  0.00000000000E+00  1.
       -1    1   11   11    0  703  4.44563833873E+01 -5.81460735786E+01  5.00838700842E+01  8.86889504904E+01  1.16800772800E-06  0.00000000000E+00  1.
        2    1   11   11  703    0  6.49414708982E+01  1.84168138028E+01  6.79002021691E+01  9.57445096477E+01  1.90734863281E-06  0.00000000000E+00  1.
      -15    2    3    3    0    0  1.20276862697E+02  1.10061253363E+02  8.54166610856E+00  1.63267021380E+02  1.77680000000E+00  0.00000000000E+00  1.
       15    2    3    3    0    0 -1.35813334997E+01  3.14849530131E+01 -4.51105518410E+01  5.66910380175E+01  1.77680000000E+00  0.00000000000E+00  1.
       24    2   14   14    0    0  2.80362647899E+01  2.64088206577E+01  2.00313295630E+00  3.85721545425E+01  5.83620177094E-01  0.00000000000E+00  1.
      -24    2   15   15    0    0 -9.11703340756E+00  1.98986568503E+01 -2.99261307870E+01  3.70762763104E+01  1.08885405375E-02  0.00000000000E+00  1.
       16    1   16   16    0    0  7.37576043766E+00  6.68357352871E+00  3.49130238118E-01  9.95961289763E+00  1.29960905538E-07  0.00000000000E+00  1.
      -16    1   14   14    0    0  9.22405979068E+01  8.36524327053E+01  6.53853315226E+00  1.24694866837E+02  1.72985490607E-06  0.00000000000E+00  1.
      -15    1   16   16    0    0  2.06605043522E+01  1.97252471290E+01  1.65400271819E+00  2.86125416449E+01  2.31663565409E-07  0.00000000000E+00  1.
       15    1   17   17    0    0 -8.24073269018E+00  1.79852553671E+01 -2.70541289286E+01  3.35157422412E+01  0.00000000000E+00  0.00000000000E+00  1.
       16    1   15   15    0    0 -4.46430009216E+00  1.15862961628E+01 -1.51844210539E+01  1.96147617071E+01  2.63417803193E-07  0.00000000000E+00  1.
      -16    1   17   17    0    0 -8.76300717383E-01  1.91340148314E+00 -2.87200185841E+00  3.56053406916E+00  8.06549008735E-08  0.00000000000E+00  1.
</event>
<event>
23  80   1.0000000E+00   2.3570000E+02   7.8125000E-03   1.1298309E-01
       21   -1    0    0  501  510  0.00000000000E+00  0.00000000000E+00  6.62190201721E+02  6.62190201721E+02  0.00000000000E+00  0.00000000000E+00  1.
       21   -1    0    0  510  502  0.00000000000E+00  0.00000000000E+00 -1.48931174838E+02  1.48931174838E+02  0.00000000000E+00  0.00000000000E+00  1.
       25    2    1    2    0    0  2.02810423475E+01  2.12074812581E+01  1.71090211002E+01  1.29532994032E+02  1.25000000000E+02  0.00000000000E+00  1.
       -6    2    1    2    0  502 -7.62576883099E+01 -3.43558301755E+01  4.57988756669E+02  4.96525348433E+02  1.72592474657E+02  0.00000000000E+00  1.
        6    2    1    2  501    0  5.59766459624E+01  1.31483489173E+01  3.81612491143E+01  1.85063034093E+02  1.71714244259E+02  0.00000000000E+00  1.
       -5    1    4    4    0  502 -3.91104073636E+01  4.50193617048E+01  2.47561815311E+02  2.54687616096E+02  4.75000000000E+00  0.00000000000E+00  1.
      -24    2    4    4    0    0 -3.71472809463E+01 -7.93751918803E+01  2.10426941358E+02  2.41837732337E+02  8.07814927145E+01  0.00000000000E+00  1.
        3    1    7    7  704    0  1.87454541273E+01 -2.84442658542E+01  2.71070759817E+01  4.35346055305E+01  3.69356474515E-06  0.00000000000E+00  1.
       -4    1    7    7    0  704 -5.58927350736E+01 -5.09309260261E+01  1.83319865376E+02  1.98303126807E+02  4.67203091199E-06  0.00000000000E+00  1.
        5    1    5    5  501    0  2.71351565628E+01 -6.06651612033E+01  2.16765054713E+01  7.00643411085E+01  4.75000000000E+00  0.00000000000E+00  1.
       24    2    5    5    0    0  2.88414893996E+01  7.38135101207E+01  1.64847436430E+01  1.14998692985E+02  8.16865155829E+01  0.00000000000E+00  1.
       -1    1   11   11    0  703  2.63630242861E+01  2.63065600285E+01  4.58681747711E+01  5.90841231371E+01  1.50789149292E-06  0.00000000000E+00  1.
        2    1   11   11  703    0  2.47846511350E+00  4.75069500921E+01 -2.93834311281E+01  5.59145698475E+01  1.30587233902E-06  0.00000000000E+00  1.
      -15    2    3    3    0    0 -3.86134120850E+01  4.76511354289E+01  2.09497640612E+01  6.48357612199E+01  1.77680000000E+00  0.00000000000E+00  1.
       15    2    3    3    0    0  5.88944544325E+01 -2.64436541708E+01 -3.84074296102E+00  6.46972328121E+01  1.77680000000E+00  0.00000000000E+00  1.
       24    2   14   14    0    0 -1.37695746606E+01  1.70421359832E+01  6.58824279482E+00  2.28788738459E+01  4.83748635104E-02  0.00000000000E+00  1.
      -24    2   15   15    0    0  2.58812626424E+01 -1.20249560922E+01 -1.08652864771E+00  2.85675305862E+01  6.95653867040E-01  0.00000000000E+00  1.
       16    1   16   16    0    0 -3.49120159436E+00  4.30077219051E+00  1.68322032194E+00  5.78950435351E+00  7.36275143029E-08  0.00000000000E+00  1.
      -16    1   14   14    0    0 -2.48438374243E+01  3.06089994457E+01  1.43615212664E+01  4.19568873740E+01  9.31322574615E-07  0.00000000000E+00  1.
      -15    1   16   16    0    0 -1.02783730663E+01  1.27413637927E+01  4.90502247288E+00  1.70893694924E+01  2.94510057212E-07  0.00000000000E+00  1.
       11    1   17   17    0    0  2.20564931542E+01 -1.00174586130E+01 -7.86052972370E-01  2.42374967065E+01  4.15196514226E-07  0.00000000000E+00  1.
       16    1   15   15    0    0  3.30131917901E+01 -1.44186980785E+01 -2.75421431331E+00  3.61297022259E+01  5.70316273436E-07  0.00000000000E+00  1.
      -12    1   17   17    0    0  3.82476948827E+00 -2.00749747920E+00 -3.00475675344E-01  4.33003387964E+00  1.13765827180E-07  0.00000000000E+00  1.
</event>
<event>
23  80   1.0000000E+00   2.3570000E+02   7.8125000E-03   1.1298309E-01
       21   -1    0    0  501  510  0.00000000000E+00  0.00000000000E+00  6.54184892251E+02  6.54184892251E+02  0.00000000000E+00  0.00000000000E+00  1.
       21   -1    0    0  510  502  0.00000000000E+00  0.00000000000E+00 -4.45321692153E+02  4.45321692153E+02  0.00000000000E+00  0.00000000000E+00  1.
       25    2    1    2    0    0 -1.02445504340E+02  1.02824132467E+02 -6.55854187622E+01  2.02470567568E+02  1.25000000000E+02  0.00000000000E+00  1.
       -6    2    1    2    0  502  3.54386972631E+02  1.67836210296E+02  5.27332347890E+01  4.31911497919E+02  1.73227099860E+02  0.00000000000E+00  1.
        6    2    1    2  501    0 -2.51941468291E+02 -2.70660342763E+02  2.21715384071E+02  4.65124518917E+02  1.74503816504E+02  0.00000000000E+00  1.
       -5    1    4    4    0  502  9.87678651615E+01  2.28273430205E+01  7.67582874330E+01  1.27242194132E+02  4.75000000000E+00  0.00000000000E+00  1.
      -24    2    4    4    0    0  2.55619107470E+02  1.45008867276E+02 -2.40250526440E+01  3.04669303787E+02  7.66647365028E+01  0.00000000000E+00  1.
        3    1    7    7  704    0  6.89424452644E+01  8.10148112245E+01 -8.75887587745E+00  1.06738832219E+02  1.73161495284E-06  0.00000000000E+00  1.
       -4    1    7    7    0  704  1.86676662205E+02  6.39940560512E+01 -1.52661767665E+01  1.97930471568E+02  2.38418579102E-07  0.00000000000E+00  1.
        5    1    5    5  501    0 -1.22025146726E+02 -1.45118146985E+02  3.57686955687E+01  1.93006153013E+02  4.75000000000E+00  0.00000000000E+00  1.
       24    2    5    5    0    0 -1.29916321565E+02 -1.25542195778E+02  1.85946688503E+02  2.72118365904E+02  8.26628124836E+01  0.00000000000E+00  1.
       -1    1   11   11    0  703 -2.57808542863E+01  6.89506829582E+00  4.56419507657E+01  5.28713730126E+01  2.02304872852E-06  0.00000000000E+00  1.
        2    1   11   11  703    0 -1.04135467279E+02 -1.32437264074E+02  1.40304737737E+02  2.19246992892E+02  2.69739830470E-06  0.00000000000E+00  1.
      -15    2    3    3    0    0 -2.39855097713E+01 -2.32525242148E+01 -3.93756943554E+01  5.16680451107E+01  1.77680000000E+00  0.00000000000E+00  1.
       15    2    3    3    0    0 -7.84599945687E+01  1.26076656682E+02 -2.62097244068E+01  1.50802522457E+02  1.77680000000E+00  0.00000000000E+00  1.
       24    2   14   14    0    0 -2.38880112332E+01 -2.30435929245E+01 -3.91003949445E+01  5.13089517876E+01  1.45718673658E+00  0.00000000000E+00  1.
      -24    2   15   15    0    0 -5.81673505322E+01  9.45263075027E+01 -1.90601720839E+01  1.12614408682E+02  2.26726393398E-01  0.00000000000E+00  1.
        4    1   16   16  803    0 -4.29430147444E+00 -4.20420474330E+00 -7.96788766111E+00  9.98016014185E+00  2.08250058582E-07  0.00000000000E+00  1.
      -16    1   14   14    0    0 -9.74985381404E-02 -2.08931290282E-01 -2.75299410956E-01  3.59093323067E-01  1.08896562212E-08  0.00000000000E+00  1.
       -3    1   16   16    0  803 -1.95937097587E+01 -1.88393881812E+01 -3.11325072834E+01  4.13287916458E+01  5.26835606386E-07  0.00000000000E+00  1.
       15    1   17   17    0    0 -4.41445630768E+01  7.15789328102E+01 -1.43914847776E+01  8.53194052112E+01  1.40626624884E-06  0.00000000000E+00  1.
       16    1   15   15    0    0 -2.02926440365E+01  3.15503491790E+01 -7.14955232289E+00  3.81881137755E+01  9.31322574615E-08  0.00000000000E+00  1.
      -16    1   17   17    0    0 -1.40227874554E+01  2.29473746925E+01 -4.66868730625E+00  2.72950034706E+01  2.08250058582E-07  0.00000000000E+00  1.
</event>
<event>
23  80   1.0000000E+00   2.3570000E+02   7.8125000E-03   1.1298309E-01
       21   -1    0    0  501  510  0.00000000000E+00  0.00000000000E+00  1.20004398035E+03  1.20004398035E+03  0.00000000000E+00  0.00000000000E+00  1.
       21   -1    0    0  510  502  0.00000000000E+00  0.00000000000E+00 -5.18525169166E+01  5.18525169166E+01  0.00000000000E+00  0.00000000000E+00  1.
       25    2    1    2    0    0 -5.73316169817E+01  3.70818834929E+01  2.86850434811E+02  3.20265752681E+02  1.25000000000E+02  0.00000000000E+00  1.
       -6    2    1    2    0  502  3.26557805884E+01 -1.45664063577E+00  3.99645907774E+02  4.36194399309E+02  1.71697934116E+02  0.00000000000E+00  1.
        6    2    1    2  501    0  2.46758363932E+01 -3.56252428571E+01  4.61695120851E+02  4.95436345279E+02  1.74403935667E+02  0.00000000000E+00  1.
       -5    1    4    4    0  502  3.91411030518E+01 -2.97178115924E+01  3.17780633847E+01  5.87161143676E+01  4.75000000000E+00  0.00000000000E+00  1.
      -24    2    4    4    0    0 -6.48532246333E+00  2.82611709566E+01  3.67867844390E+02  3.77478284941E+02  7.95132157255E+01  0.00000000000E+00  1.
        1    1    7    7  704    0  3.27330263614E+01  1.54333072882E+01  9.78863610497E+01  1.04361763439E+02  3.01578298585E-06  0.00000000000E+00  1.
       -2    1    7    7    0  704 -3.92183488247E+01  1.28278636683E+01  2.69981483340E+02  2.73116521502E+02  0.00000000000E+00  0.00000000000E+00  1.
        5    1    5    5  501    0  7.56772668542E+01 -1.01394303954E+01  1.43576946918E+02  1.62686074861E+02  4.75000000000E+00  0.00000000000E+00  1.
       24    2    5    5    0    0 -5.10014304610E+01 -2.54858124618E+01  3.18118173933E+02  3.32750270419E+02  7.92016245514E+01  0.00000000000E+00  1.
       -3    1   11   11    0  703  1.64617829156E+01 -1.17931576789E+01  2.78674796071E+01  3.44480084251E+01  2.50055515330E-06  0.00000000000E+00  1.
        4    1   11   11  703    0 -6.74632133766E+01 -1.36926547828E+01  2.90250694326E+02  2.98302261994E+02  3.81469726562E-06  0.00000000000E+00  1.
      -15    2    3    3    0    0  1.72836993219E+01 -1.65238817771E+01  1.69648873267E+02  1.71334941417E+02  1.77680000000E+00  0.00000000000E+00  1.
       15    2    3    3    0    0 -7.46153163036E+01  5.36057652700E+01  1.17201561544E+02  1.48930811264E+02  1.77680000000E+00  0.00000000000E+00  1.
       24    2   14   14    0    0  1.33115924325E+01 -1.23299493473E+01  1.26540905299E+02  1.27841682115E+02  1.29183127801E+00  0.00000000000E+00  1.
      -24    2   15   15    0    0 -7.41840645908E+01  5.32225098284E+01  1.16289081261E+02  1.47851235866E+02  9.62566885226E-01  0.00000000000E+00  1.
        4    1   16   16  803    0  1.20881720208E+01 -1.09025247773E+01  1.15581580485E+02  1.16722280207E+02  0.00000000000E+00  0.00000000000E+00  1.
      -16    1   14   14    0    0  3.97210688942E+00 -4.19393242989E+00  4.31079679682E+01  4.34932593020E+01  7.45058059692E-07  0.00000000000E+00  1.
       -1    1   16   16    0  803  1.22342041166E+00 -1.42742456999E+00  1.09593248139E+01  1.11194019076E+01  1.86264514923E-07  0.00000000000E+00  1.
        3    1   17   17  804    0 -6.81287587985E+01  4.90732310337E+01  1.06598995710E+02  1.35694714952E+02  2.98023223877E-06  0.00000000000E+00  1.
       16    1   15   15    0    0 -4.31251712749E-01  3.83255441659E-01  9.12480282911E-01  1.07957539802E+00  3.49245965481E-08  0.00000000000E+00  1.
       -4    1   17   17    0  804 -6.05530579235E+00  4.14927879468E+00  9.69008555106E+00  1.21565209144E+01  2.63417803193E-07  0.00000000000E+00  1.
</event>
<event>
23  80   1.0000000E+00   2.3570000E+02   7.8125000E-03   1.1298309E-01
       21   -1    0    0  501  510  0.00000000000E+00  0.00000000000E+00  1.53145043264E+03  1.53145043264E+03  0.00000000000E+00  0.00000000000E+00  1.
       21   -1    0    0  510  502  0.00000000000E+00  0.00000000000E+00 -1.62908331720E+02  1.62908331720E+02  0.00000000000E+00  0.00000000000E+00  1.
       25    2    1    2    0    0 -4.29668886483E+01 -3.24227187214E+01  8.88167621803E+02  8.98534423731E+02  1.25000000000E+02  0.00000000000E+00  1.
       -6    2    1    2    0  502  9.21426929400E+01  6.37350481052E+01 -7.29134389885E+01  2.13131463488E+02  1.66000659409E+02  0.00000000000E+00  1.
        6    2    1    2  501    0 -4.91758042917E+01 -3.13123293838E+01  5.53287918106E+02  5.82692877142E+02  1.73218783768E+02  0.00000000000E+00  1.
       -5    1    4    4    0  502 -3.27977060060E+01  1.23658875420E+01  3.35694553618E+00  3.55307792947E+01  4.75000000000E+00  0.00000000000E+00  1.
      -24    2    4    4    0    0  1.24940398946E+02  5.13691605632E+01 -7.62703845247E+01  1.77600684193E+02  8.64635040034E+01  0.00000000000E+00  1.
        1    1    7    7  704    0  6.60893686277E+01  7.23048370665E+00  6.57491530411E+00  6.68080388239E+01  1.30041982110E-06  0.00000000000E+00  1.
       -2    1    7    7    0  704  5.88510303183E+01  4.41386768566E+01 -8.28452998288E+01  1.10792645369E+02  1.34869915235E-06  0.00000000000E+00  1.
        5    1    5    5  501    0  4.37067189214E+00 -4.01043746356E+01  4.01452929048E+02  4.03502763781E+02  4.75000000001E+00  0.00000000000E+00  1.
       24    2    5    5    0    0 -5.35464761838E+01  8.79204525184E+00  1.51834989058E+02  1.79190113360E+02  7.81710154239E+01  0.00000000000E+00  1.
       -3    1   11   11    0  703 -1.34662343810E+01  4.13124432481E+01  7.33625733599E+01  8.52650256877E+01  9.53674316406E-07  0.00000000000E+00  1.
        4    1   11   11  703    0 -4.00802418028E+01 -3.25203979963E+01  7.84724156982E+01  9.39250876726E+01  2.33601545599E-06  0.00000000000E+00  1.
      -15    2    3    3    0    0  2.20352416567E+01  2.32537646677E+01  5.00506803428E+02  5.01534153116E+02  1.77680000001E+00  0.00000000000E+00  1.
       15    2    3    3    0    0 -6.50021303050E+01 -5.56764833891E+01  3.87660818375E+02  3.97000270615E+02  1.77680000001E+00  0.00000000000E+00  1.
       24    2   14   14    0    0  5.57685133743E+00  7.01922364982E+00  1.37382877491E+02  1.37675080779E+02  4.54798075934E-02  0.00000000000E+00  1.
      -24    2   15   15    0    0 -3.61711481961E+01 -3.14370377103E+01  2.16472950680E+02  2.21717463979E+02  1.20671260210E+00  0.00000000000E+00  1.
        4    1   16   16  803    0  3.17740039808E+00  3.96327648007E+00  7.77968505854E+01  7.79625127530E+01  1.05367121277E-06  0.00000000000E+00  1.
      -16    1   14   14    0    0  1.64583903193E+01  1.62345410178E+01  3.63123925937E+02  3.63859072337E+02  0.00000000000E+00  0.00000000000E+00  1.
       -5    1   16   16    0  803  2.39945093935E+00  3.05594716975E+00  5.95860269053E+01  5.97125680261E+01  7.45058059692E-07  0.00000000000E+00  1.
       13    1   17   17    0    0 -2.58893513642E+01 -2.26767917195E+01  1.52995885273E+02  1.56819119711E+02  2.98023223877E-06  0.00000000000E+00  1.
       16    1   15   15    0    0 -2.88309821089E+01 -2.42394456787E+01  1.71187867695E+02  1.75282806636E+02  3.65002414999E-06  0.00000000000E+00  1.
      -14    1   17   17    0    0 -1.02817968319E+01 -8.76024599082E+00  6.34770654076E+01  6.48983442676E+01  1.82501207499E-06  0.00000000000E+00  1.
</event>
<event>
23  80   1.0000000E+00   2.3570000E+02   7.8125000E-03   1.1298309E-01
       21   -1    0    0  501  510  0.00000000000E+00  0.00000000000E+00  5.75030996129E+02  5.75030996129E+02  0.00000000000E+00  0.00000000000E+00  1.
       21   -1    0    0  510  502  0.00000000000E+00  0.00000000000E+00 -4.44193315001E+02  4.44193315001E+02  0.00000000000E+00  0.00000000000E+00  1.
       25    2    1    2    0    0  4.75375580981E+01  6.31873961508E+01  3.82157411279E+01  1.52767500903E+02  1.25000000000E+02  0.00000000000E+00  1.
       -6    2    1    2    0  502 -7.61235391994E+01 -4.21075627018E+02  6.49401746027E+01  4.66095335504E+02  1.72997568227E+02  0.00000000000E+00  1.
        6    2    1    2  501    0  2.85859811013E+01  3.57888230867E+02  2.76817653965E+01  4.00361474723E+02  1.74991103197E+02  0.00000000000E+00  1.
       -5    1    4    4    0  502  3.53932951179E+01 -1.31556777455E+02  4.86641064064E+01  1.44743320350E+02  4.75000000000E+00  0.00000000000E+00  1.
      -24    2    4    4    0    0 -1.11516834317E+02 -2.89518849563E+02  1.62760681963E+01  3.21352015154E+02  8.21281843170E+01  0.00000000000E+00  1.
        1    1    7    7  704    0 -4.48028615538E+01 -2.19134941692E+02  5.03114301780E+00  2.23724677839E+02  2.70200418392E-06  0.00000000000E+00  1.
       -2    1    7    7    0  704 -6.67139727634E+01 -7.03839078705E+01  1.12449251785E+01  9.76273373153E+01  3.60004159702E-06  0.00000000000E+00  1.
        5    1    5    5  501    0  4.29228427162E+01  5.18981440959E+01  4.86756137739E+01  8.32325997654E+01  4.75000000000E+00  0.00000000000E+00  1.
       24    2    5    5    0    0 -1.43368616149E+01  3.05990086771E+02 -2.09938483774E+01  3.17128874957E+02  7.93379030403E+01  0.00000000000E+00  1.
       -1    1   11   11    0  703 -1.69151015693E+01  8.49775468190E+00 -1.29456869998E+00  1.89738874207E+01  2.61004376958E-06  0.00000000000E+00  1.
        2    1   11   11  703    0  2.57823995443E+00  2.97492332089E+02 -1.96992796774E+01  2.98154987537E+02  2.98737623361E-06  0.00000000000E+00  1.
      -15    2    3    3    0    0  7.76237172837E+01  1.08284635005E+01 -4.89689709281E+00  7.85482891354E+01  1.77680000000E+00  0.00000000000E+00  1.
       15    2    3    3    0    0 -3.00861591856E+01  5.23589326503E+01  4.31126382207E+01  7.42192117676E+01  1.77680000000E+00  0.00000000000E+00  1.
       24    2   14   14    0    0  6.29337227060E+00  1.02312003207E+00 -7.23394745591E-01  6.42630218230E+00  3.47491933547E-01  0.00000000000E+00  1.
      -24    2   15   15    0    0 -2.15485605358E+01  3.81727942635E+01  3.14822228849E+01  5.39854856175E+01  1.34149787057E+00  0.00000000000E+00  1.
       16    1   16   16    0    0  7.93891184310E-01  2.01912853851E-01 -1.85368383920E-01  8.39877045069E-01  1.00818626092E-08  0.00000000000E+00  1.
      -16    1   14   14    0    0  7.13303450131E+01  9.80534346848E+00 -4.17350234722E+00  7.21219869531E+01  1.08109663858E-06  0.00000000000E+00  1.
      -15    1   16   16    0    0  5.49948108629E+00  8.21207178215E-01 -5.38026361671E-01  5.58642513723E+00  1.11205580030E-07  0.00000000000E+00  1.
       15    1   17   17    0    0 -7.29193350359E+00  1.35368123615E+01  1.03519428907E+01  1.85359193121E+01  3.95126704790E-07  0.00000000000E+00  1.
       16    1   15   15    0    0 -8.53759864975E+00  1.41861383868E+01  1.16304153358E+01  2.02337261501E+01  3.95126704790E-07  0.00000000000E+00  1.
      -16    1   17   17    0    0 -1.42566270323E+01  2.46359819019E+01  2.11302799942E+01  3.54495663054E+01  6.96937998156E-07  0.00000000000E+00  1.
</event>
<event>
23  80   1.0000000E+00   2.3570000E+02   7.8125000E-03   1.1298309E-01
       21   -1    0    0  501  510  0.00000000000E+00  0.00000000000E+00  5.26467333471E+02  5.26467333471E+02  0.00000000000E+00  0.00000000000E+00  1.
       21   -1    0    0  510  502  0.00000000000E+00  0.00000000000E+00 -3.07421637491E+02  3.07421637491E+02  0.00000000000E+00  0.00000000000E+00  1.
       25    2    1    2    0    0  5.07704987136E+01 -3.50938136606E+01  2.84554309767E+02  3.16868071134E+02  1.25000000000E+02  0.00000000000E+00  1.
       -6    2    1    2    0  502 -4.61218469196E+01  5.26141641686E+01 -2.17160912047E+02  2.86856314460E+02  1.73874116503E+02  0.00000000000E+00  1.
        6    2    1    2  501    0 -4.64865179404E+00 -1.75203505080E+01  1.51652298261E+02  2.30164585369E+02  1.72188106863E+02  0.00000000000E+00  1.
       -5    1    4    4    0  502  1.43768768387E+01 -3.68343741368E+01 -9.69110254877E+01  1.04774878033E+02  4.75000000000E+00  0.00000000000E+00  1.
      -24    2    4    4    0    0 -6.04987237583E+01  8.94485383054E+01 -1.20249886560E+02  1.82081436427E+02  8.38598693796E+01  0.00000000000E+00  1.
       15    1    7    7    0    0 -1.68319929823E+01 -1.35137674305E+01 -3.61824964134E+01  4.21695146150E+01  1.77680000000E+00  0.00000000000E+00  1.
      -16    1    7    7    0    0 -4.36667307761E+01  1.02962305736E+02 -8.40673901462E+01  1.39911921812E+02  9.53674316406E-07  0.00000000000E+00  1.
        5    1    5    5  501    0 -3.65689054820E+01  2.32570534311E+00  1.35980311283E+02  1.40910969446E+02  4.75000000000E+00  0.00000000000E+00  1.
       24    2    5    5    0    0  3.19202536879E+01 -1.98460558511E+01  1.56719869777E+01  8.92536159234E+01  7.94218373700E+01  0.00000000000E+00  1.
       -3    1   11   11    0  703  2.79458148747E+01 -1.58226816010E+00  4.58719654330E+01  5.37374111233E+01  1.16800772800E-06  0.00000000000E+00  1.
        4    1   11   11  703    0  3.97443881320E+00 -1.82637876910E+01 -3.01999784553E+01  3.55162048001E+01  9.53674316406E-07  0.00000000000E+00  1.
      -15    2    3    3    0    0  8.19270822829E+01  9.69104612940E+00  1.98415668833E+02  2.14890432182E+02  1.77680000000E+00  0.00000000000E+00  1.
       15    2    3    3    0    0 -3.11565835693E+01 -4.47848597900E+01  8.61386409335E+01  1.01977638952E+02  1.77680000000E+00  0.00000000000E+00  1.
       24    2   14   14    0    0  1.03577572339E+01  1.14779922110E+00  2.54721436278E+01  2.75281673945E+01  6.07717975502E-01  0.00000000000E+00  1.
      -24    2   15   15    0    0 -2.65224398231E+01 -3.75889056094E+01  7.15487580033E+01  8.50625058237E+01  1.98711153784E-01  0.00000000000E+00  1.
       16    1   16   16    0    0  5.83059516002E+00  4.35613503600E-01  1.48497987142E+01  1.59593897408E+01  0.00000000000E+00  0.00000000000E+00  1.
      -16    1   14   14    0    0  7.15693250490E+01  8.54324690830E+00  1.72943525206E+02  1.87362264787E+02  0.00000000000E+00  0.00000000000E+00  1.
      -15    1   16   16    0    0  4.52716207388E+00  7.12185717504E-01  1.06223449135E+01  1.15687776537E+01  0.00000000000E+00  0.00000000000E+00  1.
       15    1   17   17    0    0 -1.36603472746E+01 -1.93128372454E+01  3.69675764860E+01  4.38884094196E+01  0.00000000000E+00  0.00000000000E+00  1.
       16    1   15   15    0    0 -4.63414374621E+00 -7.19595418063E+00  1.45898829303E+01  1.69151331283E+01  1.86264514923E-07  0.00000000000E+00  1.
      -16    1   17   17    0    0 -1.28620925485E+01 -1.82760683640E+01  3.45811815172E+01  4.11740964041E+01  8.33000234328E-07  0.00000000000E+00  1.
</event>
<event>
23  80   1.0000000E+00   2.3570000E+02   7.8125000E-03   1.1298309E-01
       21   -1    0    0  501  510  0.00000000000E+00  0.00000000000E+00  9.22795898588E+01  9.22795898588E+01  0.00000000000E+00  0.00000000000E+00  1.
       21   -1    0    0  510  502  0.00000000000E+00  0.00000000000E+00 -1.88215706099E+03  1.88215706099E+03  0.00000000000E+00  0.00000000000E+00  1.
       25    2    1    2    0    0 -2.81925787712E+01  1.30381150184E+02 -5.32192161379E+02  5.62714459077E+02  1.25000000000E+02  0.00000000000E+00  1.
       -6    2    1    2    0  502  2.43398141886E+02 -4.07356391389E+01 -9.19796525392E+02  9.66627340018E+02  1.65652402871E+02  0.00000000000E+00  1.
        6    2    1    2  501    0 -2.15205563115E+02 -8.96455110446E+01 -3.37888784363E+02  4.45094851757E+02  1.72019895408E+02  0.00000000000E+00  1.
       -5    1    4    4    0  502  3.32485818343E+01 -5.27771928182E+01 -1.14062642535E+02  1.30091311001E+02  4.75000000002E+00  0.00000000000E+00  1.
      -24    2    4    4    0    0  2.10149560052E+02  1.20415536793E+01 -8.05733882857E+02  8.36536029017E+02  7.92313148641E+01  0.00000000000E+00  1.
        1    1    7    7  704    0 -3.86883856229E+00 -8.73239994853E+00 -2.60655788765E+01  2.77603516341E+01  1.63798942922E-05  0.00000000000E+00  1.
       -2    1    7    7    0  704  2.14018398614E+02  2.07739536278E+01 -7.79668303980E+02  8.08775677383E+02  1.07895932188E-05  0.00000000000E+00  1.
        5    1    5    5  501    0 -1.46917329311E+02 -6.10090714247E+00 -1.23051838597E+02  1.91797393626E+02  4.75000000000E+00  0.00000000000E+00  1.
       24    2    5    5    0    0 -6.82882338042E+01 -8.35446039022E+01 -2.14836945766E+02  2.53297458130E+02  7.97602990973E+01  0.00000000000E+00  1.
      -13    1   11   11    0    0 -4.41754768521E+00 -3.52603087824E+01 -1.60522037140E+01  3.89934418985E+01  1.05659999971E-01  0.00000000000E+00  1.
       14    1   11   11    0    0 -6.38706861190E+01 -4.82842951197E+01 -1.98784742052E+02  2.14304016232E+02  6.03156597170E-06  0.00000000000E+00  1.
      -15    2    3    3    0    0  4.79392145719E+01  2.97379376615E+01 -1.75507842108E+02  1.84360171647E+02  1.77680000000E+00  0.00000000000E+00  1.
       15    2    3    3    0    0 -7.61317933431E+01  1.00643212523E+02 -3.56684319271E+02  3.78354287430E+02  1.77680000001E+00  0.00000000000E+00  1.
       24    2   14   14    0    0  3.59932979961E+01  2.14196795294E+01 -1.30547296703E+02  1.37101849795E+02  1.92071610103E-02  0.00000000000E+00  1.
      -24    2   15   15    0    0 -1.59829420632E+01  2.13726621567E+01 -7.39027946539E+01  7.85758773828E+01  5.48018387237E-01  0.00000000000E+00  1.
       16    1   16   16    0    0  1.35962335406E+01  8.09632569992E+00 -4.92948799804E+01  5.17725144127E+01  5.26835606386E-07  0.00000000000E+00  1.
      -16    1   14   14    0    0  1.19459165757E+01  8.31825813209E+00 -4.49605454046E+01  4.72583218519E+01  5.26835606386E-07  0.00000000000E+00  1.
      -15    1   16   16    0    0  2.23970644556E+01  1.33233538295E+01 -8.12524167226E+01  8.53293353821E+01  1.05367121277E-06  0.00000000000E+00  1.
        1    1   17   17  804    0 -1.18814844832E+01  1.55827428959E+01 -5.37867769054E+01  5.72451650321E+01  7.45058059692E-07  0.00000000000E+00  1.
       16    1   15   15    0    0 -6.01488512799E+01  7.92705503658E+01 -2.82781524617E+02  2.99778410047E+02  4.21468485109E-06  0.00000000000E+00  1.
       -2    1   17   17    0  804 -4.10145758000E+00  5.78991926079E+00 -2.01160177485E+01  2.13307123506E+01  4.56253018749E-07  0.00000000000E+00  1.
</event>
<event>
23  80   1.0000000E+00   2.3570000E+02   7.8125000E-03   1.1298309E-01
       21   -1    0    0  501  510  0.00000000000E+00  0.00000000000E+00  1.40107934989E+03  1.40107934989E+03  0.00000000000E+00  0.00000000000E+00  1.
       21   -1    0    0  510  502  0.00000000000E+00  0.00000000000E+00 -1.11072839582E+02  1.11072839582E+02  0.00000000000E+00  0.00000000000E+00  1.
       25    2    1    2    0    0 -8.53639083753E+00  3.21821688723E+01  2.75327522309E+01  1.32255867194E+02  1.25000000000E+02  0.00000000000E+00  1.
       -6    2    1    2    0  502 -1.87817426437E+02  8.60901153914E+01  6.32520140868E+02  6.87545801259E+02  1.73062435506E+02  0.00000000000E+00  1.
        6    2    1    2  501    0  1.96353817275E+02 -1.18272284264E+02  6.29953617214E+02  6.92350521024E+02  1.73102655493E+02  0.00000000000E+00  1.
       -5    1    4    4    0  502 -1.76714778679E+02  3.69196969860E+01  4.25407689303E+02  4.62153050025E+02  4.74999999998E+00  0.00000000000E+00  1.
      -24    2    4    4    0    0 -1.11026477579E+01  4.91704184054E+01  2.07112451565E+02  2.25392751234E+02  7.32483848426E+01  0.00000000000E+00  1.
        3    1    7    7  704    0 -1.97010614228E+01  1.19282719415E+01  1.71859568173E+02  1.73395866921E+02  1.90734863281E-06  0.00000000000E+00  1.
       -4    1    7    7    0  704  8.59841366489E+00  3.72421464639E+01  3.52528833925E+01  5.19968843132E+01  1.71926082395E-06  0.00000000000E+00  1.
        5    1    5    5  501    0  2.28692499303E+01 -8.04329423023E+01  1.20054977728E+02  1.46383813917E+02  4.75000000000E+00  0.00000000000E+00  1.
       24    2    5    5    0    0  1.73484567345E+02 -3.78393419615E+01  5.09898639486E+02  5.45966707107E+02  8.09587043665E+01  0.00000000000E+00  1.
       -3    1   11   11    0  703  3.36650207088E+01 -3.29231752904E+01  2.07446809811E+02  2.12723877342E+02  3.81469726562E-06  0.00000000000E+00  1.
        4    1   11   11  703    0  1.39819546636E+02 -4.91616667110E+00  3.02451829675E+02  3.33242829765E+02  0.00000000000E+00  0.00000000000E+00  1.
      -15    2    3    3    0    0  5.37546362005E+01  3.27985067777E+01 -2.56739151404E+00  6.30480093050E+01  1.77680000000E+00  0.00000000000E+00  1.
       15    2    3    3    0    0 -6.22910270381E+01 -6.16337905436E-01  3.01001437449E+01  6.92078578890E+01  1.77680000000E+00  0.00000000000E+00  1.
       24    2   14   14    0    0  4.06275476095E+01  2.39259193277E+01 -1.70406907690E+00  4.71801616701E+01  1.28698713770E-01  0.00000000000E+00  1.
      -24    2   15   15    0    0 -4.64340049462E+01  4.97882385348E-02  2.27684363230E+01  5.17252148570E+01  9.88364910273E-01  0.00000000000E+00  1.
        4    1   16   16  803    0  2.15264334863E+01  1.26547706911E+01 -8.41162302140E-01  2.49847576314E+01  6.82297081784E-07  0.00000000000E+00  1.
      -16    1   14   14    0    0  1.31270885911E+01  8.87258745003E+00 -8.63322437136E-01  1.58678476350E+01  4.17961810506E-07  0.00000000000E+00  1.
       -1    1   16   16    0  803  1.91011141232E+01  1.12711486366E+01 -8.62906774759E-01  2.21954040386E+01  1.71094882031E-07  0.00000000000E+00  1.
       15    1   17   17    0    0 -1.60963778613E+01  3.12676322389E-01  8.30208812082E+00  1.81139673706E+01  2.28126509374E-07  0.00000000000E+00  1.
       16    1   15   15    0    0 -1.58570220919E+01 -6.66126143970E-01  7.33170742197E+00  1.74826430320E+01  0.00000000000E+00  0.00000000000E+00  1.
      -16    1   17   17    0    0 -3.03376270849E+01 -2.62888083854E-01  1.44663482021E+01  3.36112474864E+01  3.22619603494E-07  0.00000000000E+00  1.
</event>
<event>
23  80   1.0000000E+00   2.3570000E+02   7.8125000E-03   1.1298309E-01
       21   -1    0    0  501  510  0.00000000000E+00  0.00000000000E+00  2.43712270733E+02  2.43712270733E+02  0.00000000000E+00  0.00000000000E+00  1.
       21   -1    0    0  510  502  0.00000000000E+00  0.00000000000E+00 -7.15510916442E+02  7.15510916442E+02  0.00000000000E+00  0.00000000000E+00  1.
       25    2    1    2    0    0 -1.27036152229E+02 -6.24196359644E+01  3.50521915834E+01  1.92062622761E+02  1.25000000000E+02  0.00000000000E+00  1.
       -6    2    1    2    0  502  1.69033648832E+02  1.82197739354E+02 -4.54813628933E+02  5.46663497923E+02  1.73830814975E+02  0.00000000000E+00  1.
        6    2    1    2  501    0 -4.19974966036E+01 -1.19778103389E+02 -5.20372083589E+01  2.20497066491E+02  1.72628217580E+02  0.00000000000E+00  1.
       -5    1    4    4    0  502 -1.73990458186E+01  4.23349735088E+00 -4.30095926757E-01  1.85309680730E+01  4.75000000000E+00  0.00000000000E+00  1.
      -24    2    4    4    0    0  1.86432694651E+02  1.77964242003E+02 -4.54383533007E+02  5.28132529850E+02  7.76604980156E+01  0.00000000000E+00  1.
        3    1    7    7  704    0  2.87655016526E+01  1.94822440301E+01 -1.27272510852E+02  1.31929162570E+02  2.33601545599E-06  0.00000000000E+00  1.
       -4    1    7    7    0  704  1.57667192998E+02  1.58481997973E+02 -3.27111022154E+02  3.96203367280E+02  0.00000000000E+00  0.00000000000E+00  1.
        5    1    5    5  501    0  2.68128734257E+01 -6.97763088616E+01 -6.86420382600E+01  1.01597024445E+02  4.75000000000E+00  0.00000000000E+00  1.
       24    2    5    5    0    0 -6.88103700293E+01 -5.00017945277E+01  1.66048299011E+01  1.18900042046E+02  8.14030290765E+01  0.00000000000E+00  1.
       -3    1   11   11    0  703  7.66296341070E+00  2.76019527192E+00  2.43433290727E+01  2.56697751551E+01  1.75201159199E-06  0.00000000000E+00  1.
        4    1   11   11  703    0 -7.64733334400E+01 -5.27619897996E+01 -7.73849917162E+00  9.32302668904E+01  1.40798232687E-06  0.00000000000E+00  1.
      -15    2    3    3    0    0 -4.78233868482E+01 -8.07030645844E+01 -1.72243748094E+01  9.53933806339E+01  1.77680000000E+00  0.00000000000E+00  1.
       15    2    3    3    0    0 -7.92127653808E+01  1.82834286200E+01  5.22765663928E+01  9.66692421271E+01  1.77680000000E+00  0.00000000000E+00  1.
       24    2   14   14    0    0 -3.03503188965E+01 -5.17753396137E+01 -1.07395756411E+01  6.09815513324E+01  1.25835953327E+00  0.00000000000E+00  1.
      -24    2   15   15    0    0 -6.93126273116E+01  1.57150427638E+01  4.55311356318E+01  8.44172963287E+01  1.41164217460E+00  0.00000000000E+00  1.
        4    1   16   16  803    0 -1.47690316146E+01 -2.41314956344E+01 -5.39185387339E+00  2.88014837218E+01  1.14063254687E-07  0.00000000000E+00  1.
      -16    1   14   14    0    0 -1.74730679518E+01 -2.89277249706E+01 -6.48479916834E+00  3.44118293015E+01  4.16500117164E-07  0.00000000000E+00  1.
       -3    1   16   16    0  803 -1.55812872818E+01 -2.76438439793E+01 -5.34772176771E+00  3.21800676105E+01  2.71524856558E-07  0.00000000000E+00  1.
        3    1   17   17  804    0 -5.07818007863E+01  1.19447530347E+01  3.28679979400E+01  6.16585249965E+01  1.34317251871E-06  0.00000000000E+00  1.
       16    1   15   15    0    0 -9.90013806920E+00  2.56838585617E+00  6.74543076099E+00  1.22519457984E+01  2.63417803193E-07  0.00000000000E+00  1.
       -4    1   17   17    0  804 -1.85308265252E+01  3.77028972904E+00  1.26631376919E+01  2.27587713322E+01  4.16500117164E-07  0.00000000000E+00  1.
</event>
<event>
23  80   1.0000000E+00   2.3570000E+02   7.8125000E-03   1.1298309E-01
       21   -1    0    0  501  510  0.00000000000E+00  0.00000000000E+00  3.76069202911E+02  3.76069202911E+02  0.00000000000E+00  0.00000000000E+00  1.
       21   -1    0    0  510  502  0.00000000000E+00  0.00000000000E+00 -6.92373548834E+02  6.92373548834E+02  0.00000000000E+00  0.00000000000E+00  1.
       25    2    1    2    0    0  1.11791466660E+01 -1.55990700129E+01 -2.36568973859E+01  1.28658280337E+02  1.25000000000E+02  0.00000000000E+00  1.
       -6    2    1    2    0  502 -1.38564566345E+02 -2.77038793142E+02  1.32833314735E+02  3.80273206787E+02  1.76103351315E+02  0.00000000000E+00  1.
        6    2    1    2  501    0  1.27385419679E+02  2.92637863155E+02 -4.25480763273E+02  5.59511264621E+02  1.73651983069E+02  0.00000000000E+00  1.
       -5    1    4    4    0  502 -8.21571129530E+01 -2.28570349893E+02  1.11629775311E+02  2.67353633405E+02  4.74999999999E+00  0.00000000000E+00  1.
      -24    2    4    4    0    0 -5.64074533925E+01 -4.84684432498E+01  2.12035394243E+01  1.12919573382E+02  8.22815239252E+01  0.00000000000E+00  1.
        3    1    7    7  704    0 -6.91964209780E+01 -2.60467181483E+01 -7.50111795086E+00  7.43158325862E+01  1.99653318220E-06  0.00000000000E+00  1.
       -4    1    7    7    0  704  1.27889675856E+01 -2.24217251015E+01  2.87046573752E+01  3.86037407962E+01  1.50789149292E-06  0.00000000000E+00  1.
        5    1    5    5  501    0  7.05084395605E+01  2.60250194444E+01 -1.24864013477E+02  1.45816069237E+02  4.75000000000E+00  0.00000000000E+00  1.
       24    2    5    5    0    0  5.68769801189E+01  2.66612843711E+02 -3.00616749796E+02  4.13695195384E+02  8.03485228646E+01  0.00000000000E+00  1.
       -3    1   11   11    0  703 -1.32285836361E+01  2.88409287097E+01 -6.18556123909E+01  6.95191439685E+01  4.47312904341E-06  0.00000000000E+00  1.
        4    1   11   11  703    0  7.01055637550E+01  2.37771915001E+02 -2.38761137405E+02  3.44176051415E+02  7.13664510112E-06  0.00000000000E+00  1.
      -15    2    3    3    0    0 -2.48115664409E+01  4.12989887363E+01  1.56374867201E+01  5.06843990697E+01  1.77680000000E+00  0.00000000000E+00  1.
       15    2    3    3    0    0  3.59907131069E+01 -5.68980587492E+01 -3.92943841060E+01  7.79738812673E+01  1.77680000000E+00  0.00000000000E+00  1.
       24    2   14   14    0    0 -1.99616904834E+01  3.43383259806E+01  1.25051266484E+01  4.16409593247E+01  3.97854956917E-02  0.00000000000E+00  1.
      -24    2   15   15    0    0  1.80943918341E+01 -2.97031082254E+01 -1.95369441727E+01  3.98923886257E+01  1.69789754948E-01  0.00000000000E+00  1.
       16    1   16   16    0    0 -1.18285053063E+01  2.03742386827E+01  7.40241782173E+00  2.46945121290E+01  3.95126704790E-07  0.00000000000E+00  1.
      -16    1   14   14    0    0 -4.84987595752E+00  6.96066275573E+00  3.13236007169E+00  9.04343974498E+00  2.94510057212E-07  0.00000000000E+00  1.
      -15    1   16   16    0    0 -8.13318517710E+00  1.39640872979E+01  5.10270882664E+00  1.69464471957E+01  4.74883198141E-07  0.00000000000E+00  1.
        1    1   17   17  804    0  1.44791989686E+01 -2.36922311492E+01 -1.56602948102E+01  3.18781093094E+01  7.45058059692E-07  0.00000000000E+00  1.
       16    1   15   15    0    0  1.78963212728E+01 -2.71949505238E+01 -1.97574399332E+01  3.80814926415E+01  5.26835606386E-07  0.00000000000E+00  1.
       -2    1   17   17    0  804  3.61519286553E+00 -6.01087707628E+00 -3.87664936247E+00  8.01427931636E+00  2.02977049329E-07  0.00000000000E+00  1.
</event>
<event>
23  80   1.0000000E+00   2.3570000E+02   7.8125000E-03   1.1298309E-01
       21   -1    0    0  501  510  0.00000000000E+00  0.00000000000E+00  2.89167220083E+02  2.89167220083E+02  0.00000000000E+00  0.00000000000E+00  1.
       21   -1    0    0  510  502  0.00000000000E+00  0.00000000000E+00 -6.34678441943E+02  6.34678441943E+02  0.00000000000E+00  0.00000000000E+00  1.
       25    2    1    2    0    0 -1.51131928825E+02  1.66214082094E+02 -2.14061096659E+02  3.34537193896E+02  1.25000000000E+02  0.00000000000E+00  1.
       -6    2    1    2    0  502  2.60965485344E+01 -4.17777580379E+01  1.35315633189E+02  2.25415073179E+02  1.73422096975E+02  0.00000000000E+00  1.
        6    2    1    2  501    0  1.25035380291E+02 -1.24436324056E+02 -2.66765758390E+02  3.63893394951E+02  1.73597776398E+02  0.00000000000E+00  1.
       -5    1    4    4    0  502  2.58815650039E+01 -8.48600241385E+01  6.14986013133E+01  1.08054243634E+02  4.75000000000E+00  0.00000000000E+00  1.
      -24    2    4    4    0    0  2.14983530458E-01  4.30822661006E+01  7.38170318755E+01  1.17360829545E+02  8.04268751498E+01  0.00000000000E+00  1.
       13    1    7    7    0    0  1.56517990195E+01 -1.99467316654E+01  2.88689789380E+01  3.84223896398E+01  1.05659999996E-01  0.00000000000E+00  1.
      -14    1    7    7    0    0 -1.54368154890E+01  6.30289977660E+01  4.49480529376E+01  7.89384399055E+01  1.96604996949E-06  0.00000000000E+00  1.
        5    1    5    5  501    0  1.25484101754E+02 -7.58087599386E+01 -1.21679489357E+02  1.90582497902E+02  4.75000000000E+00  0.00000000000E+00  1.
       24    2    5    5    0    0 -4.48721462602E-01 -4.86275641177E+01 -1.45086269033E+02  1.73310897049E+02  8.13744445825E+01  0.00000000000E+00  1.
      -13    1   11   11    0    0 -1.81182393064E+01 -7.44711470063E+00 -1.20728684010E+02  1.22307630260E+02  1.05660000030E-01  0.00000000000E+00  1.
       14    1   11   11    0    0  1.76695178438E+01 -4.11804494171E+01 -2.43575850225E+01  5.10032667890E+01  1.71926082395E-06  0.00000000000E+00  1.
      -15    2    3    3    0    0 -7.81219061925E+01  5.12151090094E+01 -1.69876244903E+01  9.49618661467E+01  1.77680000000E+00  0.00000000000E+00  1.
       15    2    3    3    0    0 -7.30100226325E+01  1.14998973085E+02 -1.97073472169E+02  2.39575327749E+02  1.77680000001E+00  0.00000000000E+00  1.
       24    2   14   14    0    0 -6.09190792659E+01  3.93380698727E+01 -1.37371801207E+01  7.38060938487E+01  1.06825223043E-01  0.00000000000E+00  1.
      -24    2   15   15    0    0 -3.75991992877E+01  5.89882254028E+01 -1.02137623486E+02  1.23799917446E+02  1.00742492375E+00  0.00000000000E+00  1.
       16    1   16   16    0    0 -4.21953825492E+01  2.73056121768E+01 -9.51506707467E+00  5.11525489713E+01  1.02867940601E-06  0.00000000000E+00  1.
      -16    1   14   14    0    0 -1.72028269267E+01  1.18770391368E+01 -3.25044436957E+00  2.11557722980E+01  3.22619603494E-07  0.00000000000E+00  1.
      -15    1   16   16    0    0 -1.87236967167E+01  1.20324576958E+01 -4.22211304603E+00  2.26535448774E+01  2.55053191215E-07  0.00000000000E+00  1.
        3    1   17   17  804    0 -1.89608839283E+01  2.88166149501E+01 -5.04663243223E+01  6.11290627045E+01  0.00000000000E+00  0.00000000000E+00  1.
       16    1   15   15    0    0 -3.54108233448E+01  5.60107476817E+01 -9.49358486827E+01  1.15775410303E+02  2.58095682795E-06  0.00000000000E+00  1.
       -4    1   17   17    0  804 -1.86383153594E+01  3.01716104527E+01 -5.16712991637E+01  6.26708547414E+01  1.05367121277E-06  0.00000000000E+00  1.
</event>
<event>
23  80   1.0000000E+00   2.3570000E+02   7.8125000E-03   1.1298309E-01
       21   -1    0    0  501  510  0.00000000000E+00  0.00000000000E+00  2.52047543704E+02  2.52047543704E+02  0.00000000000E+00  0.00000000000E+00  1.
       21   -1    0    0  510  502  0.00000000000E+00  0.00000000000E+00 -5.33333314840E+02  5.33333314840E+02  0.00000000000E+00  0.00000000000E+00  1.
       25    2    1    2    0    0 -1.96348762384E+02  6.13720739723E+01 -1.97294783533E+02  3.11238814358E+02  1.25000000000E+02  0.00000000000E+00  1.
       -6    2    1    2    0  502  9.10722303703E+00 -6.69267804133E+01 -1.21618281431E+02  2.13926602142E+02  1.62515996991E+02  0.00000000000E+00  1.
        6    2    1    2  501    0  1.87241539347E+02  5.55470644104E+00  3.76272938279E+01  2.60215442044E+02  1.76652240905E+02  0.00000000000E+00  1.
       -5    1    4    4    0  502  3.78486593379E+01 -2.78474692365E-01 -9.51737515244E+01  1.02533916540E+02  4.75000000000E+00  0.00000000000E+00  1.
      -24    2    4    4    0    0 -2.87414363009E+01 -6.66483057210E+01 -2.64445299070E+01  1.11392685602E+02  8.02555320682E+01  0.00000000000E+00  1.
       13    1    7    7    0    0 -4.74964904784E+01 -1.55977172733E+01 -2.73779326631E+01  5.69979627078E+01  1.05659999996E-01  0.00000000000E+00  1.
      -14    1    7    7    0    0  1.87550541775E+01 -5.10505884477E+01  9.33402756110E-01  5.43947228944E+01  1.64500990885E-06  0.00000000000E+00  1.
        5    1    5    5  501    0  5.17625510375E+01 -6.62169457819E+01  1.83940756282E+01  8.61681502460E+01  4.75000000000E+00  0.00000000000E+00  1.
       24    2    5    5    0    0  1.35478988310E+02  7.17716522230E+01  1.92332181996E+01  1.74047291798E+02  8.01050358198E+01  0.00000000000E+00  1.
      -15    1   11   11    0    0  1.24410319564E+02  4.11966716885E+01 -8.45630547157E+00  1.31338339767E+02  1.77680000000E+00  0.00000000000E+00  1.
       16    1   11   11    0    0  1.10686687459E+01  3.05749805345E+01  2.76895236712E+01  4.27089520315E+01  2.13248059988E-06  0.00000000000E+00  1.
      -15    2    3    3    0    0 -1.67553030311E+02  5.55286807204E+01 -2.13985878218E+02  2.77399649322E+02  1.77680000000E+00  0.00000000000E+00  1.
       15    2    3    3    0    0 -2.87957320728E+01  5.84339325189E+00  1.66910946850E+01  3.38391650359E+01  1.77680000000E+00  0.00000000000E+00  1.
       24    2   14   14    0    0 -3.12913981340E+01  9.64625331039E+00 -3.95926028948E+01  5.13787564237E+01  2.46484448299E-02  0.00000000000E+00  1.
      -24    2   15   15    0    0 -2.12897248318E+01  4.85605207832E+00  1.28556824699E+01  2.53523886070E+01  8.00881459228E-01  0.00000000000E+00  1.
       16    1   16   16    0    0 -9.50742740887E+00  2.94273434964E+00 -1.20337046350E+01  1.56160465109E+01  2.63417803193E-07  0.00000000000E+00  1.
      -16    1   14   14    0    0 -1.36261632177E+02  4.58824274100E+01 -1.74393275323E+02  2.26020892898E+02  4.21468485109E-06  0.00000000000E+00  1.
      -15    1   16   16    0    0 -2.17839707251E+01  6.70351896074E+00 -2.75588982599E+01  3.57627099128E+01  5.26835606386E-07  0.00000000000E+00  1.
       11    1   17   17    0    0 -1.29286337142E+01  2.57335822941E+00  7.91757943555E+00  1.53772496374E+01  5.18538464124E-07  0.00000000000E+00  1.
       16    1   15   15    0    0 -7.50600724098E+00  9.87341173570E-01  3.83541221511E+00  8.48677642892E+00  2.08250058582E-07  0.00000000000E+00  1.
      -12    1   17   17    0    0 -8.36109111756E+00  2.28269384890E+00  4.93810303439E+00  9.97513896957E+00  3.01783005633E-07  0.00000000000E+00  1.
</event>
<event>
23  80   1.0000000E+00   2.3570000E+02   7.8125000E-03   1.1298309E-01
       21   -1    0    0  501  510  0.00000000000E+00  0.00000000000E+00  1.93922715462E+02  1.93922715462E+02  0.00000000000E+00  0.00000000000E+00  1.
       21   -1    0    0  510  502  0.00000000000E+00  0.00000000000E+00 -4.64668254323E+02  4.64668254323E+02  0.00000000000E+00  0.00000000000E+00  1.
       25    2    1    2    0    0 -3.79465173318E+01 -1.28031675148E+02  2.00140379725E+00  1.82923627878E+02  1.25000000000E+02  0.00000000000E+00  1.
       -6    2    1    2    0  502  4.96465334387E+01  9.27455648831E+01 -1.76322926285E+02  2.75579896797E+02  1.83815089416E+02  0.00000000000E+00  1.
        6    2    1    2  501    0 -1.17000161068E+01  3.52861102650E+01 -9.64240163730E+01  2.00087445111E+02  1.71334161226E+02  0.00000000000E+00  1.
       -5    1    4    4    0  502  6.77973324903E+01  9.36335374761E+01 -5.64134297552E+01  1.28719676778E+02  4.75000000000E+00  0.00000000000E+00  1.
      -24    2    4    4    0    0 -1.81507990516E+01 -8.87972592910E-01 -1.19909496530E+02  1.46860220019E+02  8.28214758653E+01  0.00000000000E+00  1.
       13    1    7    7    0    0 -2.56191693159E+01  1.34744039630E+01 -3.30201974385E+00  2.91344451985E+01  1.05659999986E-01  0.00000000000E+00  1.
      -14    1    7    7    0    0  7.46837026432E+00 -1.43623765559E+01 -1.16607476786E+02  1.17725774821E+02  0.00000000000E+00  0.00000000000E+00  1.
        5    1    5    5  501    0 -1.80159410268E-01 -1.62086387482E+01 -1.03290319742E+02  1.04662338403E+02  4.75000000000E+00  0.00000000000E+00  1.
       24    2    5    5    0    0 -1.15198566966E+01  5.14947490132E+01  6.86630336914E+00  9.54251067081E+01  7.92110383346E+01  0.00000000000E+00  1.
       -3    1   11   11    0  703 -4.40727235703E+01  1.62081679999E+01  2.24093137376E-01  4.69591300020E+01  1.09490901946E-06  0.00000000000E+00  1.
        4    1   11   11  703    0  3.25528668737E+01  3.52865810133E+01  6.64221023177E+00  4.84659767060E+01  7.05251667869E-07  0.00000000000E+00  1.
      -15    2    3    3    0    0 -7.25414095405E+01 -7.74117539231E+01 -3.44693046562E+01  1.11562205631E+02  1.77680000000E+00  0.00000000000E+00  1.
       15    2    3    3    0    0  3.45948922087E+01 -5.06199212249E+01  3.64707084535E+01  7.13614222468E+01  1.77680000000E+00  0.00000000000E+00  1.
       24    2   14   14    0    0 -4.58029324436E+01 -4.79459112879E+01 -2.09581333021E+01  6.95415703311E+01  2.60044121539E-01  0.00000000000E+00  1.
      -24    2   15   15    0    0  3.23729608623E+01 -4.65618038325E+01  3.38348031942E+01  6.60366412921E+01  1.84159810064E-01  0.00000000000E+00  1.
       16    1   16   16    0    0 -1.33990762600E+00 -1.35354950299E+00 -5.73543540355E-01  1.98907035973E+00  1.42579068359E-08  0.00000000000E+00  1.
      -16    1   14   14    0    0 -2.67384770969E+01 -2.94658426352E+01 -1.35111713542E+01  4.20206353001E+01  7.90253409579E-07  0.00000000000E+00  1.
      -15    1   16   16    0    0 -4.44630248176E+01 -4.65923617849E+01 -2.03845897617E+01  6.75524999713E+01  3.72529029846E-07  0.00000000000E+00  1.
       15    1   17   17    0    0  2.48341472887E+01 -3.58535848736E+01  2.60097782569E+01  5.07811282350E+01  9.85619169125E-07  0.00000000000E+00  1.
       16    1   15   15    0    0  2.22193134648E+00 -4.05811739242E+00  2.63590525930E+00  5.32478095466E+00  1.35762428279E-07  0.00000000000E+00  1.
      -16    1   17   17    0    0  7.53881357355E+00 -1.07082189589E+01  7.82502493723E+00  1.52555130571E+01  1.31708901597E-07  0.00000000000E+00  1.
</event>
<event>
23  80   1.0000000E+00   2.3570000E+02   7.8125000E-03   1.1298309E-01
       21   -1    0    0  501  510  0.00000000000E+00  0.00000000000E+00  2.80970900370E+02  2.80970900370E+02  0.00000000000E+00  0.00000000000E+00  1.
       21   -1    0    0  510  502  0.00000000000E+00  0.00000000000E+00 -2.81411989246E+02  2.81411989246E+02  0.00000000000E+00  0.00000000000E+00  1.
       25    2    1    2    0    0 -7.67211984306E+01  7.64131352813E+00  4.34406383255E+01  1.53155545179E+02  1.25000000000E+02  0.00000000000E+00  1.
       -6    2    1    2    0  502  2.75206821161E+01  9.80113394230E+01 -5.50053076192E-01  1.97877670074E+02  1.69681051258E+02  0.00000000000E+00  1.
        6    2    1    2  501    0  4.92005163145E+01 -1.05652652951E+02 -4.33316741257E+01  2.11349674362E+02  1.70903121648E+02  0.00000000000E+00  1.
       -5    1    4    4    0  502 -4.36355515199E+01  3.50461803386E+01 -3.81649595921E+01  6.79074572741E+01  4.75000000000E+00  0.00000000000E+00  1.
      -24    2    4    4    0    0  7.11562336360E+01  6.29651590844E+01  3.76149065159E+01  1.29970212800E+02  8.03091164146E+01  0.00000000000E+00  1.
        1    1    7    7  704    0 -8.21022499573E+00 -1.11834302273E+01  1.20777281692E+01  1.83942497499E+01  3.37174788087E-07  0.00000000000E+00  1.
       -2    1    7    7    0  704  7.93664586317E+01  7.41485893117E+01  2.55371783466E+01  1.11575963050E+02  1.90734863281E-06  0.00000000000E+00  1.
        5    1    5    5  501    0  6.49727930882E+01 -6.13060417563E+01  2.78697676393E+01  9.36972840896E+01  4.75000000000E+00  0.00000000000E+00  1.
       24    2    5    5    0    0 -1.57722767736E+01 -4.43466111949E+01 -7.12014417649E+01  1.17652390272E+02  8.09756320648E+01  0.00000000000E+00  1.
       -3    1   11   11    0  703 -2.46193158676E+01 -6.17971890020E+01 -7.20585472353E+01  9.80685347704E+01  9.53674316406E-07  0.00000000000E+00  1.
        4    1   11   11  703    0  8.84703909403E+00  1.74505778072E+01  8.57105470370E-01  1.95838555020E+01  8.11121547237E-07  0.00000000000E+00  1.
      -15    2    3    3    0    0 -1.03223956815E+02  9.10518774084E+00  1.69470961067E+00  1.03653841045E+02  1.77680000000E+00  0.00000000000E+00  1.
       15    2    3    3    0    0  2.65027583847E+01 -1.46387421271E+00  4.17459287148E+01  4.95017041344E+01  1.77680000000E+00  0.00000000000E+00  1.
       24    2   14   14    0    0 -4.55693754699E+01  4.25915910548E+00  4.75376647352E-01  4.57831099578E+01  1.07645596753E+00  0.00000000000E+00  1.
      -24    2   15   15    0    0  2.48283223299E+01 -1.52860435636E+00  3.89457446811E+01  4.62384302085E+01  1.56178691937E+00  0.00000000000E+00  1.
        2    1   16   16  803    0 -1.39645348570E+01  9.58415385226E-01  5.01456065089E-01  1.40063646964E+01  2.11799114461E-07  0.00000000000E+00  1.
      -16    1   14   14    0    0 -5.76545813454E+01  4.84602863536E+00  1.21933296332E+00  5.78707310868E+01  9.65194652238E-07  0.00000000000E+00  1.
       -1    1   16   16    0  803 -3.16048406128E+01  3.30074372026E+00 -2.60794177370E-02  3.17767452614E+01  4.32006881475E-07  0.00000000000E+00  1.
       15    1   17   17    0    0  2.23423668843E+01 -1.80775495875E+00  3.46888675380E+01  4.13009305834E+01  1.29047841398E-06  0.00000000000E+00  1.
       16    1   15   15    0    0  1.67443605473E+00  6.47301436510E-02  2.80018403373E+00  3.26327392593E+00  8.06549008735E-08  0.00000000000E+00  1.
      -16    1   17   17    0    0  2.48595544563E+00  2.79150602385E-01  4.25687714309E+00  4.93749962510E+00  0.00000000000E+00  0.00000000000E+00  1.
</event>
<event>
23  80   1.0000000E+00   2.3570000E+02   7.8125000E-03   1.1298309E-01
       21   -1    0    0  501  510  0.00000000000E+00  0.00000000000E+00  2.64833111803E+02  2.64833111803E+02  0.00000000000E+00  0.00000000000E+00  1.
       21   -1    0    0  510  502  0.00000000000E+00  0.00000000000E+00 -4.31359672531E+02  4.31359672531E+02  0.00000000000E+00  0.00000000000E+00  1.
       25    2    1    2    0    0  1.14278050940E+01 -6.14242034084E+01 -5.50285561146E+01  1.50188779480E+02  1.25000000000E+02  0.00000000000E+00  1.
       -6    2    1    2    0  502  1.48775537015E+02  1.50270878059E+02 -1.09618529078E+02  2.93891464409E+02  1.72164089542E+02  0.00000000000E+00  1.
        6    2    1    2  501    0 -1.60203342109E+02 -8.88466746510E+01 -1.87947553510E+00  2.52112540445E+02  1.73200341230E+02  0.00000000000E+00  1.
       -5    1    4    4    0  502  2.52048514364E+01 -5.97990310386E+00 -7.53406334656E+01  7.98111353638E+01  4.75000000000E+00  0.00000000000E+00  1.
      -24    2    4    4    0    0  1.23570685579E+02  1.56250781163E+02 -3.42778956127E+01  2.14080329045E+02  7.05081002986E+01  0.00000000000E+00  1.
        1    1    7    7  704    0  2.96925843974E+01  3.83459431619E+01 -4.05782199497E+01  6.32349022254E+01  1.65181236989E-06  0.00000000000E+00  1.
       -2    1    7    7    0  704  9.38781011815E+01  1.17904838001E+02  6.30032433701E+00  1.50845426819E+02  2.11407516610E-06  0.00000000000E+00  1.
        5    1    5    5  501    0 -8.91647302191E+01 -1.09637463810E+02 -5.36261419844E+00  1.41499267549E+02  4.75000000000E+00  0.00000000000E+00  1.
       24    2    5    5    0    0 -7.10386118902E+01  2.07907891595E+01  3.48313866334E+00  1.10613272897E+02  8.21244335919E+01  0.00000000000E+00  1.
      -15    1   11   11    0    0  1.65902099278E+01  6.09734759461E+00  1.18716637047E+01  2.13660040835E+01  1.77680000000E+00  0.00000000000E+00  1.
       16    1   11   11    0    0 -8.76288218180E+01  1.46934415649E+01 -8.38852504139E+00  8.92472688131E+01  1.14961275589E-06  0.00000000000E+00  1.
      -15    2    3    3    0    0 -9.24536755334E+00 -5.43469025295E+00 -8.33824419868E+01  8.40880569954E+01  1.77680000000E+00  0.00000000000E+00  1.
       15    2    3    3    0    0  2.06731726473E+01 -5.59895131555E+01  2.83538858722E+01  6.61007224846E+01  1.77680000000E+00  0.00000000000E+00  1.
       24    2   14   14    0    0 -3.71288658741E-01  7.00005734990E-02 -4.78681045376E+00  4.80171395073E+00  1.21324349886E-02  0.00000000000E+00  1.
      -24    2   15   15    0    0  1.51591062328E+01 -4.30650748477E+01  2.15991828094E+01  5.05099544644E+01  5.75871982219E-01  0.00000000000E+00  1.
       16    1   16   16    0    0 -1.07609233187E-01  2.59011564450E-02 -1.40428681243E+00  1.40864192346E+00  1.64636126996E-08  0.00000000000E+00  1.
      -16    1   14   14    0    0 -8.87407889460E+00 -5.50469082645E+00 -7.85956315330E+01  7.92863430447E+01  0.00000000000E+00  0.00000000000E+00  1.
      -15    1   16   16    0    0 -2.63679425554E-01  4.40994170540E-02 -3.38252364134E+00  3.39307202727E+00  6.58544507983E-08  0.00000000000E+00  1.
        3    1   17   17  804    0  9.96976847389E+00 -2.90686565953E+01  1.44180840453E+01  3.39450177083E+01  9.49766396283E-07  0.00000000000E+00  1.
       16    1   15   15    0    0  5.51406641455E+00 -1.29244383077E+01  6.75470306283E+00  1.55907680202E+01  2.63417803193E-07  0.00000000000E+00  1.
       -4    1   17   17    0  804  5.18933775891E+00 -1.39964182524E+01  7.18109876404E+00  1.65649367560E+01  4.05954098659E-07  0.00000000000E+00  1.
</event>
<event>
23  80   1.0000000E+00   2.3570000E+02   7.8125000E-03   1.1298309E-01
       21   -1    0    0  501  510  0.00000000000E+00  0.00000000000E+00  5.24366413608E+02  5.24366413608E+02  0.00000000000E+00  0.00000000000E+00  1.
       21   -1    0    0  510  502  0.00000000000E+00  0.00000000000E+00 -4.25389978889E+02  4.25389978889E+02  0.00000000000E+00  0.00000000000E+00  1.
       25    2    1    2    0    0  1.56051214297E+02 -1.77877476643E+00  2.79175151478E+01  2.01889903599E+02  1.25000000000E+02  0.00000000000E+00  1.
       -6    2    1    2    0  502 -2.25285717718E+02  2.80531135287E+02 -1.91448695035E+01  3.99775115094E+02  1.73211558932E+02  0.00000000000E+00  1.
        6    2    1    2  501    0  6.92345034207E+01 -2.78752360520E+02  9.02037890747E+01  3.48091373803E+02  1.74741483321E+02  0.00000000000E+00  1.
       -5    1    4    4    0  502 -2.38743759622E+01  7.14181863783E+00  3.92536924800E+01  4.67376323144E+01  4.75000000000E+00  0.00000000000E+00  1.
      -24    2    4    4    0    0 -2.01411341755E+02  2.73389316649E+02 -5.83985619835E+01  3.53037482780E+02  7.69209019744E+01  0.00000000000E+00  1.
        1    1    7    7  704    0 -1.34153909134E+02  1.74264856211E+02 -3.42160972498E-01  2.19921869127E+02  3.18725745183E-06  0.00000000000E+00  1.
       -4    1    7    7    0  704 -6.72574326218E+01  9.91244604379E+01 -5.80564010110E+01  1.33115613653E+02  1.90734863281E-06  0.00000000000E+00  1.
        5    1    5    5  501    0  1.72833315311E+01 -1.96316397564E+02  7.49212013701E+00  1.97275279407E+02  4.75000000000E+00  0.00000000000E+00  1.
       24    2    5    5    0    0  5.19511718895E+01 -8.24359629566E+01  8.27116689377E+01  1.50816094396E+02  8.00603641075E+01  0.00000000000E+00  1.
       -1    1   11   11    0  703 -1.58820491429E+01 -3.71752375162E+01  4.64284796891E+01  6.15616885376E+01  1.16800772800E-06  0.00000000000E+00  1.
        2    1   11   11  703    0  6.78332210324E+01 -4.52607254404E+01  3.62831892486E+01  8.92544058581E+01  1.43051147461E-06  0.00000000000E+00  1.
      -15    2    3    3    0    0  1.62004979547E+02 -1.69630893094E+01  5.35328541919E+01  1.71470940083E+02  1.77680000000E+00  0.00000000000E+00  1.
       15    2    3    3    0    0 -5.95376524972E+00  1.51843145430E+01 -2.56153390441E+01  3.04189635158E+01  1.77680000000E+00  0.00000000000E+00  1.
       24    2   14   14    0    0  1.30714059968E+01 -1.23999437593E+00  3.82755957166E+00  1.36766393055E+01  3.17747279953E-02  0.00000000000E+00  1.
      -24    2   15   15    0    0 -5.76075912776E+00  1.47050039826E+01 -2.52444636492E+01  2.97829300772E+01  5.62575498222E-01  0.00000000000E+00  1.
       16    1   16   16    0    0  6.34075392055E+00 -5.96338238575E-01  1.87220303050E+00  6.63821691143E+00  7.36275143029E-08  0.00000000000E+00  1.
      -16    1   14   14    0    0  1.48933573550E+02 -1.57230949335E+01  4.97052946203E+01  1.57794300778E+02  1.29047841398E-06  0.00000000000E+00  1.
      -15    1   16   16    0    0  6.73065207624E+00 -6.43656137359E-01  1.95535654116E+00  7.03842239409E+00  2.32830643654E-08  0.00000000000E+00  1.
       15    1   17   17    0    0 -2.42335293039E+00  5.51863920898E+00 -9.39606851059E+00  1.11630695420E+01  1.31708901597E-07  0.00000000000E+00  1.
       16    1   15   15    0    0 -1.93006121959E-01  4.79310560434E-01 -3.70875394896E-01  6.36033438584E-01  5.79158913523E-08  0.00000000000E+00  1.
      -16    1   17   17    0    0 -3.33740619737E+00  9.18636477357E+00 -1.58483951386E+01  1.86198605352E+01  0.00000000000E+00  0.00000000000E+00  1.
</event>
<event>
23  80   1.0000000E+00   2.3570000E+02   7.8125000E-03   1.1298309E-01
       21   -1    0    0  501  510  0.00000000000E+00  0.00000000000E+00  8.49734890635E+02  8.49734890635E+02  0.00000000000E+00  0.00000000000E+00  1.
       21   -1    0    0  510  502  0.00000000000E+00  0.00000000000E+00 -7.14039859091E+01  7.14039859091E+01  0.00000000000E+00  0.00000000000E+00  1.
       25    2    1    2    0    0  4.33741853310E+01 -1.48696234197E+01  2.12981258679E+02  2.51174127255E+02  1.25000000000E+02  0.00000000000E+00  1.
       -6    2    1    2    0  502 -1.68440767597E+01  3.60108202040E+01  2.12456899307E+02  2.76427778444E+02  1.72319124123E+02  0.00000000000E+00  1.
        6    2    1    2  501    0 -2.65301085712E+01 -2.11411967843E+01  3.52892746740E+02  3.93536970846E+02  1.70842792819E+02  0.00000000000E+00  1.
       -5    1    4    4    0  502 -1.40801586618E+00  5.26734138843E+01  5.39619803228E+00  5.31803769459E+01  4.75000000000E+00  0.00000000000E+00  1.
      -24    2    4    4    0    0 -1.54360608935E+01 -1.66625936803E+01  2.07060701275E+02  2.23247401498E+02  8.03078717128E+01  0.00000000000E+00  1.
       11    1    7    7    0    0  2.77277078769E+01 -2.71371141596E+01  8.80680440691E+01  9.62352800975E+01  5.11004827101E-04  0.00000000000E+00  1.
      -12    1    7    7    0    0 -4.31637687705E+01  1.04745204793E+01  1.18992657205E+02  1.27012121400E+02  1.90734863281E-06  0.00000000000E+00  1.
        5    1    5    5  501    0 -6.49606166535E+01 -3.27942305461E+01  9.19522988374E+01  1.17358983613E+02  4.75000000000E+00  0.00000000000E+00  1.
       24    2    5    5    0    0  3.84305080823E+01  1.16530337618E+01  2.60940447903E+02  2.76177987233E+02  8.10658135906E+01  0.00000000000E+00  1.
       -3    1   11   11    0  703  5.89283135782E+01 -7.82375322677E+00  1.42358106950E+02  1.54271150479E+02  0.00000000000E+00  0.00000000000E+00  1.
        4    1   11   11  703    0 -2.04978054960E+01  1.94767869886E+01  1.18582340952E+02  1.21906836754E+02  3.01578298585E-06  0.00000000000E+00  1.
      -15    2    3    3    0    0  7.62065396373E+01  1.06364169851E+01  1.86736595247E+02  2.01975946767E+02  1.77679999999E+00  0.00000000000E+00  1.
       15    2    3    3    0    0 -3.28323543063E+01 -2.55060404048E+01  2.62446634321E+01  4.91981804880E+01  1.77680000000E+00  0.00000000000E+00  1.
       24    2   14   14    0    0  1.15641050687E+01  1.66296545129E+00  2.82178401865E+01  3.05485193077E+01  6.86692779743E-01  0.00000000000E+00  1.
      -24    2   15   15    0    0 -2.78912568607E+01 -2.14425295883E+01  2.29199925764E+01  4.19884647917E+01  2.88348190326E-02  0.00000000000E+00  1.
        2    1   16   16  803    0  1.07832463708E+01  1.68809118902E+00  2.60460966164E+01  2.82405241295E+01  3.72529029846E-07  0.00000000000E+00  1.
      -16    1   14   14    0    0  6.46424345686E+01  8.97345153381E+00  1.58518755060E+02  1.71427427459E+02  2.10734242554E-06  0.00000000000E+00  1.
       -1    1   16   16    0  803  7.80858697862E-01 -2.51257377328E-02  2.17174357011E+00  2.30799517830E+00  4.03274504367E-08  0.00000000000E+00  1.
       15    1   17   17    0    0 -1.05421817104E+01 -8.09122470264E+00  8.64708062733E+00  1.58548893336E+01  2.08250058582E-07  0.00000000000E+00  1.
       16    1   15   15    0    0 -4.94109744564E+00 -4.06351081648E+00  3.32467085566E+00  7.20971569630E+00  2.94510057212E-07  0.00000000000E+00  1.
      -16    1   17   17    0    0 -1.73490751503E+01 -1.33513048857E+01  1.42729119491E+01  2.61335754582E+01  7.67988269332E-07  0.00000000000E+00  1.
</event>
<event>
23  80   1.0000000E+00   2.3570000E+02   7.8125000E-03   1.1298309E-01
       21   -1    0    0  501  510  0.00000000000E+00  0.00000000000E+00  5.53255112932E+02  5.53255112932E+02  0.00000000000E+00  0.00000000000E+00  1.
       21   -1    0    0  510  502  0.00000000000E+00  0.00000000000E+00 -1.75851105711E+02  1.75851105711E+02  0.00000000000E+00  0.00000000000E+00  1.
       25    2    1    2    0    0 -2.62802307454E+01 -1.22403519409E+02  1.34058112794E+02  2.21968127662E+02  1.25000000000E+02  0.00000000000E+00  1.
       -6    2    1    2    0  502  1.04861328262E+02  6.89084120537E+01  2.65558724139E+01  2.14997577630E+02  1.72552822668E+02  0.00000000000E+00  1.
        6    2    1    2  501    0 -7.85810975169E+01  5.34951073555E+01  2.16790022013E+02  2.92140513351E+02  1.71205871683E+02  0.00000000000E+00  1.
       -5    1    4    4    0  502 -3.14674115282E+01  3.13043548529E+01 -1.69058838960E+01  4.77339714601E+01  4.75000000000E+00  0.00000000000E+00  1.
      -24    2    4    4    0    0  1.36328739791E+02  3.76040572008E+01  4.34617563099E+01  1.67263606170E+02  7.80294769735E+01  0.00000000000E+00  1.
       11    1    7    7    0    0 -6.70383032435E+00  1.44921858602E+01 -1.03147264185E-01  1.59679501391E+01  5.11007530484E-04  0.00000000000E+00  1.
      -12    1    7    7    0    0  1.43032570115E+02  2.31118713406E+01  4.35649035741E+01  1.51295656031E+02  1.65181236989E-06  0.00000000000E+00  1.
        5    1    5    5  501    0 -5.06325120544E+00  3.05530903002E+01 -1.48542251286E+01  3.46747508114E+01  4.75000000000E+00  0.00000000000E+00  1.
       24    2    5    5    0    0 -7.35178463115E+01  2.29420170552E+01  2.31644247141E+02  2.57465762540E+02  8.18434589542E+01  0.00000000000E+00  1.
      -13    1   11   11    0    0 -4.41303161632E+01  5.36088088014E+01  1.54917694138E+02  1.69767170875E+02  1.05660000004E-01  0.00000000000E+00  1.
       14    1   11   11    0    0 -2.93875301482E+01 -3.06667917462E+01  7.67265530038E+01  8.76985916652E+01  1.34869915235E-06  0.00000000000E+00  1.
      -15    2    3    3    0    0 -6.54908638023E+01 -5.90060297428E+01  2.83650847355E+01  9.26201913077E+01  1.77680000000E+00  0.00000000000E+00  1.
       15    2    3    3    0    0  3.92106330569E+01 -6.33974896662E+01  1.05693028059E+02  1.29347936354E+02  1.77680000000E+00  0.00000000000E+00  1.
       24    2   14   14    0    0 -5.35954261591E+01 -4.84331875699E+01  2.26685983878E+01  7.57164525188E+01  9.34058774493E-01  0.00000000000E+00  1.
      -24    2   15   15    0    0  1.27804262910E+01 -1.93768266489E+01  3.35884559639E+01  4.08298934528E+01  3.08412328208E-01  0.00000000000E+00  1.
        4    1   16   16  803    0 -2.93124742489E+01 -2.69293868252E+01  1.28366410725E+01  4.18233472524E+01  8.33000234328E-07  0.00000000000E+00  1.
      -16    1   14   14    0    0 -1.18954376432E+01 -1.05728421729E+01  5.69648634763E+00  1.69037387889E+01  3.42189764061E-07  0.00000000000E+00  1.
       -3    1   16   16    0  803 -2.42829519102E+01 -2.15038007447E+01  9.83195731530E+00  3.38931052663E+01  5.58793544769E-07  0.00000000000E+00  1.
        3    1   17   17  804    0  2.23597164159E+00 -3.18126118096E+00  5.63851993653E+00  6.84929915817E+00  9.31322574615E-08  0.00000000000E+00  1.
       16    1   15   15    0    0  2.64302067659E+01 -4.40206630172E+01  7.21045720947E+01  8.85180429015E+01  1.05367121277E-06  0.00000000000E+00  1.
       -4    1   17   17    0  804  1.05444546494E+01 -1.61955654680E+01  2.79499360274E+01  3.39805942946E+01  3.72529029846E-07  0.00000000000E+00  1.
</event>
<event>
23  80   1.0000000E+00   2.3570000E+02   7.8125000E-03   1.1298309E-01
       21   -1    0    0  501  510  0.00000000000E+00  0.00000000000E+00  6.67622011856E+02  6.67622011856E+02  0.00000000000E+00  0.00000000000E+00  1.
       21   -1    0    0  510  502  0.00000000000E+00  0.00000000000E+00 -6.15524313646E+02  6.15524313646E+02  0.00000000000E+00  0.00000000000E+00  1.
       25    2    1    2    0    0  1.18774230858E+02 -2.28584027201E+02  2.00995168614E+02  3.49831435428E+02  1.25000000000E+02  0.00000000000E+00  1.
       -6    2    1    2    0  502  4.81309894612E+01  3.25767094052E+02 -4.13051835385E+02  5.58046221486E+02  1.79897123063E+02  0.00000000000E+00  1.
        6    2    1    2  501    0 -1.66905220319E+02 -9.71830668509E+01  2.64154364981E+02  3.75268668589E+02  1.83703957589E+02  0.00000000000E+00  1.
       -5    1    4    4    0  502 -1.68165650473E+01  1.79489234967E+02 -1.27608851482E+02  2.20920265720E+02  4.75000000000E+00  0.00000000000E+00  1.
      -24    2    4    4    0    0  6.49475545085E+01  1.46277859085E+02 -2.85442983902E+02  3.37125955766E+02  8.09988647889E+01  0.00000000000E+00  1.
        1    1    7    7  704    0 -3.16502868156E+00  8.72232107592E+01 -1.15692669766E+02  1.44923082148E+02  1.90734863281E-06  0.00000000000E+00  1.
       -2    1    7    7    0  704  6.81125831901E+01  5.90546483256E+01 -1.69750314136E+02  1.92202873618E+02  1.90734863281E-06  0.00000000000E+00  1.
        5    1    5    5  501    0 -1.12807001849E+02 -6.66104477911E+01  2.33734770741E+02  2.67986710444E+02  4.75000000000E+00  0.00000000000E+00  1.
       24    2    5    5    0    0 -5.40982184695E+01 -3.05726190598E+01  3.04195942396E+01  1.07281958145E+02  8.19924664339E+01  0.00000000000E+00  1.
      -15    1   11   11    0    0 -4.33378299292E+01 -4.56243331085E+01 -9.13774145990E+00  6.36113402766E+01  1.77680000000E+00  0.00000000000E+00  1.
       16    1   11   11    0    0 -1.07603885403E+01  1.50517140487E+01  3.95573356995E+01  4.36706178681E+01  6.74349576174E-07  0.00000000000E+00  1.
      -15    2    3    3    0    0  3.69850212226E+01 -7.20480413206E+01 -1.64250339930E+00  8.10226319532E+01  1.77680000000E+00  0.00000000000E+00  1.
       15    2    3    3    0    0  8.17892096354E+01 -1.56535985880E+02  2.02637672013E+02  2.68808803475E+02  1.77680000000E+00  0.00000000000E+00  1.
       24    2   14   14    0    0  7.23587672606E+00 -1.42800045003E+01 -9.87931147091E-01  1.60412027509E+01  2.60263750344E-01  0.00000000000E+00  1.
      -24    2   15   15    0    0  3.13104088231E+01 -5.82830641637E+01  7.59182394299E+01  1.00703001815E+02  5.08160897545E-01  0.00000000000E+00  1.
       16    1   16   16    0    0  1.76855061888E+00 -3.53116094542E+00 -3.54660004065E-01  3.96518002523E+00  7.94912937781E-08  0.00000000000E+00  1.
      -16    1   14   14    0    0  2.97491444966E+01 -5.77680368203E+01 -6.54572252213E-01  6.49814292023E+01  8.66180064051E-07  0.00000000000E+00  1.
      -15    1   16   16    0    0  5.46732610718E+00 -1.07488435549E+01 -6.33271143026E-01  1.20760227256E+01  7.89567127722E-08  0.00000000000E+00  1.
       15    1   17   17    0    0  1.95168378871E+01 -3.67789661783E+01  4.75891025716E+01  6.32322860399E+01  5.26835606386E-07  0.00000000000E+00  1.
       16    1   15   15    0    0  5.04788008123E+01 -9.82529217167E+01  1.26719432583E+02  1.68105801660E+02  2.10734242554E-06  0.00000000000E+00  1.
      -16    1   17   17    0    0  1.17935709359E+01 -2.15040979854E+01  2.83291368583E+01  3.74707157754E+01  3.72529029846E-07  0.00000000000E+00  1.
</event>
<event>
23  80   1.0000000E+00   2.3570000E+02   7.8125000E-03   1.1298309E-01
       21   -1    0    0  501  510  0.00000000000E+00  0.00000000000E+00  4.48801115644E+02  4.48801115644E+02  0.00000000000E+00  0.00000000000E+00  1.
       21   -1    0    0  510  502  0.00000000000E+00  0.00000000000E+00 -2.78057128299E+02  2.78057128299E+02  0.00000000000E+00  0.00000000000E+00  1.
       25    2    1    2    0    0 -5.30773458982E+01  6.37948649073E+01  9.86754316576E+01  1.79579593075E+02  1.25000000000E+02  0.00000000000E+00  1.
       -6    2    1    2    0  502  5.34710540508E+01  9.70476809746E+01  1.91411111204E+02  2.81950478564E+02  1.74872676157E+02  0.00000000000E+00  1.
        6    2    1    2  501    0 -3.93708152667E-01 -1.60842545882E+02 -1.19342555516E+02  2.65328172304E+02  1.74028485856E+02  0.00000000000E+00  1.
       -5    1    4    4    0  502 -3.56863936578E+01  8.82538086751E+00  9.76135455369E+01  1.04414428179E+02  4.75000000000E+00  0.00000000000E+00  1.
      -24    2    4    4    0    0  8.91574477086E+01  8.82223001071E+01  9.37975656671E+01  1.77536050385E+02  8.35992891297E+01  0.00000000000E+00  1.
       11    1    7    7    0    0  5.32445938248E+01  5.76828781829E+01  1.02999979608E+02  1.29504042433E+02  5.11003937192E-04  0.00000000000E+00  1.
      -12    1    7    7    0    0  3.59128538838E+01  3.05394219242E+01 -9.20241394048E+00  4.80320079517E+01  3.03691368171E-06  0.00000000000E+00  1.
        5    1    5    5  501    0  1.00056188656E+01 -4.88779884896E+00  3.16405643295E+01  3.38775854742E+01  4.75000000000E+00  0.00000000000E+00  1.
       24    2    5    5    0    0 -1.03993270182E+01 -1.55954747033E+02 -1.50983119846E+02  2.31450586830E+02  7.96457314686E+01  0.00000000000E+00  1.
       -3    1   11   11    0  703 -2.11610102909E+01 -2.50055785109E+01 -6.95307080339E+01  7.68608266472E+01  9.53674316406E-07  0.00000000000E+00  1.
        4    1   11   11  703    0  1.07616832726E+01 -1.30949168522E+02 -8.14524118116E+01  1.54589760183E+02  3.56832255056E-06  0.00000000000E+00  1.
      -15    2    3    3    0    0  3.42646762374E+01  5.11866014970E+01  4.45689085891E+01  7.60505150642E+01  1.77680000000E+00  0.00000000000E+00  1.
       15    2    3    3    0    0 -8.73420221356E+01  1.26082634103E+01  5.41065230685E+01  1.03529078011E+02  1.77680000000E+00  0.00000000000E+00  1.
       24    2   14   14    0    0  1.64352686879E+01  2.36709286943E+01  2.17607624241E+01  3.61104154795E+01  2.00681386528E-02  0.00000000000E+00  1.
      -24    2   15   15    0    0 -7.68029254738E+01  1.15076596897E+01  4.80423346965E+01  9.13201358941E+01  4.30933595474E-01  0.00000000000E+00  1.
       16    1   16   16    0    0  1.30361493089E+01  1.87726922663E+01  1.72685955424E+01  2.86454107273E+01  7.21399364287E-07  0.00000000000E+00  1.
      -16    1   14   14    0    0  1.78294075495E+01  2.75156728027E+01  2.28081461650E+01  3.99400995847E+01  6.45239206988E-07  0.00000000000E+00  1.
      -15    1   16   16    0    0  3.39911937902E+00  4.89823642799E+00  4.49216688170E+00  7.46500475219E+00  0.00000000000E+00  0.00000000000E+00  1.
       15    1   17   17    0    0 -5.34437610623E+00  7.97729919069E-01  3.47229884374E+00  6.42305131918E+00  1.14063254687E-07  0.00000000000E+00  1.
       16    1   15   15    0    0 -1.05390966618E+01  1.10060372067E+00  6.06418837199E+00  1.22089421167E+01  9.31322574615E-08  0.00000000000E+00  1.
      -16    1   17   17    0    0 -7.14585493676E+01  1.07099297706E+01  4.45700358528E+01  8.48970845749E+01  1.49011611938E-06  0.00000000000E+00  1.
</event>
<event>
23  80   1.0000000E+00   2.3570000E+02   7.8125000E-03   1.1298309E-01
       21   -1    0    0  501  510  0.00000000000E+00  0.00000000000E+00  1.07557715689E+03  1.07557715689E+03  0.00000000000E+00  0.00000000000E+00  1.
       21   -1    0    0  510  502  0.00000000000E+00  0.00000000000E+00 -1.04248727513E+02  1.04248727513E+02  0.00000000000E+00  0.00000000000E+00  1.
       25    2    1    2    0    0 -4.84614466055E+01 -2.50343856619E+01  3.31824894097E+01  1.40361354639E+02  1.25000000000E+02  0.00000000000E+00  1.
       -6    2    1    2    0  502  5.97242579988E+01  1.44138865454E+02  4.84146716055E+02  5.37313455422E+02  1.73103169187E+02  0.00000000000E+00  1.
        6    2    1    2  501    0 -1.12628113932E+01 -1.19104479792E+02  4.53999223914E+02  5.02151074345E+02  1.78122649104E+02  0.00000000000E+00  1.
       -5    1    4    4    0  502 -7.26003064225E+00  7.92983248199E+01  7.29126701257E+01  1.08072902844E+02  4.75000000000E+00  0.00000000000E+00  1.
      -24    2    4    4    0    0  6.69842886410E+01  6.48405406344E+01  4.11234045929E+02  4.29240552578E+02  8.02671839045E+01  0.00000000000E+00  1.
        3    1    7    7  704    0  2.02675261194E+01 -1.13954403473E+01  3.16773096762E+01  3.92947913092E+01  1.65181236989E-06  0.00000000000E+00  1.
       -4    1    7    7    0  704  4.67167625216E+01  7.62359809817E+01  3.79556736253E+02  3.89945761269E+02  5.39479660939E-06  0.00000000000E+00  1.
        5    1    5    5  501    0 -2.14705210288E+01 -1.29761104453E+00  2.59606474548E+02  2.60539346731E+02  4.75000000000E+00  0.00000000000E+00  1.
       24    2    5    5    0    0  1.02077096356E+01 -1.17806868748E+02  1.94392749366E+02  2.41611727614E+02  8.12713372247E+01  0.00000000000E+00  1.
       -3    1   11   11    0  703 -2.94044630159E+01 -7.00636724994E+01  1.39147618839E+02  1.58542109479E+02  0.00000000000E+00  0.00000000000E+00  1.
        4    1   11   11  703    0  3.96121726515E+01 -4.77431962485E+01  5.52451305272E+01  8.30696181354E+01  0.00000000000E+00  0.00000000000E+00  1.
      -15    2    3    3    0    0 -2.57217033768E+01 -6.29893465908E+01 -2.02068520005E+01  7.09981527545E+01  1.77680000000E+00  0.00000000000E+00  1.
       15    2    3    3    0    0 -2.27397432287E+01  3.79549609289E+01  5.33893414102E+01  6.93632018845E+01  1.77680000000E+00  0.00000000000E+00  1.
       24    2   14   14    0    0 -1.45848845446E+01 -3.53207992476E+01 -1.22471164543E+01  4.01285133696E+01  1.67353353906E-01  0.00000000000E+00  1.
      -24    2   15   15    0    0 -2.07128278008E+01  3.36816488887E+01  4.81413541732E+01  6.22984335243E+01  1.73581623863E-01  0.00000000000E+00  1.
       16    1   16   16    0    0 -8.40310165514E+00 -2.04453379288E+01 -7.16231957687E+00  2.32362385547E+01  3.60699682143E-07  0.00000000000E+00  1.
      -16    1   14   14    0    0 -1.11368188322E+01 -2.76685473432E+01 -7.95973554617E+00  3.08696393848E+01  3.95126704790E-07  0.00000000000E+00  1.
      -15    1   16   16    0    0 -6.18178288949E+00 -1.48754613188E+01 -5.08479687743E+00  1.68922748150E+01  2.63417803193E-07  0.00000000000E+00  1.
       15    1   17   17    0    0 -9.29749316921E+00  1.50680213073E+01  2.14274462802E+01  2.77961166252E+01  2.63417803193E-07  0.00000000000E+00  1.
       16    1   15   15    0    0 -2.02691542788E+00  4.27331204015E+00  5.24798723694E+00  7.06476836020E+00  9.31322574615E-08  0.00000000000E+00  1.
      -16    1   17   17    0    0 -1.14153346316E+01  1.86136275814E+01  2.67139078930E+01  3.45023168991E+01  7.45058059692E-07  0.00000000000E+00  1.
</event>
<event>
23  80   1.0000000E+00   2.3570000E+02   7.8125000E-03   1.1298309E-01
       21   -1    0    0  501  510  0.00000000000E+00  0.00000000000E+00  4.14478657176E+02  4.14478657176E+02  0.00000000000E+00  0.00000000000E+00  1.
       21   -1    0    0  510  502  0.00000000000E+00  0.00000000000E+00 -4.52176906343E+02  4.52176906343E+02  0.00000000000E+00  0.00000000000E+00  1.
       25    2    1    2    0    0  7.09045376210E+01 -1.24139580422E+02 -1.23363056969E+02  2.26454261844E+02  1.25000000000E+02  0.00000000000E+00  1.
       -6    2    1    2    0  502  1.41966506437E+02 -9.21143279811E+01 -7.58282574899E+01  2.53646226114E+02  1.73051856443E+02  0.00000000000E+00  1.
        6    2    1    2  501    0 -2.12871044058E+02  2.16253908403E+02  1.61493065292E+02  3.86555075560E+02  1.76819065730E+02  0.00000000000E+00  1.
       -5    1    4    4    0  502  8.18621052530E+01 -9.06046794029E+01  2.92569466556E+00  1.22236387362E+02  4.75000000000E+00  0.00000000000E+00  1.
      -24    2    4    4    0    0  6.01044011842E+01 -1.50964857820E+00 -7.87539521555E+01  1.31409838751E+02  8.63223184353E+01  0.00000000000E+00  1.
        3    1    7    7  704    0  7.28509995472E+01 -2.33272766367E+01 -4.33828981979E+01  8.79403537994E+01  1.26159253648E-06  0.00000000000E+00  1.
       -4    1    7    7    0  704 -1.27465983630E+01  2.18176280585E+01 -3.53710539576E+01  4.34694849521E+01  1.65181236989E-06  0.00000000000E+00  1.
        5    1    5    5  501    0 -4.15111543440E+01 -9.85457781512E+00 -1.23867589123E+01  4.46797821754E+01  4.75000000000E+00  0.00000000000E+00  1.
       24    2    5    5    0    0 -1.71359889714E+02  2.26108486219E+02  1.73879824204E+02  3.41875293385E+02  7.84554881366E+01  0.00000000000E+00  1.
       -3    1   11   11    0  703 -3.57207172561E+01  6.33087093550E+01  8.56557331070E+01  1.12342631870E+02  2.86102294922E-06  0.00000000000E+00  1.
        4    1   11   11  703    0 -1.35639172458E+02  1.62799776864E+02  8.82240910973E+01  2.29532661514E+02  3.69356474515E-06  0.00000000000E+00  1.
      -15    2    3    3    0    0  8.81964384130E+01 -4.61513876531E+01 -1.04546631285E+02  1.44366607851E+02  1.77680000000E+00  0.00000000000E+00  1.
       15    2    3    3    0    0 -1.72919007920E+01 -7.79881927689E+01 -1.88164256840E+01  8.20876539933E+01  1.77680000000E+00  0.00000000000E+00  1.
       24    2   14   14    0    0  7.14179297421E+01 -3.68834583719E+01 -8.52002596771E+01  1.17132530654E+02  1.87878110241E-01  0.00000000000E+00  1.
      -24    2   15   15    0    0 -1.11264586509E+01 -5.32990599199E+01 -1.32775582440E+01  5.60445165066E+01  3.26200986943E-01  0.00000000000E+00  1.
       16    1   16   16    0    0  4.26749886025E+01 -2.19819071250E+01 -5.09943495382E+01  7.00341529391E+01  0.00000000000E+00  0.00000000000E+00  1.
      -16    1   14   14    0    0  1.67785086708E+01 -9.26792928119E+00 -1.93463716079E+01  2.72340771969E+01  2.63417803193E-07  0.00000000000E+00  1.
      -15    1   16   16    0    0  2.87429411396E+01 -1.49015512469E+01 -3.42059101389E+01  4.70983777146E+01  6.45239206988E-07  0.00000000000E+00  1.
       15    1   17   17    0    0 -5.95676733512E+00 -2.79116589603E+01 -6.85504889657E+00  2.93519246111E+01  3.72529029846E-07  0.00000000000E+00  1.
       16    1   15   15    0    0 -6.16544214109E+00 -2.46891328490E+01 -5.53886744003E+00  2.60431374867E+01  4.00576985769E-07  0.00000000000E+00  1.
      -16    1   17   17    0    0 -5.16969131576E+00 -2.53874009596E+01 -6.42250934742E+00  2.66925918955E+01  0.00000000000E+00  0.00000000000E+00  1.
</event>
<event>
23  80   1.0000000E+00   2.3570000E+02   7.8125000E-03   1.1298309E-01
       21   -1    0    0  501  510  0.00000000000E+00  0.00000000000E+00  1.94583151354E+03  1.94583151354E+03  0.00000000000E+00  0.00000000000E+00  1.
       21   -1    0    0  510  502  0.00000000000E+00  0.00000000000E+00 -3.70018878893E+01  3.70018878893E+01  0.00000000000E+00  0.00000000000E+00  1.
       25    2    1    2    0    0  3.16890808311E+01 -4.70856363388E+01  3.26849973555E+02  3.54509746278E+02  1.25000000000E+02  0.00000000000E+00  1.
       -6    2    1    2    0  502  2.52298583380E+01  1.58196556678E+01  5.06697886938E+02  5.36247794993E+02  1.73009079964E+02  0.00000000000E+00  1.
        6    2    1    2  501    0 -5.69189391691E+01  3.12659806710E+01  1.07528176516E+03  1.09207586016E+03  1.79391980526E+02  0.00000000000E+00  1.
       -5    1    4    4    0  502  7.23172843634E+01  1.39209122350E+01  2.94012453104E+02  3.03132753913E+02  4.75000000000E+00  0.00000000000E+00  1.
      -24    2    4    4    0    0 -4.70874260254E+01  1.89874343278E+00  2.12685433835E+02  2.33115041080E+02  8.29861295382E+01  0.00000000000E+00  1.
        1    1    7    7  704    0 -3.08182101017E+01 -3.05982021732E+01  1.76747450251E+02  1.82004596701E+02  1.90734863281E-06  0.00000000000E+00  1.
       -2    1    7    7    0  704 -1.62692159237E+01  3.24969456060E+01  3.59379835835E+01  5.11104443782E+01  2.28683067480E-06  0.00000000000E+00  1.
        5    1    5    5  501    0 -9.49220840840E+01  3.61170872129E+01  6.04450093542E+02  6.12941370865E+02  4.74999999999E+00  0.00000000000E+00  1.
       24    2    5    5    0    0  3.80031449149E+01 -4.85110654189E+00  4.70831671616E+02  4.79134489294E+02  8.01225534760E+01  0.00000000000E+00  1.
      -11    1   11   11    0    0  2.59441042455E+01 -1.18173335225E+01  4.61479283768E+02  4.62359032856E+02  5.11112494642E-04  0.00000000000E+00  1.
       12    1   11   11    0    0  1.20590406695E+01  6.96622698061E+00  9.35238784865E+00  1.67754564375E+01  9.21002669893E-06  0.00000000000E+00  1.
      -15    2    3    3    0    0  7.15264873645E+01  3.08575452064E+00  1.45523439802E+02  1.62190594135E+02  1.77680000000E+00  0.00000000000E+00  1.
       15    2    3    3    0    0 -3.98374065334E+01 -5.01713908594E+01  1.81326533753E+02  1.92319152143E+02  1.77680000000E+00  0.00000000000E+00  1.
       24    2   14   14    0    0  6.43625653996E+01  2.48003393520E+00  1.30905963031E+02  1.45900741388E+02  1.40170874712E+00  0.00000000000E+00  1.
      -24    2   15   15    0    0 -3.76270399893E+01 -4.75341940509E+01  1.72698285994E+02  1.83030062486E+02  1.09754729168E-01  0.00000000000E+00  1.
        2    1   16   16  803    0  1.96335071163E+01  1.25743824586E+00  3.90601737352E+01  4.37350308660E+01  0.00000000000E+00  0.00000000000E+00  1.
      -16    1   14   14    0    0  7.16392196484E+00  6.05720585436E-01  1.46174767714E+01  1.62898527467E+01  1.86264514923E-07  0.00000000000E+00  1.
       -1    1   16   16    0  803  4.47290582834E+01  1.22259568935E+00  9.18457892958E+01  1.02165710522E+02  0.00000000000E+00  0.00000000000E+00  1.
       15    1   17   17    0    0 -3.08776963707E+01 -3.90717104403E+01  1.41904972154E+02  1.50389666573E+02  2.10734242554E-06  0.00000000000E+00  1.
       16    1   15   15    0    0 -2.21036654410E+00 -2.63719680852E+00  8.62824775904E+00  9.28908965709E+00  9.31322574615E-08  0.00000000000E+00  1.
      -16    1   17   17    0    0 -6.74934361853E+00 -8.46248361063E+00  3.07933138393E+01  3.26403959129E+01  6.45239206988E-07  0.00000000000E+00  1.
</event>
<event>
23  80   1.0000000E+00   2.3570000E+02   7.8125000E-03   1.1298309E-01
       21   -1    0    0  501  510  0.00000000000E+00  0.00000000000E+00  1.08641678588E+03  1.08641678588E+03  0.00000000000E+00  0.00000000000E+00  1.
       21   -1    0    0  510  502  0.00000000000E+00  0.00000000000E+00 -2.61186306303E+02  2.61186306303E+02  0.00000000000E+00  0.00000000000E+00  1.
       25    2    1    2    0    0 -1.02407596400E+02 -6.13244642002E+01  2.62853624977E+01  1.74825415748E+02  1.25000000000E+02  0.00000000000E+00  1.
       -6    2    1    2    0  502  4.06528638963E+02 -4.22164298607E+01  6.28371885528E+02  7.69697133188E+02  1.74741778254E+02  0.00000000000E+00  1.
        6    2    1    2  501    0 -3.04121042564E+02  1.03540894061E+02  1.70573231548E+02  4.03080543245E+02  1.73690448064E+02  0.00000000000E+00  1.
       -5    1    4    4    0  502  6.42131946946E+01 -5.17456857460E+01  6.60799669368E+01  1.05783150343E+02  4.75000000001E+00  0.00000000000E+00  1.
      -24    2    4    4    0    0  3.42315444269E+02  9.52925588530E+00  5.62291918591E+02  6.63913982844E+02  8.56674080402E+01  0.00000000000E+00  1.
        3    1    7    7  704    0  1.98536119226E+02 -2.53495335927E+01  3.76673289588E+02  4.26546546791E+02  0.00000000000E+00  0.00000000000E+00  1.
       -4    1    7    7    0  704  1.43779325043E+02  3.48787894780E+01  1.85618629004E+02  2.37367436053E+02  4.67203091199E-06  0.00000000000E+00  1.
        5    1    5    5  501    0 -5.71405895120E+01 -3.47418077451E+01  9.76779180397E+00  6.77496304927E+01  4.75000000000E+00  0.00000000000E+00  1.
       24    2    5    5    0    0 -2.46980453052E+02  1.38282701806E+02  1.60805439744E+02  3.35330912752E+02  8.04175465142E+01  0.00000000000E+00  1.
      -15    1   11   11    0    0 -8.51513753955E+01  5.47286706152E+01  1.56595887607E+01  1.02442002408E+02  1.77680000000E+00  0.00000000000E+00  1.
       16    1   11   11    0    0 -1.61829077656E+02  8.35540311907E+01  1.45145850983E+02  2.32888910344E+02  2.69739830470E-06  0.00000000000E+00  1.
      -15    2    3    3    0    0 -5.72564449096E+01  2.86578408102E+01  3.63244988540E+01  7.36355794356E+01  1.77680000000E+00  0.00000000000E+00  1.
       15    2    3    3    0    0 -4.51511514904E+01 -8.99823050104E+01 -1.00391363563E+01  1.01189836312E+02  1.77680000000E+00  0.00000000000E+00  1.
       24    2   14   14    0    0 -5.18639752598E+01  2.56900245477E+01  3.22886825840E+01  6.62752482435E+01  1.46875701051E-02  0.00000000000E+00  1.
      -24    2   15   15    0    0 -3.51552835659E+01 -7.02465530048E+01 -8.30261647389E+00  7.89990097370E+01  1.19913613530E+00  0.00000000000E+00  1.
       16    1   16   16    0    0 -3.86312747500E+01  1.91284325774E+01  2.40503273413E+01  4.93628460171E+01  7.45058059692E-07  0.00000000000E+00  1.
      -16    1   14   14    0    0 -5.39246964981E+00  2.96781626255E+00  4.03581626999E+00  7.36033119211E+00  6.58544507983E-08  0.00000000000E+00  1.
      -15    1   16   16    0    0 -1.32327005098E+01  6.56159197025E+00  8.23835524271E+00  1.69124022265E+01  2.63417803193E-07  0.00000000000E+00  1.
        1    1   17   17  804    0 -3.33402509602E+01 -6.71770954239E+01 -7.92038467544E+00  7.54126446764E+01  1.19267483008E-06  0.00000000000E+00  1.
       16    1   15   15    0    0 -9.99586792451E+00 -1.97357520057E+01 -1.73651988242E+00  2.21908265753E+01  3.10634823146E-07  0.00000000000E+00  1.
       -2    1   17   17    0  804 -1.81503260576E+00 -3.06945758085E+00 -3.82231798450E-01  3.58636506066E+00  1.15758633482E-07  0.00000000000E+00  1.
</event>
<event>
23  80   1.0000000E+00   2.3570000E+02   7.8125000E-03   1.1298309E-01
       21   -1    0    0  501  510  0.00000000000E+00  0.00000000000E+00  1.34667203317E+02  1.34667203317E+02  0.00000000000E+00  0.00000000000E+00  1.
       21   -1    0    0  510  502  0.00000000000E+00  0.00000000000E+00 -1.25523753112E+03  1.25523753112E+03  0.00000000000E+00  0.00000000000E+00  1.
       25    2    1    2    0    0  2.87141071932E+02  9.44858352615E+01 -3.41571088402E+02  4.72941197917E+02  1.25000000000E+02  0.00000000000E+00  1.
       -6    2    1    2    0  502 -9.57733658014E+01  6.98066769169E+00 -2.40271808900E+02  3.10687286807E+02  1.71973197658E+02  0.00000000000E+00  1.
        6    2    1    2  501    0 -1.91367706131E+02 -1.01466502953E+02 -5.38727430499E+02  6.06276249712E+02  1.74432211537E+02  0.00000000000E+00  1.
       -5    1    4    4    0  502 -3.39812882605E+01 -3.61311786650E+01 -1.77571998397E+02  1.84430385616E+02  4.75000000000E+00  0.00000000000E+00  1.
      -24    2    4    4    0    0 -6.17920775409E+01  4.31118463566E+01 -6.26998105030E+01  1.26256901191E+02  7.95779285867E+01  0.00000000000E+00  1.
        1    1    7    7  704    0 -1.64025779069E+01 -1.01347698007E+00  1.75511726084E+01  2.40440295606E+01  2.38418579102E-07  0.00000000000E+00  1.
       -2    1    7    7    0  704 -4.53894996340E+01  4.41253233367E+01 -8.02509831114E+01  1.02212871630E+02  9.53674316406E-07  0.00000000000E+00  1.
        5    1    5    5  501    0 -7.97861048336E+01 -8.19632320242E+01 -1.23590099972E+02  1.68466225812E+02  4.75000000000E+00  0.00000000000E+00  1.
       24    2    5    5    0    0 -1.11581601297E+02 -1.95032709289E+01 -4.15137330527E+02  4.37810023900E+02  8.06708280918E+01  0.00000000000E+00  1.
       -3    1   11   11    0  703 -4.67008979717E+01  1.98595386291E+01 -8.44340341218E+01  9.85113255622E+01  2.52318507296E-06  0.00000000000E+00  1.
        4    1   11   11  703    0 -6.48807033253E+01 -3.93628095581E+01 -3.30703296405E+02  3.39298698337E+02  0.00000000000E+00  0.00000000000E+00  1.
      -15    2    3    3    0    0  8.24904026915E+01  8.44707803491E+01 -1.62133962270E+02  2.00575566828E+02  1.77680000001E+00  0.00000000000E+00  1.
       15    2    3    3    0    0  2.04650669241E+02  1.00150549124E+01 -1.79437126132E+02  2.72365631089E+02  1.77680000000E+00  0.00000000000E+00  1.
       24    2   14   14    0    0  6.36947968832E+01  6.43035975433E+01 -1.24927921333E+02  1.54269200720E+02  1.44758549801E-01  0.00000000000E+00  1.
      -24    2   15   15    0    0  5.86507195433E+01  3.00446642346E+00 -5.24847007235E+01  7.87628109137E+01  5.33999092882E-02  0.00000000000E+00  1.
       16    1   16   16    0    0  4.80492256822E+01  4.84432392138E+01 -9.41054714134E+01  1.16238183331E+02  1.05367121277E-06  0.00000000000E+00  1.
      -16    1   14   14    0    0  1.87956058082E+01  2.01671828058E+01 -3.72060409363E+01  4.63063661085E+01  7.45058059692E-07  0.00000000000E+00  1.
      -15    1   16   16    0    0  1.56455712011E+01  1.58603583294E+01 -3.08224499199E+01  3.80310173886E+01  3.72529029846E-07  0.00000000000E+00  1.
       15    1   17   17    0    0  4.85541367139E+01  2.48081931446E+00 -4.34749008250E+01  6.52205922869E+01  5.26835606386E-07  0.00000000000E+00  1.
       16    1   15   15    0    0  1.45999949697E+02  7.01058848897E+00 -1.26952425409E+02  1.93602820175E+02  2.98023223877E-06  0.00000000000E+00  1.
      -16    1   17   17    0    0  1.00965828294E+01  5.23647109004E-01 -9.00979989849E+00  1.35422186268E+01  1.31708901597E-07  0.00000000000E+00  1.
</event>
<event>
23  80   1.0000000E+00   2.3570000E+02   7.8125000E-03   1.1298309E-01
       21   -1    0    0  501  510  0.00000000000E+00  0.00000000000E+00  6.10810514637E+01  6.10810514637E+01  0.00000000000E+00  0.00000000000E+00  1.
       21   -1    0    0  510  502  0.00000000000E+00  0.00000000000E+00 -1.11677211695E+03  1.11677211695E+03  0.00000000000E+00  0.00000000000E+00  1.
       25    2    1    2    0    0 -5.09459096785E-01 -6.24433953734E+01 -2.09637673383E+02  2.51937276471E+02  1.25000000000E+02  0.00000000000E+00  1.
       -6    2    1    2    0  502  3.32315574908E+01  7.46766718430E+01 -3.87683134435E+02  4.32367539642E+02  1.73096894484E+02  0.00000000000E+00  1.
        6    2    1    2  501    0 -3.27220983941E+01 -1.22332764697E+01 -4.58370257672E+02  4.93548352304E+02  1.79628210945E+02  0.00000000000E+00  1.
       -5    1    4    4    0  502  8.08264064340E+01  3.62006883323E+01 -1.48713420963E+02  1.73152077341E+02  4.75000000000E+00  0.00000000000E+00  1.
      -24    2    4    4    0    0 -4.75948489431E+01  3.84759835107E+01 -2.38969713471E+02  2.59215462301E+02  7.96270116627E+01  0.00000000000E+00  1.
        1    1    7    7  704    0 -1.28017779724E+01  5.87529420414E+01 -1.40120111861E+02  1.52477668744E+02  1.90734863281E-06  0.00000000000E+00  1.
       -2    1    7    7    0  704 -3.47930709708E+01 -2.02769585307E+01 -9.88496016108E+01  1.06737793557E+02  2.33601545599E-06  0.00000000000E+00  1.
        5    1    5    5  501    0 -7.39136019945E+01 -2.20549124161E+01 -1.19244273299E+02  1.42096442377E+02  4.75000000000E+00  0.00000000000E+00  1.
       24    2    5    5    0    0  4.11915036004E+01  9.82163594648E+00 -3.39125984373E+02  3.51451909928E+02  8.19683305504E+01  0.00000000000E+00  1.
      -11    1   11   11    0    0  2.47592008801E+00  3.57121467464E+01 -2.30484259245E+02  2.33247682444E+02  5.10991478305E-04  0.00000000000E+00  1.
       12    1   11   11    0    0  3.87155835124E+01 -2.58905107999E+01 -1.08641725128E+02  1.18204227483E+02  3.56832255056E-06  0.00000000000E+00  1.
      -15    2    3    3    0    0  5.89709650114E+01 -1.02618749040E+01 -1.02923626381E+02  1.19076910762E+02  1.77680000000E+00  0.00000000000E+00  1.
       15    2    3    3    0    0 -5.94804241082E+01 -5.21815204694E+01 -1.06714047002E+02  1.32860365709E+02  1.77680000000E+00  0.00000000000E+00  1.
       24    2   14   14    0    0  5.01094711553E+01 -8.63229024427E+00 -8.68507981941E+01  1.00650912134E+02  1.43855205966E+00  0.00000000000E+00  1.
      -24    2   15   15    0    0 -3.10053126219E+01 -2.76238550989E+01 -5.72473748500E+01  7.07245261606E+01  5.38416311546E-01  0.00000000000E+00  1.
       12    1   16   16    0    0  6.05529858104E+00 -1.07892085274E+00 -1.14579191696E+01  1.30044078224E+01  2.28126509374E-07  0.00000000000E+00  1.
      -16    1   14   14    0    0  8.86149385612E+00 -1.62958465973E+00 -1.60728281870E+01  1.84259986284E+01  1.86264514923E-07  0.00000000000E+00  1.
      -11    1   16   16    0    0  4.40541725743E+01 -7.55336939153E+00 -7.53928790245E+01  8.76465043112E+01  1.05367121277E-06  0.00000000000E+00  1.
       15    1   17   17    0    0 -1.48402522083E+01 -1.31360917699E+01 -2.77671341686E+01  3.41145677465E+01  8.33000234328E-07  0.00000000000E+00  1.
       16    1   15   15    0    0 -2.84751114863E+01 -2.45576653705E+01 -4.94666721519E+01  6.21358395484E+01  9.12506037497E-07  0.00000000000E+00  1.
      -16    1   17   17    0    0 -1.61650604136E+01 -1.44877633291E+01 -2.94802406814E+01  3.66099584142E+01  3.72529029846E-07  0.00000000000E+00  1.
</event>
<event>
23  80   1.0000000E+00   2.3570000E+02   7.8125000E-03   1.1298309E-01
       21   -1    0    0  501  510  0.00000000000E+00  0.00000000000E+00  1.94187520604E+02  1.94187520604E+02  0.00000000000E+00  0.00000000000E+00  1.
       21   -1    0    0  510  502  0.00000000000E+00  0.00000000000E+00 -5.72966359524E+02  5.72966359524E+02  0.00000000000E+00  0.00000000000E+00  1.
       25    2    1    2    0    0  6.64769335851E+01 -1.18628637903E+02 -5.11403543375E+01  1.91656652040E+02  1.25000000000E+02  0.00000000000E+00  1.
       -6    2    1    2    0  502 -9.18922797001E+00  9.39377064051E+01 -3.36105081102E+02  3.90375297284E+02  1.74692623174E+02  0.00000000000E+00  1.
        6    2    1    2  501    0 -5.72877056151E+01  2.46909314976E+01  8.46659652022E+00  1.85121930804E+02  1.74088835641E+02  0.00000000000E+00  1.
       -5    1    4    4    0  502 -8.28765337590E-01  7.31162941904E+01 -2.82273705827E+02  2.91629365513E+02  4.75000000000E+00  0.00000000000E+00  1.
      -24    2    4    4    0    0 -8.36046263242E+00  2.08214122147E+01 -5.38313752751E+01  9.87459317709E+01  7.96838348428E+01  0.00000000000E+00  1.
        1    1    7    7  704    0  1.59912079144E+01  3.80516542787E+01 -5.07286441620E+00  4.15858278419E+01  6.74349576174E-07  0.00000000000E+00  1.
       -2    1    7    7    0  704 -2.43516705468E+01 -1.72302420640E+01 -4.87585108589E+01  5.71601039290E+01  0.00000000000E+00  0.00000000000E+00  1.
        5    1    5    5  501    0  4.50858561411E+01  7.85186454745E+00  2.73447786765E+01  5.35227579793E+01  4.75000000000E+00  0.00000000000E+00  1.
       24    2    5    5    0    0 -1.02373561756E+02  1.68390669501E+01 -1.88781821562E+01  1.31599172824E+02  7.87277346566E+01  0.00000000000E+00  1.
       -1    1   11   11    0  703 -1.45193810328E+01  3.60705183838E+01 -1.46957076213E+01  4.15675179021E+01  1.59045029451E-06  0.00000000000E+00  1.
        2    1   11   11  703    0 -8.78541807234E+01 -1.92314514337E+01 -4.18247453490E+00  9.00316549224E+01  1.87541636497E-06  0.00000000000E+00  1.
      -15    2    3    3    0    0  9.56347216786E+00 -1.24887584512E+02 -2.12917723607E+01  1.27062446670E+02  1.77680000000E+00  0.00000000000E+00  1.
       15    2    3    3    0    0  5.69134614172E+01  6.25894660921E+00 -2.98485819768E+01  6.45942053703E+01  1.77680000000E+00  0.00000000000E+00  1.
       24    2   14   14    0    0  6.12505086424E+00 -6.95278645969E+01 -1.22205699396E+01  7.08591723565E+01  1.99433966567E-01  0.00000000000E+00  1.
      -24    2   15   15    0    0  5.61933513251E+01  6.01050260905E+00 -2.94770586134E+01  6.37466721405E+01  9.60390404318E-01  0.00000000000E+00  1.
       16    1   16   16    0    0  3.01891650563E+00 -3.52496942609E+01 -6.24543895717E+00  3.59257610931E+01  2.37441599071E-07  0.00000000000E+00  1.
      -16    1   14   14    0    0  3.43842130362E+00 -5.53597199153E+01 -9.07120242102E+00  5.62032743132E+01  3.22619603494E-07  0.00000000000E+00  1.
      -15    1   16   16    0    0  3.10613435861E+00 -3.42781703360E+01 -5.97513098248E+00  3.49334112633E+01  4.26785619460E-07  0.00000000000E+00  1.
        5    1   17   17  804    0  2.65143505778E+01  3.31777597227E+00 -1.39586740202E+01  3.01473548486E+01  9.12506037497E-07  0.00000000000E+00  1.
       16    1   15   15    0    0  7.20110092131E-01  2.48444000157E-01 -3.71523363469E-01  8.47533229795E-01  4.83509145148E-08  0.00000000000E+00  1.
       -4    1   17   17    0  804  2.96790007473E+01  2.69272663678E+00 -1.55183845931E+01  3.35993172919E+01  6.96937998156E-07  0.00000000000E+00  1.
</event>
<event>
23  80   1.0000000E+00   2.3570000E+02   7.8125000E-03   1.1298309E-01
       21   -1    0    0  501  510  0.00000000000E+00  0.00000000000E+00  4.82758941404E+02  4.82758941404E+02  0.00000000000E+00  0.00000000000E+00  1.
       21   -1    0    0  510  502  0.00000000000E+00  0.00000000000E+00 -4.78473483423E+02  4.78473483423E+02  0.00000000000E+00  0.00000000000E+00  1.
       25    2    1    2    0    0  2.28752608189E+02 -2.07738879799E+02 -2.51517284493E+02  4.17575313366E+02  1.25000000000E+02  0.00000000000E+00  1.
       -6    2    1    2    0  502 -8.69959921799E+01  7.85311415161E+01  5.67621316490E+01  2.17173382545E+02  1.73801310851E+02  0.00000000000E+00  1.
        6    2    1    2  501    0 -1.41756616009E+02  1.29207738283E+02  1.99040610825E+02  3.26483728916E+02  1.73737971308E+02  0.00000000000E+00  1.
       -5    1    4    4    0  502 -4.25690673254E+01 -2.80931996690E+01 -2.24442064117E+01  5.59254706019E+01  4.75000000000E+00  0.00000000000E+00  1.
      -24    2    4    4    0    0 -4.44269248545E+01  1.06624341185E+02  7.92063380607E+01  1.61247911943E+02  7.99045889292E+01  0.00000000000E+00  1.
        1    1    7    7  704    0 -1.07830720088E+01 -8.56650445219E+00 -4.99638283997E+00  1.46500335140E+01  1.24458152162E-06  0.00000000000E+00  1.
       -2    1    7    7    0  704 -3.36438528457E+01  1.15190845637E+02  8.42027209007E+01  1.46597878429E+02  2.69739830470E-06  0.00000000000E+00  1.
        5    1    5    5  501    0 -1.02122430292E+01  1.38129989474E+01 -2.55781901198E+01  3.11752330771E+01  4.75000000000E+00  0.00000000000E+00  1.
       24    2    5    5    0    0 -1.31544372980E+02  1.15394739336E+02  2.24618800945E+02  2.95308495839E+02  7.83175206926E+01  0.00000000000E+00  1.
       -1    1   11   11    0  703 -1.19721128908E+02  5.78745079972E+01  1.54203803363E+02  2.03620775843E+02  3.30362473978E-06  0.00000000000E+00  1.
        2    1   11   11  703    0 -1.18232440712E+01  5.75202313387E+01  7.04149975817E+01  9.16877199959E+01  3.16297987972E-06  0.00000000000E+00  1.
      -15    2    3    3    0    0  2.02897182121E+02 -2.14118294366E+02 -1.90970689336E+02  3.51406988687E+02  1.77679999998E+00  0.00000000000E+00  1.
       15    2    3    3    0    0  2.58554260684E+01  6.37941456714E+00 -6.05465951572E+01  6.61683246785E+01  1.77680000000E+00  0.00000000000E+00  1.
       24    2   14   14    0    0  4.63424517646E+01 -4.92847764740E+01 -4.45575201684E+01  8.10067514035E+01  3.30366091289E-01  0.00000000000E+00  1.
      -24    2   15   15    0    0  6.93389516972E+00  2.37229323183E+00 -1.77866207168E+01  1.92375590009E+01  1.14552993804E-01  0.00000000000E+00  1.
       12    1   16   16    0    0  2.10015210748E+01 -2.21165387897E+01 -2.00063131446E+01  3.64754402459E+01  2.63417803193E-07  0.00000000000E+00  1.
      -16    1   14   14    0    0  1.56554730356E+02 -1.64833517892E+02 -1.46413169167E+02  2.70400237284E+02  4.71216091539E-06  0.00000000000E+00  1.
      -11    1   16   16    0    0  2.53409306898E+01 -2.71682376842E+01 -2.45512070237E+01  4.45313111576E+01  6.96937998156E-07  0.00000000000E+00  1.
       15    1   17   17    0    0  1.75105969311E+00  6.00436836180E-01 -4.62450260898E+00  4.98124069119E+00  1.14063254687E-07  0.00000000000E+00  1.
       16    1   15   15    0    0  1.89215308986E+01  4.00712133531E+00 -4.27599744403E+01  4.69307656776E+01  7.45058059692E-07  0.00000000000E+00  1.
      -16    1   17   17    0    0  5.18283547662E+00  1.77185639565E+00 -1.31621181078E+01  1.42563183098E+01  0.00000000000E+00  0.00000000000E+00  1.
</event>
<event>
23  80   1.0000000E+00   2.3570000E+02   7.8125000E-03   1.1298309E-01
       21   -1    0    0  501  510  0.00000000000E+00  0.00000000000E+00  7.76628052588E+01  7.76628052588E+01  0.00000000000E+00  0.00000000000E+00  1.
       21   -1    0    0  510  502  0.00000000000E+00  0.00000000000E+00 -1.16304531825E+03  1.16304531825E+03  0.00000000000E+00  0.00000000000E+00  1.
       25    2    1    2    0    0  4.20696180719E+01 -7.37787828961E+01 -1.97563673162E+02  2.48735937338E+02  1.25000000000E+02  0.00000000000E+00  1.
       -6    2    1    2    0  502 -1.43448178514E+02  5.01224691512E+01 -3.67637443906E+02  4.33786572120E+02  1.72985138543E+02  0.00000000000E+00  1.
        6    2    1    2  501    0  1.01378560442E+02  2.36563137449E+01 -5.20181395922E+02  5.58185614050E+02  1.73623907833E+02  0.00000000000E+00  1.
       -5    1    4    4    0  502 -4.89007727302E+01  7.40215008952E+01 -2.31766339645E+02  2.48210932194E+02  4.75000000000E+00  0.00000000000E+00  1.
      -24    2    4    4    0    0 -9.45474057837E+01 -2.38990317440E+01 -1.35871104261E+02  1.85575639925E+02  8.04175696088E+01  0.00000000000E+00  1.
        1    1    7    7  704    0  4.69595114169E-01 -4.32755056135E+00 -6.57040336154E+01  6.58480694232E+01  1.34869915235E-06  0.00000000000E+00  1.
       -4    1    7    7    0  704 -9.50170008979E+01 -1.95714811827E+01 -7.01670706459E+01  1.19727570502E+02  0.00000000000E+00  0.00000000000E+00  1.
        5    1    5    5  501    0  5.17560844233E+01  5.81388936672E+00 -3.36720515186E+01  6.22001859955E+01  4.75000000000E+00  0.00000000000E+00  1.
       24    2    5    5    0    0  4.96224760187E+01  1.78424243782E+01 -4.86509344404E+02  4.95985428055E+02  8.08050766739E+01  0.00000000000E+00  1.
       -1    1   11   11    0  703  4.28192640016E+01  4.26227962711E+01 -2.16995626600E+02  2.25249404206E+02  3.81469726562E-06  0.00000000000E+00  1.
        2    1   11   11  703    0  6.80321201711E+00 -2.47803718929E+01 -2.69513717804E+02  2.70736023849E+02  3.81469726562E-06  0.00000000000E+00  1.
      -15    2    3    3    0    0  3.60640953374E+01 -2.92134610345E+01 -3.44160207223E-01  4.64469669904E+01  1.77680000000E+00  0.00000000000E+00  1.
       15    2    3    3    0    0  6.00552273452E+00 -4.45653218616E+01 -1.97219512955E+02  2.02288970348E+02  1.77680000000E+00  0.00000000000E+00  1.
       24    2   14   14    0    0  2.20704183225E+01 -1.87305778936E+01 -3.32649346519E-01  2.89622889023E+01  8.74991266655E-01  0.00000000000E+00  1.
      -24    2   15   15    0    0  1.73276669017E-01 -3.65127973337E+00 -1.44487099629E+01  1.49039646409E+01  3.27708383580E-02  0.00000000000E+00  1.
        4    1   16   16  803    0  1.87059709426E+01 -1.55103979945E+01 -4.40075584879E-01  2.43038980695E+01  3.44213550956E-07  0.00000000000E+00  1.
      -16    1   14   14    0    0  1.39936770149E+01 -1.04828831409E+01 -1.15108607048E-02  1.74846780880E+01  5.89211395702E-07  0.00000000000E+00  1.
       -3    1   16   16    0  803  3.36444737992E+00 -3.22017989906E+00  1.07426238361E-01  4.65839083281E+00  1.75542184734E-07  0.00000000000E+00  1.
       15    1   17   17    0    0  1.47716198941E-01 -2.82440329576E+00 -1.11742139779E+01  1.15265837123E+01  2.28126509374E-07  0.00000000000E+00  1.
       16    1   15   15    0    0  5.83224606550E+00 -4.09140421283E+01 -1.82770802992E+02  1.87385005707E+02  2.10734242554E-06  0.00000000000E+00  1.
      -16    1   17   17    0    0  2.55604700765E-02 -8.26876437601E-01 -3.27449598503E+00  3.37738092857E+00  4.65661287308E-08  0.00000000000E+00  1.
</event>
<event>
23  80   1.0000000E+00   2.3570000E+02   7.8125000E-03   1.1298309E-01
       21   -1    0    0  501  510  0.00000000000E+00  0.00000000000E+00  8.65213232534E+02  8.65213232534E+02  0.00000000000E+00  0.00000000000E+00  1.
       21   -1    0    0  510  502  0.00000000000E+00  0.00000000000E+00 -2.77901796496E+02  2.77901796496E+02  0.00000000000E+00  0.00000000000E+00  1.
       25    2    1    2    0    0 -4.74716062399E+01 -9.35789562763E+01  1.47734545691E+02  2.20138752716E+02  1.25000000000E+02  0.00000000000E+00  1.
       -6    2    1    2    0  502  2.95046836637E+02  2.51819486344E+01  5.02409051873E+02  6.06572993804E+02  1.66820787262E+02  0.00000000000E+00  1.
        6    2    1    2  501    0 -2.47575230397E+02  6.83970076419E+01 -6.28321615263E+01  3.16403282510E+02  1.73757046765E+02  0.00000000000E+00  1.
       -5    1    4    4    0  502  9.85926591740E+01 -4.76847975176E+01  2.07046653848E+02  2.34275973431E+02  4.75000000000E+00  0.00000000000E+00  1.
      -24    2    4    4    0    0  1.96454177463E+02  7.28667461520E+01  2.95362398025E+02  3.72297020374E+02  8.63847132010E+01  0.00000000000E+00  1.
       15    1    7    7    0    0  1.57496296608E+02  4.33017782316E+01  2.73850450198E+02  3.18868865735E+02  1.77680000000E+00  0.00000000000E+00  1.
      -16    1    7    7    0    0  3.89578808541E+01  2.95649679204E+01  2.15119478272E+01  5.34281546387E+01  2.61174467805E-06  0.00000000000E+00  1.
        5    1    5    5  501    0 -2.11393432991E+02  5.59367537787E+01 -2.81668870722E+01  2.20526732988E+02  4.75000000000E+00  0.00000000000E+00  1.
       24    2    5    5    0    0 -3.61817974057E+01  1.24602538632E+01 -3.46652744540E+01  9.58765495217E+01  8.07852158836E+01  0.00000000000E+00  1.
      -11    1   11   11    0    0 -3.07758813376E+01  4.42002280350E+01 -3.39599800140E+01  6.36717776826E+01  5.10998375227E-04  0.00000000000E+00  1.
       12    1   11   11    0    0 -5.40591606806E+00 -3.17399741718E+01 -7.05294440063E-01  3.22047718391E+01  6.14797063049E-07  0.00000000000E+00  1.
      -15    2    3    3    0    0 -2.26787650348E+01  2.86950025599E+01  2.06481884942E+01  4.20384854835E+01  1.77680000000E+00  0.00000000000E+00  1.
       15    2    3    3    0    0 -2.47928412051E+01 -1.22273958836E+02  1.27086357197E+02  1.78100267232E+02  1.77680000000E+00  0.00000000000E+00  1.
       24    2   14   14    0    0 -1.80151743196E+00  3.05560079427E+00  2.23917573633E+00  4.19499012317E+00  4.32768265332E-02  0.00000000000E+00  1.
      -24    2   15   15    0    0 -2.17732033408E+01 -1.05265017033E+02  1.09787120027E+02  1.53652651382E+02  1.06271273099E+00  0.00000000000E+00  1.
       16    1   16   16    0    0 -9.35610467476E-01  1.62773877119E+00  1.19226129118E+00  2.22404753558E+00  4.65661287308E-08  0.00000000000E+00  1.
      -16    1   14   14    0    0 -2.08772476029E+01  2.56394017656E+01  1.84090127579E+01  3.78434953604E+01  6.96937998156E-07  0.00000000000E+00  1.
      -15    1   16   16    0    0 -8.65906964483E-01  1.42786202308E+00  1.04691444515E+00  1.97094258758E+00  2.85158136718E-08  0.00000000000E+00  1.
        3    1   17   17  804    0 -1.42855580630E+01 -6.93659508264E+01  7.30461462409E+01  1.01742084625E+02  1.05367121277E-06  0.00000000000E+00  1.
       16    1   15   15    0    0 -3.01963786430E+00 -1.70089418033E+01  1.72992371697E+01  2.44476158501E+01  2.63417803193E-07  0.00000000000E+00  1.
       -4    1   17   17    0  804 -7.48764527780E+00 -3.58990662065E+01  3.67409737862E+01  5.19105667573E+01  7.45058059692E-07  0.00000000000E+00  1.
</event>
<event>
23  80   1.0000000E+00   2.3570000E+02   7.8125000E-03   1.1298309E-01
       21   -1    0    0  501  510  0.00000000000E+00  0.00000000000E+00  1.36141383364E+02  1.36141383364E+02  0.00000000000E+00  0.00000000000E+00  1.
       21   -1    0    0  510  502  0.00000000000E+00  0.00000000000E+00 -6.76889991534E+02  6.76889991534E+02  0.00000000000E+00  0.00000000000E+00  1.
       25    2    1    2    0    0 -1.48624374989E+01 -3.91129799939E+01 -8.43717588645E+01  1.56506584354E+02  1.25000000000E+02  0.00000000000E+00  1.
       -6    2    1    2    0  502  9.57048709734E+01 -1.11170233414E+02 -1.78153760052E+02  2.87848497615E+02  1.72045785282E+02  0.00000000000E+00  1.
        6    2    1    2  501    0 -8.08424334744E+01  1.50283213408E+02 -2.78223089254E+02  3.68676292928E+02  1.71445554889E+02  0.00000000000E+00  1.
       -5    1    4    4    0  502 -5.25184023212E+00 -9.54428126329E+01 -7.59359553579E+01  1.22170962693E+02  4.75000000000E+00  0.00000000000E+00  1.
      -24    2    4    4    0    0  1.00956711205E+02 -1.57274207809E+01 -1.02217804694E+02  1.65677534923E+02  8.09997325908E+01  0.00000000000E+00  1.
        3    1    7    7  704    0 -5.18368668737E+00 -2.05026670790E+01 -3.18815496792E+01  3.82578511547E+01  1.16800772800E-06  0.00000000000E+00  1.
       -4    1    7    7    0  704  1.06140397893E+02  4.77524629810E+00 -7.03362550150E+01  1.27419683768E+02  1.34869915235E-06  0.00000000000E+00  1.
        5    1    5    5  501    0 -9.44440136228E+01  9.02846122653E+01 -2.05800719932E+02  2.43818542662E+02  4.75000000000E+00  0.00000000000E+00  1.
       24    2    5    5    0    0  1.36015801484E+01  5.99986011424E+01 -7.24223693217E+01  1.24857750267E+02  8.09915001831E+01  0.00000000000E+00  1.
      -11    1   11   11    0    0 -2.53340104544E+01  4.72289578895E+01 -1.75927195808E+01  5.64082470171E+01  5.10998987046E-04  0.00000000000E+00  1.
       12    1   11   11    0    0  3.89355906028E+01  1.27696432529E+01 -5.48296497409E+01  6.84495032495E+01  1.90734863281E-06  0.00000000000E+00  1.
      -15    2    3    3    0    0  9.34763480671E+00 -1.04693781316E+01  3.15924984129E+01  3.46154463954E+01  1.77680000000E+00  0.00000000000E+00  1.
       15    2    3    3    0    0 -2.42100723056E+01 -2.86436018623E+01 -1.15964257277E+02  1.21891137959E+02  1.77680000000E+00  0.00000000000E+00  1.
       24    2   14   14    0    0  3.75609042839E+00 -3.38226324462E+00  1.29757453352E+01  1.39254473352E+01  1.40184873498E-02  0.00000000000E+00  1.
      -24    2   15   15    0    0 -1.72964043850E+01 -2.00414118161E+01 -8.26373518014E+01  8.67844561684E+01  1.33646079842E+00  0.00000000000E+00  1.
       16    1   16   16    0    0  2.90618175693E+00 -2.60903784408E+00  1.00263916485E+01  1.07601812422E+01  1.86264514923E-07  0.00000000000E+00  1.
      -16    1   14   14    0    0  5.59154437832E+00 -7.08711488697E+00  1.86167530777E+01  2.06899990602E+01  4.56253018749E-07  0.00000000000E+00  1.
      -15    1   16   16    0    0  8.49908671466E-01 -7.73225400538E-01  2.94935368673E+00  3.16526609297E+00  1.57913425544E-07  0.00000000000E+00  1.
       11    1   17   17    0    0 -8.24001891496E+00 -8.53451453630E+00 -3.71749497587E+01  3.90219520226E+01  5.26835606386E-07  0.00000000000E+00  1.
       16    1   15   15    0    0 -6.91366792059E+00 -8.60219004626E+00 -3.33269054760E+01  3.51066817902E+01  5.26835606386E-07  0.00000000000E+00  1.
      -12    1   17   17    0    0 -9.05638547006E+00 -1.15068972797E+01 -4.54624020427E+01  4.77625041458E+01  5.26835606386E-07  0.00000000000E+00  1.
</event>
<event>
23  80   1.0000000E+00   2.3570000E+02   7.8125000E-03   1.1298309E-01
       21   -1    0    0  501  510  0.00000000000E+00  0.00000000000E+00  3.13409140454E+02  3.13409140454E+02  0.00000000000E+00  0.00000000000E+00  1.
       21   -1    0    0  510  502  0.00000000000E+00  0.00000000000E+00 -5.77571317961E+02  5.77571317961E+02  0.00000000000E+00  0.00000000000E+00  1.
       25    2    1    2    0    0  2.64682499566E+01  4.60401348240E+01  1.47103420178E+02  2.00211584326E+02  1.25000000000E+02  0.00000000000E+00  1.
       -6    2    1    2    0  502  1.25490459269E+02  1.12535055908E+02 -3.13617014007E+02  3.95709414746E+02  1.72679805617E+02  0.00000000000E+00  1.
        6    2    1    2  501    0 -1.51958709225E+02 -1.58575190732E+02 -9.76485836773E+01  2.95059459344E+02  1.71135321394E+02  0.00000000000E+00  1.
       -5    1    4    4    0  502  8.12838349760E+01 -1.49881570403E+01 -8.47107697776E+01  1.18449076384E+02  4.75000000000E+00  0.00000000000E+00  1.
      -24    2    4    4    0    0  4.42066242928E+01  1.27523212949E+02 -2.28906244230E+02  2.77260338362E+02  7.91127746270E+01  0.00000000000E+00  1.
       15    1    7    7    0    0 -3.25013914241E+00  2.05316321891E+01 -8.00257413423E-01  2.08784279811E+01  1.77680000000E+00  0.00000000000E+00  1.
      -16    1    7    7    0    0  4.74567634352E+01  1.06991580760E+02 -2.28105986816E+02  2.56381910381E+02  0.00000000000E+00  0.00000000000E+00  1.
        5    1    5    5  501    0  2.68076044787E+00 -7.89127059579E+01 -5.41430160947E+01  9.58563004189E+01  4.75000000000E+00  0.00000000000E+00  1.
       24    2    5    5    0    0 -1.54639469673E+02 -7.96624847745E+01 -4.35055675826E+01  1.99203158925E+02  8.67737693868E+01  0.00000000000E+00  1.
       -3    1   11   11    0  703 -4.07224828228E+01 -6.22564023946E+01  4.13024487317E+00  7.45066384229E+01  2.60152254615E-06  0.00000000000E+00  1.
        2    1   11   11  703    0 -1.13916986850E+02 -1.74060823799E+01 -4.76358124558E+01  1.24696520502E+02  2.13248059988E-06  0.00000000000E+00  1.
      -15    2    3    3    0    0  1.31878846798E+01 -4.04310005951E+01  2.30577235914E+01  4.84086949515E+01  1.77680000000E+00  0.00000000000E+00  1.
       15    2    3    3    0    0  1.32803652768E+01  8.64711354191E+01  1.24045696587E+02  1.51802889375E+02  1.77680000000E+00  0.00000000000E+00  1.
       24    2   14   14    0    0  1.30027534330E+01 -3.90403015397E+01  2.24969830355E+01  4.68978185792E+01  2.72764808091E-01  0.00000000000E+00  1.
      -24    2   15   15    0    0  9.83759528741E+00  5.94556958853E+01  8.54077759491E+01  1.04531592062E+02  7.79417878859E-01  0.00000000000E+00  1.
       16    1   16   16    0    0  2.15992283557E+00 -6.17376609851E+00  3.55723311140E+00  7.44543900006E+00  2.18414504073E-07  0.00000000000E+00  1.
      -16    1   14   14    0    0  1.85131246867E-01 -1.39069905544E+00  5.60740555886E-01  1.51087637231E+00  2.85158136718E-08  0.00000000000E+00  1.
      -15    1   16   16    0    0  1.08428305974E+01 -3.28665354411E+01  1.89397499241E+01  3.94523795791E+01  5.26835606386E-07  0.00000000000E+00  1.
       15    1   17   17    0    0  9.44805812148E+00  5.78261440329E+01  8.29473446153E+01  1.01554865539E+02  1.05367121277E-06  0.00000000000E+00  1.
       16    1   15   15    0    0  3.44276998935E+00  2.70154395338E+01  3.86379206375E+01  4.72712973124E+01  0.00000000000E+00  0.00000000000E+00  1.
      -16    1   17   17    0    0  3.89537165929E-01  1.62955185238E+00  2.46043133375E+00  2.97672652276E+00  6.58544507983E-08  0.00000000000E+00  1.
</event>
<event>
23  80   1.0000000E+00   2.3570000E+02   7.8125000E-03   1.1298309E-01
       21   -1    0    0  501  510  0.00000000000E+00  0.00000000000E+00  3.94687911369E+02  3.94687911369E+02  0.00000000000E+00  0.00000000000E+00  1.
       21   -1    0    0  510  502  0.00000000000E+00  0.00000000000E+00 -4.55318465585E+02  4.55318465585E+02  0.00000000000E+00  0.00000000000E+00  1.
       25    2    1    2    0    0 -1.06259568578E+02 -2.64668427664E+02  1.58715024920E+01  3.11797012667E+02  1.25000000000E+02  0.00000000000E+00  1.
       -6    2    1    2    0  502  3.87771123039E+01  2.46662813846E+02  5.61038924569E+01  3.09669012823E+02  1.74358947522E+02  0.00000000000E+00  1.
        6    2    1    2  501    0  6.74824562745E+01  1.80056138176E+01 -1.32605949165E+02  2.28540351463E+02  1.72534838393E+02  0.00000000000E+00  1.
       -5    1    4    4    0  502  5.17981462976E+01  1.73294870400E+02 -1.01596536763E+01  1.81217938212E+02  4.75000000000E+00  0.00000000000E+00  1.
      -24    2    4    4    0    0 -1.30210339937E+01  7.33679434462E+01  6.62635461332E+01  1.28451074612E+02  8.09717146349E+01  0.00000000000E+00  1.
        3    1    7    7  704    0 -2.01074158888E+01  8.50276289945E+01  3.46025323891E+01  9.39752154235E+01  1.50789149292E-06  0.00000000000E+00  1.
       -4    1    7    7    0  704  7.08638189512E+00 -1.16596855483E+01  3.16610137441E+01  3.44758591881E+01  1.81574180266E-06  0.00000000000E+00  1.
        5    1    5    5  501    0  9.94913275084E+01  1.00978387059E+01 -6.47550388983E+01  1.19231993016E+02  4.75000000000E+00  0.00000000000E+00  1.
       24    2    5    5    0    0 -3.20088712339E+01  7.90777511174E+00 -6.78509102665E+01  1.09308358447E+02  7.91041747156E+01  0.00000000000E+00  1.
      -11    1   11   11    0    0  6.68364092546E+00 -1.14014791422E+01 -6.46058426894E+01  6.59437615891E+01  5.10998597706E-04  0.00000000000E+00  1.
       12    1   11   11    0    0 -3.86925121593E+01  1.93092542539E+01 -3.24506757710E+00  4.33645968576E+01  1.26229635385E-06  0.00000000000E+00  1.
      -15    2    3    3    0    0 -2.28760373360E+01 -7.28027741796E+01 -5.14150176132E+01  9.20337876372E+01  1.77680000000E+00  0.00000000000E+00  1.
       15    2    3    3    0    0 -8.33835312420E+01 -1.91865653484E+02  6.72865201052E+01  2.19763225030E+02  1.77680000000E+00  0.00000000000E+00  1.
       24    2   14   14    0    0 -1.99464956288E+01 -6.24718358068E+01 -4.41739995065E+01  7.90822299896E+01  1.43663175207E+00  0.00000000000E+00  1.
      -24    2   15   15    0    0 -4.83744815526E+01 -1.10534976470E+02  3.79459752109E+01  1.26483108400E+02  9.04826327948E-02  0.00000000000E+00  1.
        2    1   16   16  803    0 -1.71186513291E+01 -5.49004545294E+01 -3.90473698449E+01  6.95111877518E+01  1.17804022885E-06  0.00000000000E+00  1.
      -16    1   14   14    0    0 -2.92954170723E+00 -1.03309383728E+01 -7.24101810677E+00  1.29515576476E+01  3.22619603494E-07  0.00000000000E+00  1.
       -1    1   16   16    0  803 -2.82784429965E+00 -7.57138127737E+00 -5.12662966156E+00  9.57104223776E+00  1.86264514923E-07  0.00000000000E+00  1.
       15    1   17   17    0    0 -4.07639873229E+01 -9.32162324292E+01  3.19794239705E+01  1.06647326306E+02  1.29047841398E-06  0.00000000000E+00  1.
       16    1   15   15    0    0 -3.50090496894E+01 -8.13306770141E+01  2.93405448943E+01  9.32801166296E+01  8.33000234328E-07  0.00000000000E+00  1.
      -16    1   17   17    0    0 -7.61049422973E+00 -1.73187440410E+01  5.96655124047E+00  1.98357820941E+01  2.28126509374E-07  0.00000000000E+00  1.
</event>
<event>
23  80   1.0000000E+00   2.3570000E+02   7.8125000E-03   1.1298309E-01
       21   -1    0    0  501  510  0.00000000000E+00  0.00000000000E+00  3.28110057137E+02  3.28110057137E+02  0.00000000000E+00  0.00000000000E+00  1.
       21   -1    0    0  510  502  0.00000000000E+00  0.00000000000E+00 -2.46479702743E+02  2.46479702743E+02  0.00000000000E+00  0.00000000000E+00  1.
       25    2    1    2    0    0  1.11912076002E+02  3.25223637932E+01  3.78563817569E+01  1.75043201929E+02  1.25000000000E+02  0.00000000000E+00  1.
       -6    2    1    2    0  502 -2.38420418622E+01  1.81501727550E+01  8.34509523392E+01  1.95080962377E+02  1.73766074664E+02  0.00000000000E+00  1.
        6    2    1    2  501    0 -8.80700341397E+01 -5.06725365482E+01 -3.96769797017E+01  2.04465595575E+02  1.72938949292E+02  0.00000000000E+00  1.
       -5    1    4    4    0  502 -2.42495062861E+00  4.47434758922E+01 -2.97762496794E+01  5.40096895514E+01  4.75000000000E+00  0.00000000000E+00  1.
      -24    2    4    4    0    0 -2.14170912336E+01 -2.65933031372E+01  1.13227202019E+02  1.41071272825E+02  7.69077965548E+01  0.00000000000E+00  1.
        3    1    7    7  704    0  1.09375066971E+01 -4.36260653369E+01  7.94306683034E+01  9.12803028952E+01  1.34869915235E-06  0.00000000000E+00  1.
       -4    1    7    7    0  704 -3.23545979307E+01  1.70327621996E+01  3.37965337152E+01  4.97909699300E+01  4.76837158203E-07  0.00000000000E+00  1.
        5    1    5    5  501    0 -8.19425763021E+01 -7.02315608660E+01  9.36389738156E+00  1.08431098062E+02  4.75000000000E+00  0.00000000000E+00  1.
       24    2    5    5    0    0 -6.12745783752E+00  1.95590243178E+01 -4.90408770832E+01  9.60344975134E+01  7.99844729666E+01  0.00000000000E+00  1.
       -3    1   11   11    0  703  3.59991214428E+01 -1.20971798616E-01 -2.34046919919E+01  4.29386886859E+01  8.25906184945E-07  0.00000000000E+00  1.
        4    1   11   11  703    0 -4.21265792803E+01  1.96799961164E+01 -2.56361850913E+01  5.30958088274E+01  1.06624029994E-06  0.00000000000E+00  1.
      -15    2    3    3    0    0  1.39021535490E+02  1.83802696856E+01  2.98091077180E+01  1.43375596128E+02  1.77680000000E+00  0.00000000000E+00  1.
       15    2    3    3    0    0 -2.71094594882E+01  1.41420941076E+01  8.04727403885E+00  3.16676058013E+01  1.77680000000E+00  0.00000000000E+00  1.
       24    2   14   14    0    0  2.83124727510E+01  3.12189064000E+00  5.69022201544E+00  2.90469673804E+01  7.33005307824E-02  0.00000000000E+00  1.
      -24    2   15   15    0    0 -1.03740189540E+01  4.94325379832E+00  3.25594750984E+00  1.19787652357E+01  9.13014245871E-01  0.00000000000E+00  1.
       16    1   16   16    0    0  1.64701776331E+01  1.82051942650E+00  3.27366163436E+00  1.68907638295E+01  2.28126509374E-07  0.00000000000E+00  1.
      -16    1   14   14    0    0  1.10709062739E+02  1.52583790456E+01  2.41188857026E+01  1.14328628747E+02  2.21959786263E-06  0.00000000000E+00  1.
      -15    1   16   16    0    0  1.18422951179E+01  1.30137121350E+00  2.41656038108E+00  1.21562035509E+01  1.04125029291E-07  0.00000000000E+00  1.
        1    1   17   17  804    0 -6.03869924757E+00  2.41005044649E+00  2.00741125929E+00  6.80469923811E+00  2.63417803193E-07  0.00000000000E+00  1.
       16    1   15   15    0    0 -1.67354405343E+01  9.19884030933E+00  4.79132652901E+00  1.96888405657E+01  6.68349680230E-07  0.00000000000E+00  1.
       -2    1   17   17    0  804 -4.33531970638E+00  2.53320335183E+00  1.24853625055E+00  5.17406599757E+00  1.10441271454E-07  0.00000000000E+00  1.
</event>
<event>
23  80   1.0000000E+00   2.3570000E+02   7.8125000E-03   1.1298309E-01
       21   -1    0    0  501  510  0.00000000000E+00  0.00000000000E+00  6.31173579428E+02  6.31173579428E+02  0.00000000000E+00  0.00000000000E+00  1.
       21   -1    0    0  510  502  0.00000000000E+00  0.00000000000E+00 -2.01069293678E+02  2.01069293678E+02  0.00000000000E+00  0.00000000000E+00  1.
       25    2    1    2    0    0  3.48525345509E+01  1.53412224309E+01 -2.11279233474E+01  1.32368581677E+02  1.25000000000E+02  0.00000000000E+00  1.
       -6    2    1    2    0  502  1.04107779860E+01  2.66516559018E+01  4.81081964683E+02  5.12078688967E+02  1.73106995500E+02  0.00000000000E+00  1.
        6    2    1    2  501    0 -4.52633125368E+01 -4.19928783327E+01 -2.98497555854E+01  1.87795602462E+02  1.74825659167E+02  0.00000000000E+00  1.
       -5    1    4    4    0  502  4.49247465885E+01 -4.34414047172E+01  1.57380969876E+02  1.69401064575E+02  4.75000000000E+00  0.00000000000E+00  1.
      -24    2    4    4    0    0 -3.45139686025E+01  7.00930606190E+01  3.23700994807E+02  3.42677624393E+02  8.08787304863E+01  0.00000000000E+00  1.
        1    1    7    7  704    0  2.53118850325E+01  1.46508523308E+01  1.13460963202E+02  1.17169659761E+02  3.01578298585E-06  0.00000000000E+00  1.
       -2    1    7    7    0  704 -5.98258536350E+01  5.54422082882E+01  2.10240031605E+02  2.25507964632E+02  0.00000000000E+00  0.00000000000E+00  1.
        5    1    5    5  501    0 -8.16868880026E+01  5.36998073299E+00  1.74007999069E+00  8.20193559045E+01  4.75000000000E+00  0.00000000000E+00  1.
       24    2    5    5    0    0  3.64235754658E+01 -4.73628590657E+01 -3.15898355761E+01  1.05776246557E+02  8.13681716363E+01  0.00000000000E+00  1.
      -11    1   11   11    0    0  7.63407288441E+00  1.25316773559E+01  1.77337224813E+01  2.30175350431E+01  5.11001823652E-04  0.00000000000E+00  1.
       12    1   11   11    0    0  2.87895025814E+01 -5.98945364216E+01 -4.93235580574E+01  8.27587115142E+01  1.34869915235E-06  0.00000000000E+00  1.
      -15    2    3    3    0    0 -3.51134712602E+01  4.16251126517E+01 -1.85688132218E+01  5.75635623456E+01  1.77680000000E+00  0.00000000000E+00  1.
       15    2    3    3    0    0  6.99660058111E+01 -2.62838902208E+01 -2.55911012563E+00  7.48050193314E+01  1.77680000000E+00  0.00000000000E+00  1.
       24    2   14   14    0    0 -1.03760610465E+01  1.17876528553E+01 -5.97092529182E+00  1.68091729932E+01  5.33802584969E-01  0.00000000000E+00  1.
      -24    2   15   15    0    0  6.26933550333E+01 -2.33352799665E+01 -1.78398573253E+00  6.69191731757E+01  3.28172504821E-02  0.00000000000E+00  1.
       16    1   16   16    0    0 -6.86153834244E+00  7.42716152661E+00 -3.75768553311E+00  1.07871978443E+01  2.18414504073E-07  0.00000000000E+00  1.
      -16    1   14   14    0    0 -2.47374102137E+01  2.98374597965E+01 -1.25978879300E+01  4.07543893524E+01  8.73658016291E-07  0.00000000000E+00  1.
      -15    1   16   16    0    0 -3.51452270403E+00  4.36049132866E+00 -2.21323975871E+00  6.02197514890E+00  1.04125029291E-07  0.00000000000E+00  1.
       15    1   17   17    0    0  5.11756357889E+01 -1.90415138176E+01 -1.46722026197E+00  5.46230508317E+01  1.17573711769E-07  0.00000000000E+00  1.
       16    1   15   15    0    0  7.27265077775E+00 -2.94861025438E+00 -7.75124393100E-01  7.88584615575E+00  1.02485162565E-07  0.00000000000E+00  1.
      -16    1   17   17    0    0  1.15177192444E+01 -4.29376614883E+00 -3.16765470557E-01  1.22961223440E+01  2.12557609618E-07  0.00000000000E+00  1.
</event>
<event>
23  80   1.0000000E+00   2.3570000E+02   7.8125000E-03   1.1298309E-01
       21   -1    0    0  501  510  0.00000000000E+00  0.00000000000E+00  7.79156461312E+02  7.79156461312E+02  0.00000000000E+00  0.00000000000E+00  1.
       21   -1    0    0  510  502  0.00000000000E+00  0.00000000000E+00 -4.20392134315E+02  4.20392134315E+02  0.00000000000E+00  0.00000000000E+00  1.
       25    2    1    2    0    0 -2.77989272908E+02  1.02540895294E+02 -3.93854998996E+01  3.23989025527E+02  1.25000000000E+02  0.00000000000E+00  1.
       -6    2    1    2    0  502  1.74071981536E+02  2.65185123927E+02  1.71699286992E+02  3.99735007818E+02  1.72288207994E+02  0.00000000000E+00  1.
        6    2    1    2  501    0  1.03917291372E+02 -3.67726019221E+02  2.26450539905E+02  4.75824562282E+02  1.70610487336E+02  0.00000000000E+00  1.
       -5    1    4    4    0  502  8.34253457536E+01  7.10302311897E+01 -6.14278796988E+00  1.09842516363E+02  4.75000000000E+00  0.00000000000E+00  1.
      -24    2    4    4    0    0  9.06466357826E+01  1.94154892737E+02  1.77842074962E+02  2.89892491455E+02  8.06034616056E+01  0.00000000000E+00  1.
        3    1    7    7  704    0  1.04016554248E+02  1.83812646970E+02  1.70624427308E+02  2.71512850411E+02  1.90734863281E-06  0.00000000000E+00  1.
       -4    1    7    7    0  704 -1.33699184652E+01  1.03422457670E+01  7.21764765314E+00  1.83796410443E+01  3.00042937962E-06  0.00000000000E+00  1.
        5    1    5    5  501    0 -2.84607516178E+01 -1.20642738380E+02  3.80997088478E+01  1.29764536838E+02  4.75000000000E+00  0.00000000000E+00  1.
       24    2    5    5    0    0  1.32378042990E+02 -2.47083280841E+02  1.88350831057E+02  3.46060025443E+02  7.55474136760E+01  0.00000000000E+00  1.
       -1    1   11   11    0  703  5.89963262522E+01 -1.00311725014E+02  3.51507598275E+01  1.21567202004E+02  3.47142691101E-06  0.00000000000E+00  1.
        2    1   11   11  703    0  7.33817167375E+01 -1.46771555826E+02  1.53200071230E+02  2.24492823439E+02  3.81469726562E-06  0.00000000000E+00  1.
      -15    2    3    3    0    0 -3.24183655869E+01 -2.03383776635E+01  1.97306383609E+01  4.30935626477E+01  1.77680000000E+00  0.00000000000E+00  1.
       15    2    3    3    0    0 -2.45570907321E+02  1.22879272957E+02 -5.91161382605E+01  2.80895462879E+02  1.77680000000E+00  0.00000000000E+00  1.
       24    2   14   14    0    0 -2.43203137550E+01 -1.53826426435E+01  1.56674706617E+01  3.27665551039E+01  2.72287712905E-01  0.00000000000E+00  1.
      -24    2   15   15    0    0 -5.30078032528E+01  2.60024987855E+01 -1.31670860850E+01  6.04936166570E+01  3.85164231067E-01  0.00000000000E+00  1.
       16    1   16   16    0    0 -5.90199181727E+00 -3.62162349234E+00  3.69216268710E+00  7.84740271933E+00  1.39698386192E-07  0.00000000000E+00  1.
      -16    1   14   14    0    0 -8.09805183186E+00 -4.95573502001E+00  4.06316769916E+00  1.03270075439E+01  3.29272253991E-07  0.00000000000E+00  1.
      -15    1   16   16    0    0 -1.84183219377E+01 -1.17610191511E+01  1.19753079746E+01  2.49191523845E+01  6.03566011266E-07  0.00000000000E+00  1.
        5    1   17   17  804    0 -2.31745554862E+01  1.15726165483E+01 -5.83093498245E+00  2.65515588719E+01  1.97563352395E-07  0.00000000000E+00  1.
       16    1   15   15    0    0 -1.92563104068E+02  9.68767741719E+01 -4.59490521754E+01  2.20401846222E+02  2.73751811249E-06  0.00000000000E+00  1.
       -4    1   17   17    0  804 -2.98332477667E+01  1.44298822372E+01 -7.33615110259E+00  3.39420577851E+01  2.63417803193E-07  0.00000000000E+00  1.
</event>
<event>
23  80   1.0000000E+00   2.3570000E+02   7.8125000E-03   1.1298309E-01
       21   -1    0    0  501  510  0.00000000000E+00  0.00000000000E+00  8.62463970992E+01  8.62463970992E+01  0.00000000000E+00  0.00000000000E+00  1.
       21   -1    0    0  510  502  0.00000000000E+00  0.00000000000E+00 -1.85753983474E+03  1.85753983474E+03  0.00000000000E+00  0.00000000000E+00  1.
       25    2    1    2    0    0 -2.96623562214E+01 -2.37376937165E+02 -3.62963948927E+02  4.52322334067E+02  1.25000000000E+02  0.00000000000E+00  1.
       -6    2    1    2    0  502 -8.46941005038E+01  5.69736398337E+01 -4.24833442249E+02  4.70342667924E+02  1.74125487280E+02  0.00000000000E+00  1.
        6    2    1    2  501    0  1.14356456725E+02  1.80403297331E+02 -9.83496046460E+02  1.02112122984E+03  1.72630657049E+02  0.00000000000E+00  1.
       -5    1    4    4    0  502 -1.85222080542E+00  7.71563248736E+01 -1.08612437372E+02  1.33325741107E+02  4.75000000000E+00  0.00000000000E+00  1.
      -24    2    4    4    0    0 -8.28418796984E+01 -2.01826850399E+01 -3.16221004878E+02  3.37016926817E+02  7.94642512590E+01  0.00000000000E+00  1.
       11    1    7    7    0    0 -8.90362046497E+01 -1.37424248528E+00 -2.94298163879E+02  3.07474785216E+02  5.10984358804E-04  0.00000000000E+00  1.
      -12    1    7    7    0    0  6.19432495136E+00 -1.88084425546E+01 -2.19228409984E+01  2.95421416010E+01  4.00372877687E-06  0.00000000000E+00  1.
        5    1    5    5  501    0  9.63292222400E+01  7.47301441086E+01 -6.78739652021E+02  6.89618728880E+02  4.74999999999E+00  0.00000000000E+00  1.
       24    2    5    5    0    0  1.80272344852E+01  1.05673153223E+02 -3.04756394438E+02  3.31502500964E+02  7.43347274099E+01  0.00000000000E+00  1.
      -11    1   11   11    0    0  2.39514369762E+00  8.04498247183E+01 -2.84267247160E+02  2.95441667371E+02  5.10984358804E-04  0.00000000000E+00  1.
       12    1   11   11    0    0  1.56320907875E+01  2.52233285046E+01 -2.04891472776E+01  3.60608335927E+01  5.35779119831E-06  0.00000000000E+00  1.
      -15    2    3    3    0    0 -3.71698479943E+01 -2.28563471220E+02 -2.57909694571E+02  3.46617116640E+02  1.77680000001E+00  0.00000000000E+00  1.
       15    2    3    3    0    0  7.50749177291E+00 -8.81346594502E+00 -1.05054254356E+02  1.05705217427E+02  1.77680000000E+00  0.00000000000E+00  1.
       24    2   14   14    0    0 -1.57599221792E+01 -1.01963796237E+02 -1.14839885740E+02  1.54380718349E+02  4.64705172317E-01  0.00000000000E+00  1.
      -24    2   15   15    0    0  6.57940801376E+00 -7.22835256526E+00 -8.26969219056E+01  8.32725573484E+01  1.49685597947E-02  0.00000000000E+00  1.
       12    1   16   16    0    0 -3.96388032807E+00 -2.68552868323E+01 -3.03468640054E+01  4.07167156468E+01  0.00000000000E+00  0.00000000000E+00  1.
      -16    1   14   14    0    0 -2.14099258151E+01 -1.26599674983E+02 -1.43069808830E+02  1.92236398291E+02  0.00000000000E+00  0.00000000000E+00  1.
      -11    1   16   16    0    0 -1.17960418511E+01 -7.51085094047E+01 -8.44930217349E+01  1.13664002702E+02  1.05367121277E-06  0.00000000000E+00  1.
       15    1   17   17    0    0  3.51663320207E+00 -3.86822012873E+00 -4.42878744859E+01  4.45953547191E+01  9.12506037497E-07  0.00000000000E+00  1.
       16    1   15   15    0    0  9.28083759154E-01 -1.58511337976E+00 -2.23573324508E+01  2.24326600787E+01  0.00000000000E+00  0.00000000000E+00  1.
      -16    1   17   17    0    0  3.06277481169E+00 -3.36013243653E+00 -3.84090474197E+01  3.86772026293E+01  1.05367121277E-06  0.00000000000E+00  1.
</event>
<event>
23  80   1.0000000E+00   2.3570000E+02   7.8125000E-03   1.1298309E-01
       21   -1    0    0  501  510  0.00000000000E+00  0.00000000000E+00  1.30837906018E+02  1.30837906018E+02  0.00000000000E+00  0.00000000000E+00  1.
       21   -1    0    0  510  502  0.00000000000E+00  0.00000000000E+00 -5.58348441809E+02  5.58348441809E+02  0.00000000000E+00  0.00000000000E+00  1.
       25    2    1    2    0    0 -6.70786295157E+01 -1.03741497243E+01 -1.25187327694E+02  1.89483594370E+02  1.25000000000E+02  0.00000000000E+00  1.
       -6    2    1    2    0  502 -1.06731808999E+01  2.16762612979E+01 -4.86633400024E+01  1.82409261691E+02  1.74129954333E+02  0.00000000000E+00  1.
        6    2    1    2  501    0  7.77518104156E+01 -1.13021115736E+01 -2.53659868094E+02  3.17293491766E+02  1.73662746398E+02  0.00000000000E+00  1.
       -5    1    4    4    0  502  2.84794266408E+01 -3.09783714679E+01  3.06613675498E+01  5.22821116694E+01  4.75000000000E+00  0.00000000000E+00  1.
      -24    2    4    4    0    0 -3.91526075407E+01  5.26546327658E+01 -7.93247075522E+01  1.30127150021E+02  7.95941512646E+01  0.00000000000E+00  1.
        1    1    7    7  704    0 -5.20653802155E+01  4.99260950645E+01 -2.84067084153E+01  7.75265107455E+01  1.26159253648E-06  0.00000000000E+00  1.
       -2    1    7    7    0  704  1.29127726748E+01  2.72853770128E+00 -5.09179991369E+01  5.26006392760E+01  9.53674316406E-07  0.00000000000E+00  1.
        5    1    5    5  501    0  1.60574102792E+01 -3.07586611269E+01 -1.97776127838E+02  2.00852918579E+02  4.75000000000E+00  0.00000000000E+00  1.
       24    2    5    5    0    0  6.16944001364E+01  1.94565495534E+01 -5.58837402566E+01  1.16440573187E+02  7.90611050416E+01  0.00000000000E+00  1.
       -3    1   11   11    0  703 -1.01870066295E+01  2.78293595073E+01 -1.91471034301E+01  3.52825725311E+01  3.37174788087E-07  0.00000000000E+00  1.
        4    1   11   11  703    0  7.18814067660E+01 -8.37280995388E+00 -3.67366368266E+01  8.11580006562E+01  8.25906184945E-07  0.00000000000E+00  1.
      -15    2    3    3    0    0 -1.29006016622E+01  4.94423925885E+01 -1.57592664768E+01  5.35022168349E+01  1.77680000000E+00  0.00000000000E+00  1.
       15    2    3    3    0    0 -5.41780278535E+01 -5.98165423128E+01 -1.09428061217E+02  1.35981377535E+02  1.77680000000E+00  0.00000000000E+00  1.
       24    2   14   14    0    0 -1.20966264014E+01  4.45090372488E+01 -1.44367855269E+01  4.83317887104E+01  3.97814639835E-01  0.00000000000E+00  1.
      -24    2   15   15    0    0 -5.06044537418E+01 -5.56475847526E+01 -1.01283271678E+02  1.26158534988E+02  4.58695082208E-01  0.00000000000E+00  1.
       16    1   16   16    0    0 -5.24162778185E+00  1.87532926535E+01 -5.95006094303E+00  2.03608416421E+01  5.22703498617E-07  0.00000000000E+00  1.
      -16    1   14   14    0    0 -8.03975260814E-01  4.93335533970E+00 -1.32248094990E+00  5.17042812450E+00  1.64636126996E-08  0.00000000000E+00  1.
      -15    1   16   16    0    0 -6.85499861958E+00  2.57557445953E+01 -8.48672458384E+00  2.79709470683E+01  6.45239206988E-07  0.00000000000E+00  1.
        3    1   17   17  804    0 -1.12600517172E+01 -1.26403168292E+01 -2.26591971411E+01  2.82843700530E+01  4.56253018749E-07  0.00000000000E+00  1.
       16    1   15   15    0    0 -3.57357411163E+00 -4.16895756016E+00 -8.14478953897E+00  9.82284254703E+00  1.31708901597E-07  0.00000000000E+00  1.
       -4    1   17   17    0  804 -3.93444020246E+01 -4.30072679234E+01 -7.86240745372E+01  9.78741649351E+01  2.10734242554E-06  0.00000000000E+00  1.
</event>
<event>
23  80   1.0000000E+00   2.3570000E+02   7.8125000E-03   1.1298309E-01
       21   -1    0    0  501  510  0.00000000000E+00  0.00000000000E+00  6.67555492231E+01  6.67555492231E+01  0.00000000000E+00  0.00000000000E+00  1.
       21   -1    0    0  510  502  0.00000000000E+00  0.00000000000E+00 -1.15712764657E+03  1.15712764657E+03  0.00000000000E+00  0.00000000000E+00  1.
       25    2    1    2    0    0  7.50654018430E+01  2.43478277992E+01 -1.62963203372E+02  2.20021901014E+02  1.25000000000E+02  0.00000000000E+00  1.
       -6    2    1    2    0  502 -1.65629828729E+01 -8.04314422278E+01 -4.50480022893E+02  4.89714996137E+02  1.73623089233E+02  0.00000000000E+00  1.
        6    2    1    2  501    0 -5.85024189700E+01  5.60836144286E+01 -4.76928871084E+02  5.14146298645E+02  1.74118820075E+02  0.00000000000E+00  1.
       -5    1    4    4    0  502 -4.57953850505E+01 -8.63041352975E+01 -3.06742994852E+02  3.21961874221E+02  4.75000000000E+00  0.00000000000E+00  1.
      -24    2    4    4    0    0  2.92324021776E+01  5.87269306966E+00 -1.43737028042E+02  1.67753121916E+02  8.11896226203E+01  0.00000000000E+00  1.
        3    1    7    7  704    0  7.99984118444E+00 -3.74230730540E+01 -6.31823982574E+01  7.38681210357E+01  1.50789149292E-06  0.00000000000E+00  1.
       -4    1    7    7    0  704  2.12325609931E+01  4.32957661236E+01 -8.05546297845E+01  9.38850008802E+01  1.90734863281E-06  0.00000000000E+00  1.
        5    1    5    5  501    0 -3.74427840977E+01 -4.52306325208E+01 -1.16939504042E+02  1.30939613200E+02  4.75000000000E+00  0.00000000000E+00  1.
       24    2    5    5    0    0 -2.10596348724E+01  1.01314246949E+02 -3.59989367041E+02  3.83206685445E+02  8.09131295357E+01  0.00000000000E+00  1.
      -11    1   11   11    0    0 -1.60804042971E+01  2.78413654847E+01 -2.64462333455E+01  4.16308094185E+01  5.11006161962E-04  0.00000000000E+00  1.
       12    1   11   11    0    0 -4.97923057528E+00  7.34728814646E+01 -3.33543133696E+02  3.41575876027E+02  6.60724947956E-06  0.00000000000E+00  1.
      -15    2    3    3    0    0 -3.06071296571E+01 -1.41397016928E+01 -5.21673914378E+01  6.21395308759E+01  1.77680000000E+00  0.00000000000E+00  1.
       15    2    3    3    0    0  1.05672531500E+02  3.84875294920E+01 -1.10795811934E+02  1.57882370138E+02  1.77680000000E+00  0.00000000000E+00  1.
       24    2   14   14    0    0 -2.12184016972E+01 -8.91255251328E+00 -3.52751712248E+01  4.21190812062E+01  1.58536532768E-01  0.00000000000E+00  1.
      -24    2   15   15    0    0  1.02521952206E+01  3.72098200129E+00 -1.13231541845E+01  1.57255446252E+01  3.54569004731E-01  0.00000000000E+00  1.
       16    1   16   16    0    0 -1.14726730122E+01 -4.74431507980E+00 -1.90997591209E+01  2.27800691417E+01  5.26835606386E-07  0.00000000000E+00  1.
      -16    1   14   14    0    0 -9.38872795994E+00 -5.22714917953E+00 -1.68922202131E+01  2.00204496697E+01  3.22619603494E-07  0.00000000000E+00  1.
      -15    1   16   16    0    0 -9.74572868498E+00 -4.16823743348E+00 -1.61754121038E+01  1.93390120645E+01  2.63417803193E-07  0.00000000000E+00  1.
       15    1   17   17    0    0  7.28979818768E+00  2.53628400318E+00 -7.83108416690E+00  1.09954433012E+01  1.86264514923E-07  0.00000000000E+00  1.
       16    1   15   15    0    0  9.54203362795E+01  3.47665474907E+01 -9.94726577497E+01  1.42156825513E+02  1.49011611938E-06  0.00000000000E+00  1.
      -16    1   17   17    0    0  2.96239703292E+00  1.18469799811E+00 -3.49207001757E+00  4.73010132397E+00  4.65661287308E-08  0.00000000000E+00  1.
</event>
<event>
23  80   1.0000000E+00   2.3570000E+02   7.8125000E-03   1.1298309E-01
       21   -1    0    0  501  510  0.00000000000E+00  0.00000000000E+00  3.17903981343E+02  3.17903981343E+02  0.00000000000E+00  0.00000000000E+00  1.
       21   -1    0    0  510  502  0.00000000000E+00  0.00000000000E+00 -8.09984802557E+02  8.09984802557E+02  0.00000000000E+00  0.00000000000E+00  1.
       25    2    1    2    0    0 -5.64612847645E+01 -3.04442921406E+02 -1.72025823559E+02  3.75621156276E+02  1.25000000000E+02  0.00000000000E+00  1.
       -6    2    1    2    0  502  2.41444886275E+02  2.23323016746E+02 -5.17186653590E+01  3.76421114101E+02  1.75639494070E+02  0.00000000000E+00  1.
        6    2    1    2  501    0 -1.84983601511E+02  8.11199046596E+01 -2.68336332295E+02  3.75846513523E+02  1.68691560956E+02  0.00000000000E+00  1.
       -5    1    4    4    0  502  6.95578628736E+01  1.27611541919E+02  3.02833782697E+01  1.48535004016E+02  4.75000000000E+00  0.00000000000E+00  1.
      -24    2    4    4    0    0  1.71887023402E+02  9.57114748269E+01 -8.20020436286E+01  2.27886110085E+02  8.06344143827E+01  0.00000000000E+00  1.
        1    1    7    7  704    0  8.28765415948E+01  2.54363278562E+01  2.06535717860E+00  8.67167436070E+01  7.25733975284E-07  0.00000000000E+00  1.
       -2    1    7    7    0  704  8.90104818069E+01  7.02751469707E+01 -8.40674008072E+01  1.41169366478E+02  2.13248059988E-06  0.00000000000E+00  1.
        5    1    5    5  501    0 -3.35341170485E+01 -2.08685908789E+01  2.57204245318E+00  3.98649343895E+01  4.75000000000E+00  0.00000000000E+00  1.
       24    2    5    5    0    0 -1.51449484462E+02  1.01988495539E+02 -2.70908374749E+02  3.35981579133E+02  7.84453595944E+01  0.00000000000E+00  1.
       -3    1   11   11    0  703 -2.15091636748E+01  1.96566488891E-01 -8.35903248437E+01  8.63135283015E+01  9.53674316406E-07  0.00000000000E+00  1.
        4    1   11   11  703    0 -1.29940320787E+02  1.01791929050E+02 -1.87318049905E+02  2.49668050832E+02  0.00000000000E+00  0.00000000000E+00  1.
      -15    2    3    3    0    0  1.60559386532E+00 -2.18995305997E+00  1.50806962852E+01  1.54258952658E+01  1.77680000000E+00  0.00000000000E+00  1.
       15    2    3    3    0    0 -5.80668786298E+01 -3.02252968346E+02 -1.87106519844E+02  3.60195261010E+02  1.77680000001E+00  0.00000000000E+00  1.
       24    2   14   14    0    0  4.31943127503E-01 -1.32811640064E+00  8.86152917297E+00  9.03854385450E+00  1.10367915954E+00  0.00000000000E+00  1.
      -24    2   15   15    0    0 -3.49226900915E+01 -1.77619677296E+02 -1.10487977162E+02  2.12075337355E+02  1.07567132284E-01  0.00000000000E+00  1.
       14    1   16   16    0    0  1.36399275168E-01  1.72864360586E-01  6.65967188242E-01  7.01426507370E-01  1.63810878055E-07  0.00000000000E+00  1.
      -16    1   14   14    0    0  1.17365073781E+00 -8.61836659334E-01  6.21916711219E+00  6.38735141127E+00  4.74883198141E-07  0.00000000000E+00  1.
      -13    1   16   16    0    0  2.95543852334E-01 -1.50098076122E+00  8.19556198473E+00  8.33711734713E+00  2.79396772385E-07  0.00000000000E+00  1.
       15    1   17   17    0    0 -2.34671068200E+01 -1.19494334388E+02 -7.42778640777E+01  1.42642217261E+02  2.78775199262E-06  0.00000000000E+00  1.
       16    1   15   15    0    0 -2.31441885383E+01 -1.24633291050E+02 -7.66185426820E+01  1.48119923656E+02  2.10734242554E-06  0.00000000000E+00  1.
      -16    1   17   17    0    0 -1.14555832715E+01 -5.81253429082E+01 -3.62101130845E+01  6.94331200932E+01  0.00000000000E+00  0.00000000000E+00  1.
</event>
<event>
23  80   1.0000000E+00   2.3570000E+02   7.8125000E-03   1.1298309E-01
       21   -1    0    0  501  510  0.00000000000E+00  0.00000000000E+00  1.13826907156E+02  1.13826907156E+02  0.00000000000E+00  0.00000000000E+00  1.
       21   -1    0    0  510  502  0.00000000000E+00  0.00000000000E+00 -8.47455442838E+02  8.47455442838E+02  0.00000000000E+00  0.00000000000E+00  1.
       25    2    1    2    0    0 -5.50305997381E+01 -8.48136810386E+01 -2.70119820774E+02  3.14342878039E+02  1.25000000000E+02  0.00000000000E+00  1.
       -6    2    1    2    0  502 -2.94228020510E+01 -3.14696706101E+01 -3.59568937001E+02  4.01093474850E+02  1.72424225857E+02  0.00000000000E+00  1.
        6    2    1    2  501    0  8.44534017892E+01  1.16283351649E+02 -1.03939777907E+02  2.45845997105E+02  1.70242714725E+02  0.00000000000E+00  1.
       -5    1    4    4    0  502 -2.16879375600E+01 -3.24118688277E+01 -8.50971500200E+00  4.01979306175E+01  4.75000000000E+00  0.00000000000E+00  1.
      -24    2    4    4    0    0 -7.73486449103E+00  9.42198217617E-01 -3.51059221999E+02  3.60895544232E+02  8.33204694551E+01  0.00000000000E+00  1.
       11    1    7    7    0    0  3.28082965793E+01 -1.91408940181E+01 -1.79117727296E+02  1.83100842107E+02  5.11005717009E-04  0.00000000000E+00  1.
      -12    1    7    7    0    0 -4.05431610703E+01  2.00830922357E+01 -1.71941494702E+02  1.77794702125E+02  3.30362473978E-06  0.00000000000E+00  1.
        5    1    5    5  501    0 -1.35792394386E+01 -2.77220208249E+01 -1.66028565699E+01  3.53712245848E+01  4.75000000000E+00  0.00000000000E+00  1.
       24    2    5    5    0    0  9.80326412278E+01  1.44005372474E+02 -8.73369213374E+01  2.10474772521E+02  7.95232418324E+01  0.00000000000E+00  1.
      -15    1   11   11    0    0  5.06855301060E+01  1.24045895230E+02 -8.56882234894E+01  1.59066136398E+02  1.77680000000E+00  0.00000000000E+00  1.
       16    1   11   11    0    0  4.73471111218E+01  1.99594772439E+01 -1.64869784804E+00  5.14086361230E+01  1.11410472646E-06  0.00000000000E+00  1.
      -15    2    3    3    0    0 -8.67221949425E+01 -5.17701639983E+01 -2.37525550698E+02  2.58113217849E+02  1.77680000000E+00  0.00000000000E+00  1.
       15    2    3    3    0    0  3.16915952044E+01 -3.30435170403E+01 -3.25942700761E+01  5.62296601895E+01  1.77680000000E+00  0.00000000000E+00  1.
       24    2   14   14    0    0 -8.47841203073E+00 -5.60590635441E+00 -2.34529899454E+01  2.55615257136E+01  1.97996995144E-01  0.00000000000E+00  1.
      -24    2   15   15    0    0  2.98789067158E+01 -3.13255618062E+01 -3.06666068097E+01  5.30748075128E+01  1.56669406499E+00  0.00000000000E+00  1.
        2    1   16   16  803    0 -6.00313698722E+00 -3.94798889558E+00 -1.63547858225E+01  1.78634624109E+01  3.22619603494E-07  0.00000000000E+00  1.
      -16    1   14   14    0    0 -7.82437829118E+01 -4.61642576439E+01 -2.14072560752E+02  2.32551692136E+02  0.00000000000E+00  0.00000000000E+00  1.
       -1    1   16   16    0  803 -2.47527504352E+00 -1.65791745883E+00 -7.09820412295E+00  7.69806330270E+00  1.31708901597E-07  0.00000000000E+00  1.
        3    1   17   17  804    0  1.58584553924E+01 -1.67726685114E+01 -1.54006189465E+01  2.77487311487E+01  3.72529029846E-07  0.00000000000E+00  1.
       16    1   15   15    0    0  1.81268848858E+00 -1.71795523407E+00 -1.92766326642E+00  3.15485267669E+00  4.03274504367E-08  0.00000000000E+00  1.
       -4    1   17   17    0  804  1.40204513234E+01 -1.45528932948E+01 -1.52659878632E+01  2.53260763641E+01  2.63417803193E-07  0.00000000000E+00  1.
</event>
<event>
23  80   1.0000000E+00   2.3570000E+02   7.8125000E-03   1.1298309E-01
       21   -1    0    0  501  510  0.00000000000E+00  0.00000000000E+00  8.77398175367E+02  8.77398175367E+02  0.00000000000E+00  0.00000000000E+00  1.
       21   -1    0    0  510  502  0.00000000000E+00  0.00000000000E+00 -5.19215124067E+02  5.19215124067E+02  0.00000000000E+00  0.00000000000E+00  1.
       25    2    1    2    0    0 -5.94147414061E+00  3.92540445218E+00  1.50799795313E+02  1.96000735155E+02  1.25000000000E+02  0.00000000000E+00  1.
       -6    2    1    2    0  502 -7.07098452236E+01  3.25277460963E+02 -3.58844651969E+02  5.19078097819E+02  1.72821522290E+02  0.00000000000E+00  1.
        6    2    1    2  501    0  7.66513193642E+01 -3.29202865415E+02  5.66227907957E+02  6.81534466460E+02  1.72119824150E+02  0.00000000000E+00  1.
       -5    1    4    4    0  502  1.91371266370E+01  3.07129146196E+01  3.60448593818E+00  3.66751627022E+01  4.75000000000E+00  0.00000000000E+00  1.
      -24    2    4    4    0    0 -8.98469718606E+01  2.94564546343E+02 -3.62449137907E+02  4.82402935117E+02  8.06378566481E+01  0.00000000000E+00  1.
        1    1    7    7  704    0 -9.73438987962E+00 -1.35618520839E+00 -3.69314205376E+00  1.04993753565E+01  8.60167513190E-06  0.00000000000E+00  1.
       -2    1    7    7    0  704 -8.01125819810E+01  2.95920731552E+02 -3.58755995854E+02  4.71903559761E+02  1.07895932188E-05  0.00000000000E+00  1.
        5    1    5    5  501    0  7.66607253130E+01 -1.31014381621E+02  3.25759637361E+02  3.59421116284E+02  4.75000000000E+00  0.00000000000E+00  1.
       24    2    5    5    0    0 -9.40594871800E-03 -1.98188483794E+02  2.40468270595E+02  3.22113350176E+02  8.15680452209E+01  0.00000000000E+00  1.
       -3    1   11   11    0  703  2.59230534992E+01 -1.71303319645E+02  1.72083141349E+02  2.44191399440E+02  1.90734863281E-06  0.00000000000E+00  1.
        4    1   11   11  703    0 -2.59324594479E+01 -2.68851641492E+01  6.83851292465E+01  7.79219507354E+01  1.90734863281E-06  0.00000000000E+00  1.
      -15    2    3    3    0    0 -6.50688146459E+01  9.64776339067E-01  9.04606621165E+01  1.11450302115E+02  1.77680000000E+00  0.00000000000E+00  1.
       15    2    3    3    0    0  5.91273405053E+01  2.96062811311E+00  6.03391331965E+01  8.45504330396E+01  1.77680000000E+00  0.00000000000E+00  1.
       24    2   14   14    0    0 -3.59156006905E+01  1.31974272274E+00  4.99749358418E+01  6.15591213611E+01  5.99263335549E-01  0.00000000000E+00  1.
      -24    2   15   15    0    0  3.77585122503E+01  1.27361447875E+00  3.76554976005E+01  5.33411369912E+01  1.14257468191E-01  0.00000000000E+00  1.
        4    1   16   16  803    0 -4.14775593202E+00  2.42342081089E-01  6.07121181249E+00  7.35678067010E+00  2.08250058582E-07  0.00000000000E+00  1.
      -16    1   14   14    0    0 -2.91532139554E+01 -3.54966383673E-01  4.04857262747E+01  4.98911807543E+01  7.45058059692E-07  0.00000000000E+00  1.
       -3    1   16   16    0  803 -3.17678447585E+01  1.07740064165E+00  4.39037240293E+01  5.42023406910E+01  5.26835606386E-07  0.00000000000E+00  1.
       15    1   17   17    0    0  1.62994377854E+00  4.48341189058E-02  1.59582109391E+00  2.28152838754E+00  4.03274504367E-08  0.00000000000E+00  1.
       16    1   15   15    0    0  2.13688282549E+01  1.68701363436E+00  2.26836355959E+01  3.12092960484E+01  4.56253018749E-07  0.00000000000E+00  1.
      -16    1   17   17    0    0  3.61285684718E+01  1.22878035984E+00  3.60596765066E+01  5.10596086036E+01  5.26835606386E-07  0.00000000000E+00  1.
</event>
<event>
23  80   1.0000000E+00   2.3570000E+02   7.8125000E-03   1.1298309E-01
       21   -1    0    0  501  510  0.00000000000E+00  0.00000000000E+00  1.39088641541E+03  1.39088641541E+03  0.00000000000E+00  0.00000000000E+00  1.
       21   -1    0    0  510  502  0.00000000000E+00  0.00000000000E+00 -7.42558727827E+01  7.42558727827E+01  0.00000000000E+00  0.00000000000E+00  1.
       25    2    1    2    0    0 -1.11334686207E+01  6.77034065828E+01  1.25735453517E+02  1.90110782591E+02  1.25000000000E+02  0.00000000000E+00  1.
       -6    2    1    2    0  502  1.06841837392E+02  6.47737245695E+01  6.66374715731E+02  6.99438224804E+02  1.71894604163E+02  0.00000000000E+00  1.
        6    2    1    2  501    0 -9.57083687712E+01 -1.32477131152E+02  5.24520373379E+02  5.75593280797E+02  1.71684945983E+02  0.00000000000E+00  1.
       -5    1    4    4    0  502  9.92274497101E+01  6.36825258037E+01  5.00401177081E+02  5.14125910058E+02  4.75000000000E+00  0.00000000000E+00  1.
      -24    2    4    4    0    0  7.61438768172E+00  1.09119876586E+00  1.65973538650E+02  1.85312314747E+02  8.20625910525E+01  0.00000000000E+00  1.
       11    1    7    7    0    0  3.41689125839E+01  2.08221879970E+01  4.65142492954E+01  6.13567721440E+01  5.10997707787E-04  0.00000000000E+00  1.
      -12    1    7    7    0    0 -2.65545249022E+01 -1.97309892312E+01  1.19459289354E+02  1.23955542603E+02  1.90734863281E-06  0.00000000000E+00  1.
        5    1    5    5  501    0 -5.16169876749E+01 -1.32814128372E+02  3.63181592611E+02  3.90163219465E+02  4.75000000001E+00  0.00000000000E+00  1.
       24    2    5    5    0    0 -4.40913810963E+01  3.36997219501E-01  1.61338780768E+02  1.85430061331E+02  8.00621134591E+01  0.00000000000E+00  1.
      -11    1   11   11    0    0 -4.46771917180E-01  2.07263247996E+01  1.20518004521E+02  1.22288059756E+02  5.11002157370E-04  0.00000000000E+00  1.
       12    1   11   11    0    0 -4.36446091791E+01 -2.03893275801E+01  4.08207762471E+01  6.31420015757E+01  4.76837158203E-07  0.00000000000E+00  1.
      -15    2    3    3    0    0 -2.52786218271E+01  1.78833305125E+01  1.34082580009E+02  1.37623099485E+02  1.77680000000E+00  0.00000000000E+00  1.
       15    2    3    3    0    0  1.41451532064E+01  4.98200760703E+01 -8.34712649248E+00  5.24876831057E+01  1.77680000000E+00  0.00000000000E+00  1.
       24    2   14   14    0    0 -8.81072649340E+00  6.91033998223E+00  4.89167575193E+01  5.01884643666E+01  8.06901028054E-01  0.00000000000E+00  1.
      -24    2   15   15    0    0  1.17533536834E+01  4.02282671441E+01 -6.12629089322E+00  4.23557724175E+01  1.58797825643E-01  0.00000000000E+00  1.
        4    1   16   16  803    0 -6.51441242181E-01  6.13727957224E-01  3.08663501946E+00  3.21377557413E+00  3.29272253991E-08  0.00000000000E+00  1.
      -16    1   14   14    0    0 -1.64678953337E+01  1.09729905302E+01  8.51658224902E+01  8.74346351187E+01  1.49011611938E-06  0.00000000000E+00  1.
       -3    1   16   16    0  803 -8.15928525122E+00  6.29661202501E+00  4.58301224998E+01  4.69746887925E+01  5.26835606386E-07  0.00000000000E+00  1.
       15    1   17   17    0    0  3.36153325587E+00  1.13549268835E+01 -1.78934549041E+00  1.19764780985E+01  2.56113708019E-07  0.00000000000E+00  1.
       16    1   15   15    0    0  2.39179952294E+00  9.59180892621E+00 -2.22083559926E+00  1.01319106882E+01  2.92663580970E-07  0.00000000000E+00  1.
      -16    1   17   17    0    0  8.39182042755E+00  2.88733402606E+01 -4.33694540281E+00  3.03792943190E+01  7.52298832936E-07  0.00000000000E+00  1.
</event>
<event>
23  80   1.0000000E+00   2.3570000E+02   7.8125000E-03   1.1298309E-01
       21   -1    0    0  501  510  0.00000000000E+00  0.00000000000E+00  3.03883783329E+02  3.03883783329E+02  0.00000000000E+00  0.00000000000E+00  1.
       21   -1    0    0  510  502  0.00000000000E+00  0.00000000000E+00 -4.53650398643E+02  4.53650398643E+02  0.00000000000E+00  0.00000000000E+00  1.
       25    2    1    2    0    0 -4.20490926387E+01  1.92011283885E+02 -1.82991605270E+02  2.96221854241E+02  1.25000000000E+02  0.00000000000E+00  1.
       -6    2    1    2    0  502  1.07115970165E+02 -1.76969096760E+01  2.51665950739E+01  2.05454917385E+02  1.72601720425E+02  0.00000000000E+00  1.
        6    2    1    2  501    0 -6.50668775263E+01 -1.74314374209E+02  8.05839488150E+00  2.55857410346E+02  1.75439097962E+02  0.00000000000E+00  1.
       -5    1    4    4    0  502  5.24992640640E+01  5.50593906471E+01  3.44189812003E+01  8.36357459019E+01  4.75000000000E+00  0.00000000000E+00  1.
      -24    2    4    4    0    0  5.46167061010E+01 -7.27563003232E+01 -9.25238612643E+00  1.21819171483E+02  8.04850300971E+01  0.00000000000E+00  1.
       15    1    7    7    0    0 -2.12325342198E+01 -1.75170094422E+01 -6.09748287299E-01  2.75897615141E+01  1.77680000000E+00  0.00000000000E+00  1.
      -16    1    7    7    0    0  7.58492403208E+01 -5.52392908809E+01 -8.64263783913E+00  9.42294099689E+01  1.28944561796E-06  0.00000000000E+00  1.
        5    1    5    5  501    0 -8.28343577987E+01 -4.22987469127E+01 -2.16326781890E+01  9.56098848861E+01  4.75000000000E+00  0.00000000000E+00  1.
       24    2    5    5    0    0  1.77674802724E+01 -1.32015627297E+02  2.96910730705E+01  1.60247525460E+02  8.39875013920E+01  0.00000000000E+00  1.
       -1    1   11   11    0  703  4.56334587457E+01 -9.13894409135E+01 -1.09437728157E+00  1.02154980932E+02  2.30664969668E-06  0.00000000000E+00  1.
        2    1   11   11  703    0 -2.78659784733E+01 -4.06261863833E+01  3.07854503521E+01  5.80925445277E+01  1.46971082758E-06  0.00000000000E+00  1.
      -15    2    3    3    0    0 -5.09192563168E+01  1.88376474724E+02 -1.98207373202E+02  2.78150654688E+02  1.77680000000E+00  0.00000000000E+00  1.
       15    2    3    3    0    0  8.87016367809E+00  3.63480916085E+00  1.52157679317E+01  1.80711995535E+01  1.77680000000E+00  0.00000000000E+00  1.
       24    2   14   14    0    0 -2.43832182524E+01  8.97261331692E+01 -9.51489523578E+01  1.33040044077E+02  1.00493146918E+00  0.00000000000E+00  1.
      -24    2   15   15    0    0  2.65724729167E-01  3.07790544885E-01  1.20763852379E+00  1.29821198406E+00  2.48231545527E-01  0.00000000000E+00  1.
        4    1   16   16  803    0 -2.10949679911E+01  7.62637113878E+01 -8.09379382716E+01  1.13190552613E+02  1.05367121277E-06  0.00000000000E+00  1.
      -16    1   14   14    0    0 -2.65360380644E+01  9.86503415549E+01 -1.03058420844E+02  1.45110610611E+02  2.10734242554E-06  0.00000000000E+00  1.
       -3    1   16   16    0  803 -3.28825026130E+00  1.34624217814E+01 -1.42110140863E+01  1.98494914636E+01  3.72529029846E-07  0.00000000000E+00  1.
       15    1   17   17    0    0  1.63913087539E-01  4.16459591476E-02  6.54403945081E-01  6.75904142255E-01  1.64636126996E-08  0.00000000000E+00  1.
       16    1   15   15    0    0  8.60443894892E+00  3.32701861597E+00  1.40081294079E+01  1.67729875694E+01  1.35602613711E-06  0.00000000000E+00  1.
      -16    1   17   17    0    0  1.01811641628E-01  2.66144585737E-01  5.53234578710E-01  6.22307841802E-01  2.60312573228E-08  0.00000000000E+00  1.
</event>
<event>
23  80   1.0000000E+00   2.3570000E+02   7.8125000E-03   1.1298309E-01
       21   -1    0    0  501  510  0.00000000000E+00  0.00000000000E+00  3.09095404516E+02  3.09095404516E+02  0.00000000000E+00  0.00000000000E+00  1.
       21   -1    0    0  510  502  0.00000000000E+00  0.00000000000E+00 -7.89568902335E+02  7.89568902335E+02  0.00000000000E+00  0.00000000000E+00  1.
       25    2    1    2    0    0  1.71999527419E+02  1.98423744307E+02 -1.18785223207E+02  3.14150837957E+02  1.25000000000E+02  0.00000000000E+00  1.
       -6    2    1    2    0  502 -2.32738203590E+02  1.28851506878E+02 -1.35259371453E+02  3.45086400582E+02  1.73262067592E+02  0.00000000000E+00  1.
        6    2    1    2  501    0  6.07386761712E+01 -3.27275251185E+02 -2.26428903160E+02  4.39427068312E+02  1.76147163924E+02  0.00000000000E+00  1.
       -5    1    4    4    0  502 -1.94156221757E+02  5.61822815051E+01 -9.50559836691E+01  2.23408347502E+02  4.75000000000E+00  0.00000000000E+00  1.
      -24    2    4    4    0    0 -3.85819818324E+01  7.26692253725E+01 -4.02033877834E+01  1.21678053080E+02  8.01239700324E+01  0.00000000000E+00  1.
       13    1    7    7    0    0 -3.64698715533E+01  4.48878268018E+01  1.50811011722E+01  5.97697189445E+01  1.05660000009E-01  0.00000000000E+00  1.
      -14    1    7    7    0    0 -2.11211027908E+00  2.77813985708E+01 -5.52844889555E+01  6.19083341357E+01  9.53674316406E-07  0.00000000000E+00  1.
        5    1    5    5  501    0  5.32964287909E+01 -2.36817158675E+01 -6.02465546598E+01  8.39853727543E+01  4.75000000000E+00  0.00000000000E+00  1.
       24    2    5    5    0    0  7.44224738025E+00 -3.03593535317E+02 -1.66182348500E+02  3.55441695558E+02  8.06089589060E+01  0.00000000000E+00  1.
       -3    1   11   11    0  703  1.70575935934E+01 -2.36062281337E+02 -9.00726467810E+01  2.53237919490E+02  3.01578298585E-06  0.00000000000E+00  1.
        4    1   11   11  703    0 -9.61534621317E+00 -6.75312539796E+01 -7.61097017190E+01  1.02203776068E+02  3.30362473978E-06  0.00000000000E+00  1.
      -15    2    3    3    0    0  3.77656871559E+01  1.38826046303E+02 -5.54458786782E+01  1.54195722182E+02  1.77680000000E+00  0.00000000000E+00  1.
       15    2    3    3    0    0  1.34233840263E+02  5.95976980041E+01 -6.33393445288E+01  1.59955115775E+02  1.77680000000E+00  0.00000000000E+00  1.
       24    2   14   14    0    0  1.68597578937E+00  6.90244533715E+00 -2.62052425943E+00  7.58023823278E+00  3.26493915416E-01  0.00000000000E+00  1.
      -24    2   15   15    0    0  4.83433253632E+01  2.15778561604E+01 -2.25278184699E+01  5.75428626861E+01  9.98727913459E-01  0.00000000000E+00  1.
       16    1   16   16    0    0  6.36708052898E-01  2.59535973372E+00 -1.15479366410E+00  2.91115745000E+00  1.64636126996E-08  0.00000000000E+00  1.
      -16    1   14   14    0    0  3.60797113665E+01  1.31923600966E+02 -5.28253544187E+01  1.46615483949E+02  1.82501207499E-06  0.00000000000E+00  1.
      -15    1   16   16    0    0  1.04926773647E+00  4.30708560343E+00 -1.46573059533E+00  4.66908078279E+00  3.29272253991E-08  0.00000000000E+00  1.
        1    1   17   17  804    0  2.74203250381E+01  1.26415578445E+01 -1.32062828100E+01  3.29558661787E+01  6.71586259355E-07  0.00000000000E+00  1.
       16    1   15   15    0    0  8.58905148999E+01  3.80198418438E+01 -4.08115260590E+01  1.02412253089E+02  1.49011611938E-06  0.00000000000E+00  1.
       -2    1   17   17    0  804  2.09230003252E+01  8.93629831587E+00 -9.32153565991E+00  2.45869965074E+01  5.10106382431E-07  0.00000000000E+00  1.
</event>
<event>
23  80   1.0000000E+00   2.3570000E+02   7.8125000E-03   1.1298309E-01
       21   -1    0    0  501  510  0.00000000000E+00  0.00000000000E+00  1.11711345363E+03  1.11711345363E+03  0.00000000000E+00  0.00000000000E+00  1.
       21   -1    0    0  510  502  0.00000000000E+00  0.00000000000E+00 -3.18463452787E+02  3.18463452787E+02  0.00000000000E+00  0.00000000000E+00  1.
       25    2    1    2    0    0  3.08086852135E+02  2.59511896581E+02 -3.60069816784E+01  4.23303006905E+02  1.25000000000E+02  0.00000000000E+00  1.
       -6    2    1    2    0  502 -5.13362502664E+01 -3.76275022889E+01  3.51062883099E+02  3.96857760842E+02  1.73780594230E+02  0.00000000000E+00  1.
        6    2    1    2  501    0 -2.56750601869E+02 -2.21884394292E+02  4.83594099423E+02  6.15416138670E+02  1.72395518353E+02  0.00000000000E+00  1.
       -5    1    4    4    0  502 -1.46323599002E+01  2.75881442908E+01  2.28574568508E+02  2.30746847281E+02  4.75000000000E+00  0.00000000000E+00  1.
      -24    2    4    4    0    0 -3.67038903662E+01 -6.52156465798E+01  1.22488314591E+02  1.66110913561E+02  8.36013891384E+01  0.00000000000E+00  1.
        3    1    7    7  704    0  1.04882664883E+01 -9.90874683845E+00  8.12583739238E+01  8.25294512921E+01  0.00000000000E+00  0.00000000000E+00  1.
       -4    1    7    7    0  704 -4.71921568545E+01 -5.53068997413E+01  4.12299406674E+01  8.35814622689E+01  1.58148993986E-06  0.00000000000E+00  1.
        5    1    5    5  501    0  8.27808444229E-01 -6.85231611549E+01  1.08047091660E+02  1.28034547673E+02  4.75000000000E+00  0.00000000000E+00  1.
       24    2    5    5    0    0 -2.57578410313E+02 -1.53361233137E+02  3.75547007762E+02  4.87381590997E+02  8.14797822454E+01  0.00000000000E+00  1.
       -1    1   11   11    0  703 -2.14182764236E+02 -1.12182952909E+02  3.41873131350E+02  4.18732025714E+02  9.34406182397E-06  0.00000000000E+00  1.
        2    1   11   11  703    0 -4.33956460764E+01 -4.11782802280E+01  3.36738764126E+01  6.86495652832E+01  3.72421726032E-06  0.00000000000E+00  1.
      -15    2    3    3    0    0  2.32227131107E+01  7.63845730309E+01  1.36925261213E+01  8.10218469992E+01  1.77680000000E+00  0.00000000000E+00  1.
       15    2    3    3    0    0  2.84864139024E+02  1.83127323550E+02 -4.96995077997E+01  3.42281159906E+02  1.77680000000E+00  0.00000000000E+00  1.
       24    2   14   14    0    0  2.00864284677E+01  6.70937401343E+01  1.19073136064E+01  7.10547591096E+01  1.40003607439E+00  0.00000000000E+00  1.
      -24    2   15   15    0    0  1.67096798259E+02  1.06539131190E+02 -2.95356905142E+01  2.00360487390E+02  2.03542938472E-01  0.00000000000E+00  1.
        2    1   16   16  803    0  1.57013035995E+00  4.37193070073E+00  5.44896713880E-01  4.67717861836E+00  9.22182779628E-08  0.00000000000E+00  1.
      -16    1   14   14    0    0  3.13628464301E+00  9.29083289664E+00  1.78521251495E+00  9.96708788959E+00  1.62981450558E-07  0.00000000000E+00  1.
       -1    1   16   16    0  803  1.85162981077E+01  6.27218094336E+01  1.13624168925E+01  6.63775804912E+01  1.23553901551E-06  0.00000000000E+00  1.
       15    1   17   17    0    0  6.58505063018E+01  4.19625249916E+01 -1.15391392383E+01  7.89322140715E+01  7.09274141664E-07  0.00000000000E+00  1.
       16    1   15   15    0    0  1.17767340765E+02  7.65881923597E+01 -2.01638172855E+01  1.41920672516E+02  8.33000234328E-07  0.00000000000E+00  1.
      -16    1   17   17    0    0  1.01246291957E+02  6.45766061987E+01 -1.79965512758E+01  1.21428273318E+02  2.00613022116E-06  0.00000000000E+00  1.
</event>
<event>
23  80   1.0000000E+00   2.3570000E+02   7.8125000E-03   1.1298309E-01
       21   -1    0    0  501  510  0.00000000000E+00  0.00000000000E+00  2.11610584528E+02  2.11610584528E+02  0.00000000000E+00  0.00000000000E+00  1.
       21   -1    0    0  510  502  0.00000000000E+00  0.00000000000E+00 -5.15875776003E+02  5.15875776003E+02  0.00000000000E+00  0.00000000000E+00  1.
       25    2    1    2    0    0 -1.65695546017E+01 -9.71261267565E+01  6.66156422788E-01  1.59164940872E+02  1.25000000000E+02  0.00000000000E+00  1.
       -6    2    1    2    0  502  4.90065914507E+01 -7.45647009916E+01 -2.72973312260E+01  1.97730433611E+02  1.74329112440E+02  0.00000000000E+00  1.
        6    2    1    2  501    0 -3.24370368489E+01  1.71690827748E+02 -2.77634016672E+02  3.70590986049E+02  1.72415573644E+02  0.00000000000E+00  1.
       -5    1    4    4    0  502  3.85679378250E+01 -4.96191671268E+01 -7.73036808808E+01  9.97395064763E+01  4.75000000000E+00  0.00000000000E+00  1.
      -24    2    4    4    0    0  1.04386536257E+01 -2.49455338648E+01  5.00063496548E+01  9.79909271345E+01  7.98144200352E+01  0.00000000000E+00  1.
       11    1    7    7    0    0 -1.83135945205E+01  2.20723850337E+01  1.22577466673E+01  3.11902272989E+01  5.10999348575E-04  0.00000000000E+00  1.
      -12    1    7    7    0    0  2.87522481462E+01 -4.70179188986E+01  3.77486029875E+01  6.68006998355E+01  1.06624029994E-06  0.00000000000E+00  1.
        5    1    5    5  501    0 -3.88091045126E+01  5.17708990961E+01 -1.92448857647E+02  2.03089876400E+02  4.75000000000E+00  0.00000000000E+00  1.
       24    2    5    5    0    0  6.37206766369E+00  1.19919928652E+02 -8.51851590247E+01  1.67501109649E+02  7.98668759965E+01  0.00000000000E+00  1.
       -1    1   11   11    0  703  9.28731800265E+00  7.47893233409E+01 -9.49605495670E+01  1.21232021907E+02  1.90734863281E-06  0.00000000000E+00  1.
        2    1   11   11  703    0 -2.91525033896E+00  4.51306053111E+01  9.77539054231E+00  4.62690877427E+01  1.32209497767E-06  0.00000000000E+00  1.
      -15    2    3    3    0    0  6.62168480046E-01 -8.54173226981E+01  5.45491964250E+01  1.01367299130E+02  1.77680000000E+00  0.00000000000E+00  1.
       15    2    3    3    0    0 -1.72317230817E+01 -1.17088040584E+01 -5.38830400022E+01  5.77976417422E+01  1.77680000000E+00  0.00000000000E+00  1.
       24    2   14   14    0    0 -5.17468135707E-01 -3.77322377716E+01  2.36828078786E+01  4.45518715692E+01  6.58086500096E-02  0.00000000000E+00  1.
      -24    2   15   15    0    0 -1.43397891055E+01 -1.04342676215E+01 -4.51256076329E+01  4.84874136594E+01  4.53129946902E-01  0.00000000000E+00  1.
       16    1   16   16    0    0 -1.05938116922E-01 -8.53566146655E+00  5.32763357518E+00  1.00624261025E+01  1.97563352395E-07  0.00000000000E+00  1.
      -16    1   14   14    0    0  1.17963661575E+00 -4.76850849265E+01  3.08663885464E+01  5.68154275606E+01  1.34317251871E-06  0.00000000000E+00  1.
      -15    1   16   16    0    0 -4.11530018785E-01 -2.91965763051E+01  1.83551743034E+01  3.44894454668E+01  2.63417803193E-07  0.00000000000E+00  1.
       15    1   17   17    0    0 -4.18599420830E+00 -3.04455577021E+00 -1.26138349083E+01  1.36345406393E+01  0.00000000000E+00  0.00000000000E+00  1.
       16    1   15   15    0    0 -2.89193397623E+00 -1.27453643686E+00 -8.75743236932E+00  9.31022808287E+00  2.28126509374E-07  0.00000000000E+00  1.
      -16    1   17   17    0    0 -1.01537948972E+01 -7.38971185129E+00 -3.25117727246E+01  3.48528730201E+01  1.05367121277E-06  0.00000000000E+00  1.
</event>
<event>
23  80   1.0000000E+00   2.3570000E+02   7.8125000E-03   1.1298309E-01
        1   -1    0    0  501    0  0.00000000000E+00  0.00000000000E+00  2.15079805400E+03  2.15079805400E+03  0.00000000000E+00  0.00000000000E+00  1.
       -1   -1    0    0    0  502  0.00000000000E+00  0.00000000000E+00 -3.21449098266E+01  3.21449098266E+01  0.00000000000E+00  0.00000000000E+00  1.
       25    2    1    2    0    0  2.99157273402E+01  2.67811271713E+01  4.18046609450E+02  4.38178213958E+02  1.25000000000E+02  0.00000000000E+00  1.
       -6    2    1    2    0  502 -8.67285484840E+01  1.35271934558E+01  6.33927383260E+02  6.61888417650E+02  1.68900929800E+02  0.00000000000E+00  1.
        6    2    1    2  501    0  5.68128211439E+01 -4.03083206271E+01  1.06667915147E+03  1.08287633222E+03  1.73101939200E+02  0.00000000000E+00  1.
       -5    1    4    4    0  502 -9.60172081024E+01 -2.38016622204E+01  3.71836746420E+02  3.84799885479E+02  4.74999999999E+00  0.00000000000E+00  1.
      -24    2    4    4    0    0  9.28865961835E+00  3.73288556762E+01  2.62090636840E+02  2.77088532171E+02  8.12824094004E+01  0.00000000000E+00  1.
       13    1    7    7    0    0 -1.76656604590E+01  5.49467497776E+01  1.66555107007E+02  1.76272050265E+02  1.05659999987E-01  0.00000000000E+00  1.
      -14    1    7    7    0    0  2.69543200773E+01 -1.76178941014E+01  9.55355298334E+01  1.00816481906E+02  2.69739830470E-06  0.00000000000E+00  1.
        5    1    5    5  501    0  7.02129507918E+01  1.42805719923E+01  6.80538977836E+02  6.84316926614E+02  4.75000000002E+00  0.00000000000E+00  1.
       24    2    5    5    0    0 -1.34001296479E+01 -5.45888926194E+01  3.86140173631E+02  3.98559405609E+02  8.11532835792E+01  0.00000000000E+00  1.
       -3    1   11   11    0  703  1.28073813358E+01 -3.83560502488E+01  6.93932930884E+01  8.03159058532E+01  5.22348935609E-06  0.00000000000E+00  1.
        4    1   11   11  703    0 -2.62075109838E+01 -1.62328423707E+01  3.16746880543E+02  3.18243499756E+02  3.81469726562E-06  0.00000000000E+00  1.
      -15    2    3    3    0    0 -4.64140043202E+01  1.52654796344E+01  2.25236581415E+02  2.30482036808E+02  1.77680000000E+00  0.00000000000E+00  1.
       15    2    3    3    0    0  7.63297316604E+01  1.15156475369E+01  1.92810028035E+02  2.07696177150E+02  1.77679999999E+00  0.00000000000E+00  1.
       24    2   14   14    0    0 -4.61368694451E+01  1.51985353742E+01  2.24211551363E+02  2.29418095137E+02  1.49546374416E+00  0.00000000000E+00  1.
      -24    2   15   15    0    0  6.23007025731E+01  9.13192601152E+00  1.58909576545E+02  1.70930209236E+02  3.36597427394E-01  0.00000000000E+00  1.
        4    1   16   16  803    0 -2.51085285859E+01  7.70639289146E+00  1.18753912788E+02  1.21623675745E+02  2.10734242554E-06  0.00000000000E+00  1.
      -16    1   14   14    0    0 -2.77134875121E-01  6.69442601670E-02  1.02503005191E+00  1.06394167148E+00  1.64636126996E-08  0.00000000000E+00  1.
       -3    1   16   16    0  803 -2.10283408592E+01  7.49214248276E+00  1.05457638575E+02  1.07794419392E+02  2.10734242554E-06  0.00000000000E+00  1.
        3    1   17   17  804    0  5.63905349712E+01  8.20283145374E+00  1.44017965390E+02  1.54881739509E+02  2.10734242554E-06  0.00000000000E+00  1.
       16    1   15   15    0    0  1.40290290873E+01  2.38372152539E+00  3.39004514897E+01  3.67659679140E+01  0.00000000000E+00  0.00000000000E+00  1.
       -4    1   17   17    0  804  5.91016760187E+00  9.29094557779E-01  1.48916111552E+01  1.60484697270E+01  1.86264514923E-07  0.00000000000E+00  1.
</event>
<event>
23  80   1.0000000E+00   2.3570000E+02   7.8125000E-03   1.1298309E-01
        1   -1    0    0  501    0  0.00000000000E+00  0.00000000000E+00  3.34822767605E+02  3.34822767605E+02  0.00000000000E+00  0.00000000000E+00  1.
       -1   -1    0    0    0  502  0.00000000000E+00  0.00000000000E+00 -2.69063611266E+02  2.69063611266E+02  0.00000000000E+00  0.00000000000E+00  1.
       25    2    1    2    0    0 -6.07049089248E+01 -6.81676804293E+01  5.92392032923E+01  1.65729302869E+02  1.25000000000E+02  0.00000000000E+00  1.
       -6    2    1    2    0  502 -5.52288348402E+01 -1.00766776117E+01 -7.99658739337E+01  1.98262105861E+02  1.72515384812E+02  0.00000000000E+00  1.
        6    2    1    2  501    0  1.15933743765E+02  7.82443580410E+01  8.64858269801E+01  2.39894970141E+02  1.74662491457E+02  0.00000000000E+00  1.
       -5    1    4    4    0  502  1.96413671387E+01 -5.44495568583E+01 -5.71584395939E+01  8.14873441827E+01  4.75000000000E+00  0.00000000000E+00  1.
      -24    2    4    4    0    0 -7.48702019788E+01  4.43728792466E+01 -2.28074343397E+01  1.16774761678E+02  7.44423692992E+01  0.00000000000E+00  1.
        3    1    7    7  704    0  1.25797106110E+01  7.80151714532E+00 -1.59161448108E+01  2.17356033840E+01  2.07848498513E-06  0.00000000000E+00  1.
       -4    1    7    7    0  704 -8.74499125899E+01  3.65713621012E+01 -6.89128952887E+00  9.50391582943E+01  1.45024359949E-06  0.00000000000E+00  1.
        5    1    5    5  501    0 -1.34212921621E+01  4.38733916536E+01 -2.11449582030E+01  5.07412784220E+01  4.75000000000E+00  0.00000000000E+00  1.
       24    2    5    5    0    0  1.29355035927E+02  3.43709663875E+01  1.07630785183E+02  1.89153691719E+02  7.92505174851E+01  0.00000000000E+00  1.
      -11    1   11   11    0    0  1.04773207943E+02  4.26655063740E+01  4.57015451284E+01  1.22009842899E+02  5.10993258165E-04  0.00000000000E+00  1.
       12    1   11   11    0    0  2.45818279842E+01 -8.29453998650E+00  6.19292400548E+01  6.71438488203E+01  1.34869915235E-06  0.00000000000E+00  1.
      -15    2    3    3    0    0  3.87004466199E-01  3.43134257943E+01  5.24587965042E+00  3.47597070434E+01  1.77680000000E+00  0.00000000000E+00  1.
       15    2    3    3    0    0 -6.10919133910E+01 -1.02481106224E+02  5.39933236419E+01  1.30969595826E+02  1.77680000000E+00  0.00000000000E+00  1.
       24    2   14   14    0    0 -8.72501935622E-02  1.04818181963E+01  1.02482611545E+00  1.05525235820E+01  6.55255741120E-01  0.00000000000E+00  1.
      -24    2   15   15    0    0 -3.59269859226E+01 -6.05985270076E+01  3.10003190250E+01  7.69686488192E+01  4.72576376726E-01  0.00000000000E+00  1.
       16    1   16   16    0    0 -2.17390101233E-01  1.57991609352E+00  3.92713959905E-02  1.59528541685E+00  5.65492181527E-08  0.00000000000E+00  1.
      -16    1   14   14    0    0  4.74254659761E-01  2.38316075980E+01  4.22105353497E+00  2.42071834614E+01  8.88425113090E-07  0.00000000000E+00  1.
      -15    1   16   16    0    0  1.30139907671E-01  8.90190210277E+00  9.85554719457E-01  8.95723816519E+00  1.52677263233E-07  0.00000000000E+00  1.
        3    1   17   17  804    0 -7.92782423367E+00 -1.36297474036E+01  6.77838917241E+00  1.71629534504E+01  2.94510057212E-07  0.00000000000E+00  1.
       16    1   15   15    0    0 -2.51649274684E+01 -4.18825792160E+01  2.29930046169E+01  5.40009470064E+01  1.05367121277E-06  0.00000000000E+00  1.
       -2    1   17   17    0  804 -2.79991616889E+01 -4.69687796040E+01  2.42219298526E+01  5.98056953689E+01  6.96937998156E-07  0.00000000000E+00  1.
</event>
<event>
23  80   1.0000000E+00   2.3570000E+02   7.8125000E-03   1.1298309E-01
        1   -1    0    0  501    0  0.00000000000E+00  0.00000000000E+00  3.82397637632E+02  3.82397637632E+02  0.00000000000E+00  0.00000000000E+00  1.
       -1   -1    0    0    0  502  0.00000000000E+00  0.00000000000E+00 -4.30985876488E+02  4.30985876488E+02  0.00000000000E+00  0.00000000000E+00  1.
       25    2    1    2    0    0 -1.08730690841E+02  2.29911812541E+02  1.68642535561E+01  2.83885906175E+02  1.25000000000E+02  0.00000000000E+00  1.
       -6    2    1    2    0  502  1.49559770853E+02 -7.32148114009E+01 -1.49276992959E+02  2.78780867120E+02  1.66453049173E+02  0.00000000000E+00  1.
        6    2    1    2  501    0 -4.08290800120E+01 -1.56697001140E+02  8.38245005472E+01  2.50716740825E+02  1.72079555139E+02  0.00000000000E+00  1.
       -5    1    4    4    0  502  1.29159918839E+02 -3.59423566447E+01 -4.78185134075E+01  1.42419487291E+02  4.75000000000E+00  0.00000000000E+00  1.
      -24    2    4    4    0    0  2.03998520140E+01 -3.72724547562E+01 -1.01458479551E+02  1.36361379829E+02  8.05928842409E+01  0.00000000000E+00  1.
        3    1    7    7  704    0 -1.58246137031E+01  1.06872203875E+00  5.75705830718E+00  1.68731824503E+01  2.21100294483E-06  0.00000000000E+00  1.
       -4    1    7    7    0  704  3.62244657172E+01 -3.83411767950E+01 -1.07215537859E+02  1.19488197379E+02  0.00000000000E+00  0.00000000000E+00  1.
        5    1    5    5  501    0 -7.70641924311E+01 -3.40598157501E+01  2.48334616066E+01  8.79671763748E+01  4.75000000000E+00  0.00000000000E+00  1.
       24    2    5    5    0    0  3.62351124191E+01 -1.22637185390E+02  5.89910389406E+01  1.62749564450E+02  8.15758263274E+01  0.00000000000E+00  1.
       -1    1   11   11    0  703  4.55507227212E+00 -2.10559348528E+01  5.17988714602E+01  5.61001262074E+01  6.74349576174E-07  0.00000000000E+00  1.
        2    1   11   11  703    0  3.16800401469E+01 -1.01581250537E+02  7.19216748033E+00  1.06649438243E+02  2.09720278809E-06  0.00000000000E+00  1.
      -15    2    3    3    0    0 -8.18768302703E+01  2.37306676137E+02  3.03858149267E+01  2.52872949604E+02  1.77680000000E+00  0.00000000000E+00  1.
       15    2    3    3    0    0 -2.68538605707E+01 -7.39486359599E+00 -1.35215613706E+01  3.10129565712E+01  1.77680000000E+00  0.00000000000E+00  1.
       24    2   14   14    0    0 -6.38569313258E+01  1.84702919162E+02  2.43753152939E+01  1.96944440668E+02  2.84058697667E-01  0.00000000000E+00  1.
      -24    2   15   15    0    0 -2.05029207056E+01 -6.37875286962E+00 -1.04455183983E+01  2.38835134973E+01  5.05090816635E-01  0.00000000000E+00  1.
       16    1   16   16    0    0 -4.68652374125E+01  1.35850203599E+02  1.80047754893E+01  1.44830246275E+02  9.85619169125E-07  0.00000000000E+00  1.
      -16    1   14   14    0    0 -1.80198989446E+01  5.26037569753E+01  6.01049963273E+00  5.59285089353E+01  6.24750175746E-07  0.00000000000E+00  1.
      -15    1   16   16    0    0 -1.69916939133E+01  4.88527155630E+01  6.37053980462E+00  5.21141943939E+01  1.31708901597E-07  0.00000000000E+00  1.
        1    1   17   17  804    0 -7.16455291407E+00 -2.05182328743E+00 -3.43538449664E+00  8.20625760630E+00  4.08616121271E-07  0.00000000000E+00  1.
       16    1   15   15    0    0 -6.35093986502E+00 -1.01611072637E+00 -3.07604297229E+00  7.12944307395E+00  2.88935230253E-07  0.00000000000E+00  1.
       -2    1   17   17    0  804 -1.33383677916E+01 -4.32692958219E+00 -7.01013390165E+00  1.56772558910E+01  6.24750175746E-07  0.00000000000E+00  1.
</event>
<event>
23  80   1.0000000E+00   2.3570000E+02   7.8125000E-03   1.1298309E-01
        1   -1    0    0  501    0  0.00000000000E+00  0.00000000000E+00  3.08544528665E+02  3.08544528665E+02  0.00000000000E+00  0.00000000000E+00  1.
       -1   -1    0    0    0  502  0.00000000000E+00  0.00000000000E+00 -7.30438698248E+02  7.30438698248E+02  0.00000000000E+00  0.00000000000E+00  1.
       25    2    1    2    0    0  6.35720849082E+01 -1.66293242018E+02  2.00076960336E+02  2.95551420869E+02  1.25000000000E+02  0.00000000000E+00  1.
       -6    2    1    2    0  502  3.42844479657E+01  8.53758362909E+01 -3.07481545276E+02  3.61967279473E+02  1.67364733231E+02  0.00000000000E+00  1.
        6    2    1    2  501    0 -9.78565328739E+01  8.09174057268E+01 -3.14489584643E+02  3.81464526571E+02  1.74608014155E+02  0.00000000000E+00  1.
       -5    1    4    4    0  502  3.85592208396E+01  8.57320504141E+01 -2.34980132159E+02  2.53130446587E+02  4.75000000000E+00  0.00000000000E+00  1.
      -24    2    4    4    0    0 -4.27477287391E+00 -3.56214123184E-01 -7.25014131166E+01  1.08836832886E+02  8.10592420215E+01  0.00000000000E+00  1.
        3    1    7    7  704    0 -6.65889942262E+00  4.00738446006E+01 -3.44140481165E+01  5.32407801442E+01  1.26159253648E-06  0.00000000000E+00  1.
       -4    1    7    7    0  704  2.38412654871E+00 -4.04300587238E+01 -3.80873650001E+01  5.55960527418E+01  1.34869915235E-06  0.00000000000E+00  1.
        5    1    5    5  501    0  3.46263996980E+01  4.27944223090E+01 -8.61596262674E+01  1.02354256557E+02  4.75000000000E+00  0.00000000000E+00  1.
       24    2    5    5    0    0 -1.32482932572E+02  3.81229834178E+01 -2.28329958375E+02  2.79110270013E+02  8.22367536308E+01  0.00000000000E+00  1.
       -3    1   11   11    0  703 -1.02838337758E+01  1.83322344306E+01 -1.96981262442E+00  2.11118028155E+01  3.48782679120E-06  0.00000000000E+00  1.
        4    1   11   11  703    0 -1.22199098796E+02  1.97907489872E+01 -2.26360145751E+02  2.57998467198E+02  3.81469726562E-06  0.00000000000E+00  1.
      -15    2    3    3    0    0  8.24628609123E+01 -1.47928799273E+02  2.07761143320E+02  2.68050187047E+02  1.77680000001E+00  0.00000000000E+00  1.
       15    2    3    3    0    0 -1.88907760041E+01 -1.83644427450E+01 -7.68418298362E+00  2.75012338221E+01  1.77680000000E+00  0.00000000000E+00  1.
       24    2   14   14    0    0  6.47456395564E+01 -1.14827508236E+02  1.61755375472E+02  2.08668994097E+02  7.70139067951E-01  0.00000000000E+00  1.
      -24    2   15   15    0    0 -4.75436026299E+00 -5.04976129703E+00 -2.73042669672E+00  7.45980938628E+00  2.99157928422E-01  0.00000000000E+00  1.
        2    1   16   16  803    0  8.85033663836E+00 -1.57264775414E+01  2.17269365794E+01  2.82437661723E+01  2.63417803193E-07  0.00000000000E+00  1.
      -16    1   14   14    0    0  1.77172213558E+01 -3.31012910366E+01  4.60057678480E+01  5.93811929499E+01  1.05367121277E-06  0.00000000000E+00  1.
       -3    1   16   16    0  803  5.58953029181E+01 -9.91010306950E+01  1.40028438892E+02  1.80425227925E+02  3.33200093731E-06  0.00000000000E+00  1.
       15    1   17   17    0    0 -1.37847809993E-01 -1.88510848263E-01 -1.42768607126E-01  2.73717434252E-01  2.87377299656E-08  0.00000000000E+00  1.
       16    1   15   15    0    0 -1.41364157411E+01 -1.33146814480E+01 -4.95375628690E+00  2.00414244358E+01  7.15362443390E-07  0.00000000000E+00  1.
      -16    1   17   17    0    0 -4.61651245299E+00 -4.86125044877E+00 -2.58765808959E+00  7.18609195202E+00  2.37441599071E-07  0.00000000000E+00  1.
</event>
<event>
23  80   1.0000000E+00   2.3570000E+02   7.8125000E-03   1.1298309E-01
        1   -1    0    0  501    0  0.00000000000E+00  0.00000000000E+00  1.66176838401E+03  1.66176838401E+03  0.00000000000E+00  0.00000000000E+00  1.
       -1   -1    0    0    0  502  0.00000000000E+00  0.00000000000E+00 -2.31230006321E+02  2.31230006321E+02  0.00000000000E+00  0.00000000000E+00  1.
       25    2    1    2    0    0  7.21155402793E+01  3.50106073966E+02  1.11411747072E+02  3.94730910322E+02  1.25000000000E+02  0.00000000000E+00  1.
       -6    2    1    2    0  502  5.38421034033E+01 -2.66671585323E+02  1.19418083783E+03  1.23736467864E+03  1.76041949467E+02  0.00000000000E+00  1.
        6    2    1    2  501    0 -1.25957643683E+02 -8.34344886432E+01  1.24945792783E+02  2.60902801373E+02  1.72139997481E+02  0.00000000000E+00  1.
       -5    1    4    4    0  502  5.89343427908E+00 -9.14456943238E+01  6.76730996948E+02  6.82923460066E+02  4.74999999998E+00  0.00000000000E+00  1.
      -24    2    4    4    0    0  4.79486691243E+01 -1.75225890999E+02  5.17449840885E+02  5.54441218570E+02  8.15324430578E+01  0.00000000000E+00  1.
       11    1    7    7    0    0 -9.38483428459E+00 -1.13103555555E+02  2.67393667973E+02  2.90482121767E+02  5.11012836212E-04  0.00000000000E+00  1.
      -12    1    7    7    0    0  5.73335034089E+01 -6.21223354437E+01  2.50056172912E+02  2.63959096804E+02  5.39479660939E-06  0.00000000000E+00  1.
        5    1    5    5  501    0 -2.32332180030E+01  1.85738068865E+01 -2.42266348482E+01  3.86556730261E+01  4.75000000000E+00  0.00000000000E+00  1.
       24    2    5    5    0    0 -1.02724425680E+02 -1.02008295530E+02  1.49172427631E+02  2.22247128347E+02  7.86344256987E+01  0.00000000000E+00  1.
       -3    1   11   11    0  703 -4.94806591290E+01 -9.64479148295E+01  7.97213207505E+01  1.34558629916E+02  1.65181236989E-06  0.00000000000E+00  1.
        4    1   11   11  703    0 -5.32437665506E+01 -5.56038070028E+00  6.94511068806E+01  8.76884984304E+01  9.53674316406E-07  0.00000000000E+00  1.
      -15    2    3    3    0    0  7.97510536909E+01  3.48306655470E+02  1.25320714076E+02  3.78663696707E+02  1.77680000001E+00  0.00000000000E+00  1.
       15    2    3    3    0    0 -7.63551341162E+00  1.79941849606E+00 -1.39089670038E+01  1.60672136145E+01  1.77680000000E+00  0.00000000000E+00  1.
       24    2   14   14    0    0  2.32047794797E+01  9.95525277144E+01  3.51650884008E+01  1.08101071714E+02  3.01161784924E-01  0.00000000000E+00  1.
      -24    2   15   15    0    0 -4.95529672807E+00  8.60117827895E-01 -8.26999082685E+00  9.75342714840E+00  1.20075997681E+00  0.00000000000E+00  1.
        4    1   16   16  803    0  1.28153201212E+01  5.51788731877E+01  1.96382083122E+01  5.99549806253E+01  8.33000234328E-07  0.00000000000E+00  1.
      -16    1   14   14    0    0  5.65462742113E+01  2.48754127756E+02  9.01556256750E+01  2.70562624994E+02  3.94247667650E-06  0.00000000000E+00  1.
       -5    1   16   16    0  803  1.03894593585E+01  4.43736545267E+01  1.55268800886E+01  4.81460910886E+01  2.63417803193E-07  0.00000000000E+00  1.
        3    1   17   17  804    0 -2.98360992950E+00  3.07864025655E-01 -5.92029739340E+00  6.63676349556E+00  1.97563352395E-07  0.00000000000E+00  1.
       16    1   15   15    0    0 -2.68021668355E+00  9.39300668167E-01 -5.63897617693E+00  6.31378646613E+00  4.11260913421E-07  0.00000000000E+00  1.
       -4    1   17   17    0  804 -1.97168679857E+00  5.52253802240E-01 -2.34969343345E+00  3.11666365284E+00  1.83331032144E-07  0.00000000000E+00  1.
</event>
<event>
23  80   1.0000000E+00   2.3570000E+02   7.8125000E-03   1.1298309E-01
        1   -1    0    0  501    0  0.00000000000E+00  0.00000000000E+00  5.83399007303E+02  5.83399007303E+02  0.00000000000E+00  0.00000000000E+00  1.
       -1   -1    0    0    0  502  0.00000000000E+00  0.00000000000E+00 -1.09789518282E+02  1.09789518282E+02  0.00000000000E+00  0.00000000000E+00  1.
       25    2    1    2    0    0 -3.44176406384E+01 -4.62994303518E+01  1.22159489386E+02  1.84054752955E+02  1.25000000000E+02  0.00000000000E+00  1.
       -6    2    1    2    0  502 -2.86293375260E+01  2.72186760830E+01  2.19901578391E+02  2.82325204577E+02  1.72598730197E+02  0.00000000000E+00  1.
        6    2    1    2  501    0  6.30469781644E+01  1.90807542688E+01  1.31548421244E+02  2.26808568053E+02  1.72621385614E+02  0.00000000000E+00  1.
       -5    1    4    4    0  502  1.48360974299E+01 -5.18006348717E+01  9.18609478294E+01  1.06603995217E+02  4.75000000000E+00  0.00000000000E+00  1.
      -24    2    4    4    0    0 -4.34654349559E+01  7.90193109547E+01  1.28040630562E+02  1.75721209360E+02  7.96884232794E+01  0.00000000000E+00  1.
        3    1    7    7  704    0 -5.34065133559E+01  2.67172284056E+01  3.69797017585E+01  7.02393358785E+01  0.00000000000E+00  0.00000000000E+00  1.
       -4    1    7    7    0  704  9.94107840000E+00  5.23020825491E+01  9.10609288031E+01  1.05481873482E+02  2.33601545599E-06  0.00000000000E+00  1.
        5    1    5    5  501    0  7.32051733916E+00  1.95514284010E+01 -3.04345564224E+01  3.72111952410E+01  4.75000000000E+00  0.00000000000E+00  1.
       24    2    5    5    0    0  5.57264608252E+01 -4.70674132217E-01  1.61982977667E+02  1.89597372812E+02  8.12589610647E+01  0.00000000000E+00  1.
       -3    1   11   11    0  703  7.68531937848E+01  7.85309374245E-01  1.34489535843E+02  1.54901469834E+02  2.69739830470E-06  0.00000000000E+00  1.
        4    1   11   11  703    0 -2.11267329595E+01 -1.25598350646E+00  2.74934418241E+01  3.46959029778E+01  2.23656452171E-06  0.00000000000E+00  1.
      -15    2    3    3    0    0  4.16428990434E+01  5.05652330117E+00  1.93513551782E+01  4.62312819864E+01  1.77680000000E+00  0.00000000000E+00  1.
       15    2    3    3    0    0 -7.60605396818E+01 -5.13559536530E+01  1.02808134208E+02  1.37823470969E+02  1.77680000000E+00  0.00000000000E+00  1.
       24    2   14   14    0    0  3.52716089317E+01  4.54977873371E+00  1.61472539405E+01  3.90817090981E+01  1.36355896516E+00  0.00000000000E+00  1.
      -24    2   15   15    0    0 -6.25928565756E+01 -4.23724895114E+01  8.56684955686E+01  1.14247035086E+02  1.82020936530E-02  0.00000000000E+00  1.
        4    1   16   16  803    0  5.40031182409E+00  2.63313144301E-01  2.71225107177E+00  6.04888481339E+00  1.43526448006E-07  0.00000000000E+00  1.
      -16    1   14   14    0    0  6.37129011175E+00  5.06744567457E-01  3.20410123774E+00  7.14957288839E+00  1.04125029291E-07  0.00000000000E+00  1.
       -3    1   16   16    0  803  2.98712971076E+01  4.28646558941E+00  1.34350028687E+01  3.30328242847E+01  3.22619603494E-07  0.00000000000E+00  1.
       15    1   17   17    0    0 -4.08032564281E+01 -2.76307802015E+01  5.58445039034E+01  7.44780126339E+01  1.05367121277E-06  0.00000000000E+00  1.
       16    1   15   15    0    0 -1.34676831062E+01 -8.98346414161E+00  1.71396386392E+01  2.35764358823E+01  4.56253018749E-07  0.00000000000E+00  1.
      -16    1   17   17    0    0 -2.17896001475E+01 -1.47417093099E+01  2.98239916652E+01  3.97690224523E+01  3.72529029846E-07  0.00000000000E+00  1.
</event>
<event>
23  80   1.0000000E+00   2.3570000E+02   7.8125000E-03   1.1298309E-01
        2   -1    0    0  501    0  0.00000000000E+00  0.00000000000E+00  7.80643065977E+02  7.80643065977E+02  0.00000000000E+00  0.00000000000E+00  1.
       -2   -1    0    0    0  502  0.00000000000E+00  0.00000000000E+00 -2.58583713131E+02  2.58583713131E+02  0.00000000000E+00  0.00000000000E+00  1.
       25    2    1    2    0    0 -1.26979932600E+01  1.37062846529E+02  1.45589505807E+02  2.36154117331E+02  1.25000000000E+02  0.00000000000E+00  1.
       -6    2    1    2    0  502  2.09636004003E+02 -5.98225772908E+00  4.26187058664E+02  5.05631278399E+02  1.73333606495E+02  0.00000000000E+00  1.
        6    2    1    2  501    0 -1.96938010743E+02 -1.31080588800E+02 -4.97172116251E+01  2.97441383378E+02  1.73299955506E+02  0.00000000000E+00  1.
       -5    1    4    4    0  502  1.61822349726E+02 -4.51179391592E+01  2.98392205541E+02  3.42465432026E+02  4.75000000000E+00  0.00000000000E+00  1.
      -24    2    4    4    0    0  4.78136542764E+01  3.91356814301E+01  1.27794853123E+02  1.63165846373E+02  8.04600636443E+01  0.00000000000E+00  1.
        3    1    7    7  704    0 -1.83771835912E+01  2.89766246394E+01  4.78173992915E+01  5.88546457575E+01  6.74349576174E-07  0.00000000000E+00  1.
       -4    1    7    7    0  704  6.61908378676E+01  1.01590567906E+01  7.99774538318E+01  1.04311200616E+02  9.53674316406E-07  0.00000000000E+00  1.
        5    1    5    5  501    0  4.51261099223E+00 -5.75943333501E+01  1.56217939790E+01  6.00339390606E+01  4.75000000000E+00  0.00000000000E+00  1.
       24    2    5    5    0    0 -2.01450621735E+02 -7.34862554494E+01 -6.53390056041E+01  2.37407444317E+02  7.81698549723E+01  0.00000000000E+00  1.
       -3    1   11   11    0  703 -1.88611826142E+01 -3.51993366523E+01 -2.30681993050E+01  4.61181019725E+01  3.82956943612E-06  0.00000000000E+00  1.
        4    1   11   11  703    0 -1.82589439121E+02 -3.82869187971E+01 -4.22708062990E+01  1.91289342344E+02  2.43140197448E-06  0.00000000000E+00  1.
      -15    2    3    3    0    0  1.14747181888E+01  2.69117823608E+00  8.65995572394E+01  8.74159706811E+01  1.77680000000E+00  0.00000000000E+00  1.
       15    2    3    3    0    0 -2.41727114488E+01  1.34371668293E+02  5.89899485676E+01  1.48738146650E+02  1.77680000000E+00  0.00000000000E+00  1.
       24    2   14   14    0    0  6.30466301803E+00  1.21329268383E+00  4.72823572991E+01  4.77327774209E+01  1.25533806175E+00  0.00000000000E+00  1.
      -24    2   15   15    0    0 -8.03591447859E+00  4.49934232153E+01  2.03110019456E+01  5.00217456752E+01  8.08817794087E-01  0.00000000000E+00  1.
       12    1   16   16    0    0  5.85488082035E-01 -9.15680270735E-02  7.07090481605E+00  7.09569418137E+00  1.61309801747E-07  0.00000000000E+00  1.
      -16    1   14   14    0    0  5.17005517076E+00  1.47788555225E+00  3.93171999404E+01  3.96831932602E+01  5.26835606386E-07  0.00000000000E+00  1.
      -11    1   16   16    0    0  5.71917493600E+00  1.30486071091E+00  4.02114524830E+01  4.06370832395E+01  7.45058059692E-07  0.00000000000E+00  1.
        1    1   17   17  804    0 -1.29405031521E+00  6.96671902581E+00  2.83515070812E+00  7.63202592636E+00  1.83331032144E-07  0.00000000000E+00  1.
       16    1   15   15    0    0 -1.61367969702E+01  8.93782450776E+01  3.86789466220E+01  9.87164009747E+01  5.26835606386E-07  0.00000000000E+00  1.
       -2    1   17   17    0  804 -6.74186416338E+00  3.80267041895E+01  1.74758512375E+01  4.23897197489E+01  3.72529029846E-07  0.00000000000E+00  1.
</event>
<event>
23  80   1.0000000E+00   2.3570000E+02   7.8125000E-03   1.1298309E-01
        2   -1    0    0  501    0  0.00000000000E+00  0.00000000000E+00  2.88804472770E+02  2.88804472770E+02  0.00000000000E+00  0.00000000000E+00  1.
       -2   -1    0    0    0  502  0.00000000000E+00  0.00000000000E+00 -6.27149898295E+02  6.27149898295E+02  0.00000000000E+00  0.00000000000E+00  1.
       25    2    1    2    0    0 -5.16410523394E+00 -9.98887199341E+01 -2.33926586830E+01  1.61791967765E+02  1.25000000000E+02  0.00000000000E+00  1.
       -6    2    1    2    0  502  2.67313431793E+01 -2.12818757131E+02 -2.83609135241E+02  3.95107460927E+02  1.72248007225E+02  0.00000000000E+00  1.
        6    2    1    2  501    0 -2.15672379454E+01  3.12707477066E+02 -3.13436316008E+01  3.59054942373E+02  1.72298915944E+02  0.00000000000E+00  1.
       -5    1    4    4    0  502  3.35475429777E+00 -1.79838124729E+02 -2.25315623758E+02  2.88344755963E+02  4.75000000000E+00  0.00000000000E+00  1.
      -24    2    4    4    0    0  2.33765888815E+01 -3.29806324030E+01 -5.82935114830E+01  1.06762704964E+02  7.97869329445E+01  0.00000000000E+00  1.
        3    1    7    7  704    0  1.96444820870E+01 -4.63504489639E+01 -3.75045658612E+00  5.04810431768E+01  1.09905534474E-06  0.00000000000E+00  1.
       -4    1    7    7    0  704  3.73210679453E+00  1.33698165609E+01 -5.45430548969E+01  5.62816617868E+01  1.16800772800E-06  0.00000000000E+00  1.
        5    1    5    5  501    0 -6.66485314589E+01  1.60026701967E+02  1.40863894020E+01  1.73987243654E+02  4.75000000000E+00  0.00000000000E+00  1.
       24    2    5    5    0    0  4.50812935136E+01  1.52680775099E+02 -4.54300210028E+01  1.85067698719E+02  8.27189469903E+01  0.00000000000E+00  1.
       -3    1   11   11    0  703 -7.76704943389E+00  6.56120368561E+01 -5.03926926789E+01  8.30944637912E+01  9.53674316406E-07  0.00000000000E+00  1.
        4    1   11   11  703    0  5.28483429475E+01  8.70687382425E+01  4.96267167613E+00  1.01973234928E+02  8.96054290436E-07  0.00000000000E+00  1.
      -15    2    3    3    0    0  8.08401115119E+00  1.79400554021E+01  2.65710128531E+01  3.31115171263E+01  1.77680000000E+00  0.00000000000E+00  1.
       15    2    3    3    0    0 -1.32481163851E+01 -1.17828775336E+02 -4.99636715361E+01  1.28680450639E+02  1.77680000000E+00  0.00000000000E+00  1.
       24    2   14   14    0    0  4.81570639189E+00  9.65642957446E+00  1.51270458883E+01  1.86110118681E+01  1.05099251493E+00  0.00000000000E+00  1.
      -24    2   15   15    0    0 -3.91529579465E-01 -5.27973190550E+00 -1.90169855993E+00  5.62545379660E+00  2.02138395920E-02  0.00000000000E+00  1.
       16    1   16   16    0    0  1.50600951322E+00  4.09902656285E+00  6.41365747167E+00  7.75919361666E+00  9.31322574615E-08  0.00000000000E+00  1.
      -16    1   14   14    0    0  3.26830475930E+00  8.28362582765E+00  1.14439669648E+01  1.45005052582E+01  6.17769507757E-07  0.00000000000E+00  1.
      -15    1   16   16    0    0  3.30969687867E+00  5.55740301161E+00  8.71338841665E+00  1.08518182514E+01  0.00000000000E+00  0.00000000000E+00  1.
       15    1   17   17    0    0 -1.34987010732E-01 -1.77557720653E+00 -6.30114925941E-01  1.88889934335E+00  2.32830643654E-08  0.00000000000E+00  1.
       16    1   15   15    0    0 -1.28565868057E+01 -1.12549043431E+02 -4.80619729761E+01  1.23054996842E+02  1.74731603258E-06  0.00000000000E+00  1.
      -16    1   17   17    0    0 -2.56542568733E-01 -3.50415469897E+00 -1.27158363399E+00  3.73655445325E+00  5.46036260182E-08  0.00000000000E+00  1.
</event>
<event>
23  80   1.0000000E+00   2.3570000E+02   7.8125000E-03   1.1298309E-01
        2   -1    0    0  501    0  0.00000000000E+00  0.00000000000E+00  1.18163405060E+03  1.18163405060E+03  0.00000000000E+00  0.00000000000E+00  1.
       -2   -1    0    0    0  502  0.00000000000E+00  0.00000000000E+00 -2.08783073778E+02  2.08783073778E+02  0.00000000000E+00  0.00000000000E+00  1.
       25    2    1    2    0    0 -5.91801482129E+01  2.05105518669E+02  6.39541353142E+02  6.85717657720E+02  1.25000000000E+02  0.00000000000E+00  1.
       -6    2    1    2    0  502 -1.01294338165E+02 -1.44558057580E+02 -4.72119165834E+01  2.53026406686E+02  1.75030918575E+02  0.00000000000E+00  1.
        6    2    1    2  501    0  1.60474486378E+02 -6.05474610890E+01  3.80521540265E+02  4.51673059973E+02  1.72608964649E+02  0.00000000000E+00  1.
       -5    1    4    4    0  502  2.71245756120E+01 -4.57947803073E+01  2.46652195865E+01  5.88543971405E+01  4.75000000000E+00  0.00000000000E+00  1.
      -24    2    4    4    0    0 -1.28418913777E+02 -9.87632772729E+01 -7.18771361699E+01  1.94172009546E+02  7.93148424548E+01  0.00000000000E+00  1.
        1    1    7    7  704    0 -9.17538664542E+01 -2.99541117442E+01 -1.50353420583E+01  9.76835827071E+01  1.34869915235E-06  0.00000000000E+00  1.
       -2    1    7    7    0  704 -3.66650473228E+01 -6.88091655287E+01 -5.68417941116E+01  9.64884268385E+01  9.53674316406E-07  0.00000000000E+00  1.
        5    1    5    5  501    0  6.88320666285E+01  4.19765278997E+01  1.69729668531E+02  1.87964372077E+02  4.75000000000E+00  0.00000000000E+00  1.
       24    2    5    5    0    0  9.16424197494E+01 -1.02523988989E+02  2.10791871734E+02  2.63708687896E+02  7.87372686018E+01  0.00000000000E+00  1.
       -3    1   11   11    0  703  6.25819936325E+00 -5.40164848356E+01  4.31328893253E+01  6.94074335702E+01  3.56832255056E-06  0.00000000000E+00  1.
        2    1   11   11  703    0  8.53842203862E+01 -4.85075041532E+01  1.67658982409E+02  1.94301254326E+02  0.00000000000E+00  0.00000000000E+00  1.
      -15    2    3    3    0    0 -7.77614122054E+01  1.41034866938E+02  5.55641413551E+02  5.78513792741E+02  1.77679999997E+00  0.00000000000E+00  1.
       15    2    3    3    0    0  1.85812639925E+01  6.40706517314E+01  8.38999395911E+01  1.07203864979E+02  1.77680000000E+00  0.00000000000E+00  1.
       24    2   14   14    0    0 -5.78800047716E+00  9.88521862027E+00  4.07672007473E+01  4.23460416967E+01  6.39837119032E-02  0.00000000000E+00  1.
      -24    2   15   15    0    0  4.61191105640E+00  1.64189001403E+01  2.21428354082E+01  2.79588514565E+01  7.36348723548E-01  0.00000000000E+00  1.
       16    1   16   16    0    0 -4.79457035809E+00  8.23138939295E+00  3.38633196438E+01  3.51776646972E+01  3.72529029846E-07  0.00000000000E+00  1.
      -16    1   14   14    0    0 -7.19734117283E+01  1.31149648317E+02  5.14874212804E+02  5.36167751044E+02  1.03238273118E-05  0.00000000000E+00  1.
      -15    1   16   16    0    0 -9.93430119067E-01  1.65382922732E+00  6.90388110351E+00  7.16837699943E+00  9.31322574615E-08  0.00000000000E+00  1.
       13    1   17   17    0    0  1.87765360907E+00  6.31611883706E+00  7.99494402086E+00  1.03604087823E+01  2.08250058582E-07  0.00000000000E+00  1.
       16    1   15   15    0    0  1.39693529361E+01  4.76517515911E+01  6.17571041829E+01  7.92450135227E+01  7.45058059692E-07  0.00000000000E+00  1.
      -14    1   17   17    0    0  2.73425744733E+00  1.01027813033E+01  1.41478913874E+01  1.75984426743E+01  3.72529029846E-07  0.00000000000E+00  1.
</event>
<event>
23  80   1.0000000E+00   2.3570000E+02   7.8125000E-03   1.1298309E-01
        2   -1    0    0  501    0  0.00000000000E+00  0.00000000000E+00  3.56011997329E+03  3.56011997329E+03  0.00000000000E+00  0.00000000000E+00  1.
       -2   -1    0    0    0  502  0.00000000000E+00  0.00000000000E+00 -3.28922474715E+01  3.28922474715E+01  0.00000000000E+00  0.00000000000E+00  1.
       25    2    1    2    0    0 -3.76118630191E+01 -8.97789553214E+01  2.36950027556E+03  2.37479082636E+03  1.25000000000E+02  0.00000000000E+00  1.
       -6    2    1    2    0  502  3.56017358790E+01  1.05447622662E+02  6.62580898744E+02  6.93726310810E+02  1.72789068541E+02  0.00000000000E+00  1.
        6    2    1    2  501    0  2.01012714010E+00 -1.56686673411E+01  4.95146551512E+02  5.24495083595E+02  1.72265601595E+02  0.00000000000E+00  1.
       -5    1    4    4    0  502  3.25769453697E+01  2.08750495897E+01  2.96879536911E+01  4.89996138695E+01  4.75000000000E+00  0.00000000000E+00  1.
      -24    2    4    4    0    0  3.02479050928E+00  8.45725730727E+01  6.32892945053E+02  6.44726696941E+02  8.92040603150E+01  0.00000000000E+00  1.
        3    1    7    7  704    0  4.18473515567E+01  2.14489886484E+01  3.01816819334E+02  3.05458102494E+02  5.39479660939E-06  0.00000000000E+00  1.
       -4    1    7    7    0  704 -3.88225610474E+01  6.31235844244E+01  3.31076125718E+02  3.39268594446E+02  5.39479660939E-06  0.00000000000E+00  1.
        5    1    5    5  501    0  5.69102194619E+01 -4.29915491943E+01  2.09793995768E+02  2.21637382996E+02  4.75000000000E+00  0.00000000000E+00  1.
       24    2    5    5    0    0 -5.49000923218E+01  2.73228818533E+01  2.85352555745E+02  3.02857700598E+02  8.08464330189E+01  0.00000000000E+00  1.
      -11    1   11   11    0    0 -6.11278525839E+00 -2.57293571211E+01  1.12776475524E+02  1.15835656830E+02  5.11009276622E-04  0.00000000000E+00  1.
       12    1   11   11    0    0 -4.87873070634E+01  5.30522389744E+01  1.72576080221E+02  1.87022043768E+02  2.69739830470E-06  0.00000000000E+00  1.
      -15    2    3    3    0    0 -5.27124961738E+01  1.31705069073E+01  8.17639804757E+02  8.19444980975E+02  1.77680000006E+00  0.00000000000E+00  1.
       15    2    3    3    0    0  1.51006331547E+01 -1.02949462229E+02  1.55186047080E+03  1.55534584538E+03  1.77680000002E+00  0.00000000000E+00  1.
       24    2   14   14    0    0 -4.57202406144E+01  1.15130519108E+01  7.15423896508E+02  7.16976787403E+02  1.21293613531E+00  0.00000000000E+00  1.
      -24    2   15   15    0    0  4.69355564414E+00 -3.09806419464E+01  4.78512301961E+02  4.79537261151E+02  3.63405333306E-01  0.00000000000E+00  1.
        2    1   16   16  803    0 -2.45473773697E+01  5.78872355946E+00  3.75495571564E+02  3.76341609871E+02  4.21468485109E-06  0.00000000000E+00  1.
      -16    1   14   14    0    0 -6.99225555941E+00  1.65745499649E+00  1.02215908249E+02  1.02468193572E+02  2.10734242554E-06  0.00000000000E+00  1.
       -1    1   16   16    0  803 -2.11728632447E+01  5.72432835132E+00  3.39928324944E+02  3.40635177532E+02  7.30004829998E-06  0.00000000000E+00  1.
       15    1   17   17    0    0  1.66159784208E+00 -1.21439580123E+01  1.87477367404E+02  1.87877619509E+02  2.98023223877E-06  0.00000000000E+00  1.
       16    1   15   15    0    0  1.04070775106E+01 -7.19688202823E+01  1.07334816884E+03  1.07580858423E+03  1.68587394044E-05  0.00000000000E+00  1.
      -16    1   17   17    0    0  3.03195780206E+00 -1.88366839341E+01  2.91034934558E+02  2.91659641642E+02  4.21468485109E-06  0.00000000000E+00  1.
</event>
<event>
23  80   1.0000000E+00   2.3570000E+02   7.8125000E-03   1.1298309E-01
        2   -1    0    0  501    0  0.00000000000E+00  0.00000000000E+00  8.38296183371E+02  8.38296183371E+02  0.00000000000E+00  0.00000000000E+00  1.
       -2   -1    0    0    0  502  0.00000000000E+00  0.00000000000E+00 -1.87641326375E+02  1.87641326375E+02  0.00000000000E+00  0.00000000000E+00  1.
       25    2    1    2    0    0  2.30393546121E+02 -1.04021263265E+02  3.79132479185E+02  4.72512482458E+02  1.25000000000E+02  0.00000000000E+00  1.
       -6    2    1    2    0  502 -2.23977069745E+01 -1.48574221494E+01  1.52707238541E+02  2.34423224200E+02  1.75819074820E+02  0.00000000000E+00  1.
        6    2    1    2  501    0 -2.07995839147E+02  1.18878685415E+02  1.18815139270E+02  3.19001803087E+02  1.73927289707E+02  0.00000000000E+00  1.
       -5    1    4    4    0  502 -2.45702345314E+01 -6.68279646978E+01  2.63757961990E+01  7.60783702224E+01  4.75000000000E+00  0.00000000000E+00  1.
      -24    2    4    4    0    0  2.17252755694E+00  5.19705425483E+01  1.26331442342E+02  1.58344853977E+02  8.00487494475E+01  0.00000000000E+00  1.
        3    1    7    7  704    0 -1.42944622879E+00 -8.39046206351E+00 -7.59050935845E+00  1.14043413874E+01  2.28993567375E-06  0.00000000000E+00  1.
       -4    1    7    7    0  704  3.60197378572E+00  6.03610046118E+01  1.33921951700E+02  1.46940512590E+02  0.00000000000E+00  0.00000000000E+00  1.
        5    1    5    5  501    0 -1.47990435794E+02  1.03512693473E+02  1.22377871972E+02  2.18208507728E+02  4.75000000000E+00  0.00000000000E+00  1.
       24    2    5    5    0    0 -6.00054033531E+01  1.53659919422E+01 -3.56273270168E+00  1.00793295360E+02  7.94344584248E+01  0.00000000000E+00  1.
      -13    1   11   11    0    0  1.55397930992E+01 -8.40984214119E+00  1.02083480951E+01  2.04066692352E+01  1.05659999984E-01  0.00000000000E+00  1.
       14    1   11   11    0    0 -7.55451964523E+01  2.37758340834E+01 -1.37710807968E+01  8.03866261245E+01  2.45466950917E-06  0.00000000000E+00  1.
      -15    2    3    3    0    0  3.82339284827E+01  3.47617032354E+00  1.49532511818E+02  1.54392506801E+02  1.77680000000E+00  0.00000000000E+00  1.
       15    2    3    3    0    0  1.92159617638E+02 -1.07497433589E+02  2.29599967367E+02  3.18119975657E+02  1.77680000000E+00  0.00000000000E+00  1.
       24    2   14   14    0    0  1.74772635557E+01  1.57085071934E+00  7.14676019406E+01  7.35927571979E+01  5.94534674961E-01  0.00000000000E+00  1.
      -24    2   15   15    0    0  1.08112732119E+02 -6.01128968655E+01  1.30175678577E+02  1.79576255167E+02  3.01818733890E-02  0.00000000000E+00  1.
       14    1   16   16    0    0  2.77127977497E+00  4.56188294000E-01  1.11418579157E+01  1.14903915149E+01  1.86264514923E-07  0.00000000000E+00  1.
      -16    1   14   14    0    0  2.07566649271E+01  1.90531960420E+00  7.80649098779E+01  8.07997496031E+01  0.00000000000E+00  0.00000000000E+00  1.
      -13    1   16   16    0    0  1.47059837807E+01  1.11466242534E+00  6.03257440248E+01  6.21023656830E+01  0.00000000000E+00  0.00000000000E+00  1.
       15    1   17   17    0    0  7.14837929883E+01 -3.97576310786E+01  8.60623247950E+01  1.18732159241E+02  1.05367121277E-06  0.00000000000E+00  1.
       16    1   15   15    0    0  8.40468855195E+01 -4.73845367230E+01  9.94242887897E+01  1.38543720490E+02  2.58095682795E-06  0.00000000000E+00  1.
      -16    1   17   17    0    0  3.66289391304E+01 -2.03552657869E+01  4.41133537819E+01  6.08440959252E+01  9.12506037497E-07  0.00000000000E+00  1.
</event>
<event>
23  80   1.0000000E+00   2.3570000E+02   7.8125000E-03   1.1298309E-01
        2   -1    0    0  501    0  0.00000000000E+00  0.00000000000E+00  2.65204832188E+03  2.65204832188E+03  0.00000000000E+00  0.00000000000E+00  1.
       -2   -1    0    0    0  502  0.00000000000E+00  0.00000000000E+00 -1.45730816351E+02  1.45730816351E+02  0.00000000000E+00  0.00000000000E+00  1.
       25    2    1    2    0    0  3.35729218450E+02 -7.61584644600E+01  1.52954241405E+03  1.57278072731E+03  1.25000000000E+02  0.00000000000E+00  1.
       -6    2    1    2    0  502 -2.74049899548E+02  2.75683618041E+02  3.82960661829E+02  5.72357875627E+02  1.72713243805E+02  0.00000000000E+00  1.
        6    2    1    2  501    0 -6.16793189025E+01 -1.99525153581E+02  5.93814429655E+02  6.52640535294E+02  1.72364341299E+02  0.00000000000E+00  1.
       -5    1    4    4    0  502 -8.05780831870E+01  1.16329127758E+02  2.22369333486E+02  2.63620895283E+02  4.75000000000E+00  0.00000000000E+00  1.
      -24    2    4    4    0    0 -1.93471816361E+02  1.59354490283E+02  1.60591328343E+02  3.08736980344E+02  8.18764373523E+01  0.00000000000E+00  1.
        3    1    7    7  704    0 -9.81723099723E+01  8.68993959926E+01  1.31171891007E+02  1.85459894478E+02  3.30362473978E-06  0.00000000000E+00  1.
       -4    1    7    7    0  704 -9.52995063886E+01  7.24550942904E+01  2.94194373358E+01  1.23277085866E+02  3.25159590172E-06  0.00000000000E+00  1.
        5    1    5    5  501    0 -5.67881881402E+01 -5.71423249773E+01  8.18505526285E+01  1.14944417357E+02  4.75000000000E+00  0.00000000000E+00  1.
       24    2    5    5    0    0 -4.89113076224E+00 -1.42382828604E+02  5.11963877026E+02  5.37696117937E+02  8.19347961690E+01  0.00000000000E+00  1.
       -1    1   11   11    0  703 -4.63853209094E+00  1.03589685194E+01  4.37347847685E+01  4.51835767452E+01  6.03156597170E-06  0.00000000000E+00  1.
        2    1   11   11  703    0 -2.52598671305E-01 -1.52741797123E+02  4.68229092258E+02  4.92512541192E+02  7.62939453125E-06  0.00000000000E+00  1.
      -15    2    3    3    0    0  3.01134039068E+02 -4.71912457821E+01  1.11935659331E+03  1.16011683169E+03  1.77679999994E+00  0.00000000000E+00  1.
       15    2    3    3    0    0  3.45951793815E+01 -2.89672186779E+01  4.10185820742E+02  4.12663895622E+02  1.77679999998E+00  0.00000000000E+00  1.
       24    2   14   14    0    0  1.42023436999E+02 -2.25702064369E+01  5.25761805364E+02  5.45074433520E+02  7.68909520544E-01  0.00000000000E+00  1.
      -24    2   15   15    0    0  2.80676035029E+01 -2.29899311987E+01  3.27730681385E+02  3.29735087487E+02  1.22519216744E+00  0.00000000000E+00  1.
        2    1   16   16  803    0  2.14887380703E+01 -3.28261811416E+00  8.03981751786E+01  8.32851008139E+01  0.00000000000E+00  0.00000000000E+00  1.
      -16    1   14   14    0    0  1.59110602070E+02 -2.46210393452E+01  5.93594787944E+02  6.15042398168E+02  1.68587394044E-05  0.00000000000E+00  1.
       -1    1   16   16    0  803  1.20534698929E+02 -1.92875883227E+01  4.45363630185E+02  4.61789332706E+02  1.19209289551E-05  0.00000000000E+00  1.
        1    1   17   17  804    0  1.61689172444E+01 -1.25261073147E+01  1.86906390635E+02  1.88022169197E+02  3.65002414999E-06  0.00000000000E+00  1.
       16    1   15   15    0    0  6.52757587863E+00 -5.97728747917E+00  8.24551393565E+01  8.29288081354E+01  1.49011611938E-06  0.00000000000E+00  1.
       -2    1   17   17    0  804  1.18986862585E+01 -1.04638238840E+01  1.40824290750E+02  1.41712918290E+02  0.00000000000E+00  0.00000000000E+00  1.
</event>
<event>
23  80   1.0000000E+00   2.3570000E+02   7.8125000E-03   1.1298309E-01
        3   -1    0    0  501    0  0.00000000000E+00  0.00000000000E+00  5.00735743863E+02  5.00735743863E+02  0.00000000000E+00  0.00000000000E+00  1.
       -3   -1    0    0    0  502  0.00000000000E+00  0.00000000000E+00 -3.98140412759E+02  3.98140412759E+02  0.00000000000E+00  0.00000000000E+00  1.
       25    2    1    2    0    0 -2.85394523590E+02  1.29396435879E+02  1.66574888223E+01  3.37780910720E+02  1.25000000000E+02  0.00000000000E+00  1.
       -6    2    1    2    0  502  2.88536858493E+02 -8.04360965804E+01 -2.94442539966E+01  3.47496877380E+02  1.73676801426E+02  0.00000000000E+00  1.
        6    2    1    2  501    0 -3.14233490311E+00 -4.89603392986E+01  1.15382096279E+02  2.13598368521E+02  1.72928441271E+02  0.00000000000E+00  1.
       -5    1    4    4    0  502 -1.22675258150E+00 -2.30443443712E+01 -3.37185294820E+01  4.11345166476E+01  4.75000000000E+00  0.00000000000E+00  1.
      -24    2    4    4    0    0  2.89763611074E+02 -5.73917522091E+01  4.27427548549E+00  3.06362360733E+02  8.11348452781E+01  0.00000000000E+00  1.
        1    1    7    7  704    0  1.17703998970E+01 -2.30441926756E+01 -3.71414652065E+00  2.61413850854E+01  2.16677435986E-06  0.00000000000E+00  1.
       -2    1    7    7    0  704  2.77993211177E+02 -3.43475595336E+01  7.98842200614E+00  2.80220975647E+02  3.68200426375E-06  0.00000000000E+00  1.
        5    1    5    5  501    0  2.55606136004E+01  4.55183950812E+01  2.72606165662E+01  5.90844562805E+01  4.75000000000E+00  0.00000000000E+00  1.
       24    2    5    5    0    0 -2.87029485035E+01 -9.44787343798E+01  8.81214797126E+01  1.54513912241E+02  7.97437357186E+01  0.00000000000E+00  1.
       -1    1   11   11    0  703 -5.17038634192E+00 -1.72101681152E+01  6.92803445492E+01  7.15729622297E+01  1.34869915235E-06  0.00000000000E+00  1.
        2    1   11   11  703    0 -2.35325621616E+01 -7.72685662646E+01  1.88411351634E+01  8.29409500110E+01  1.32745846816E-06  0.00000000000E+00  1.
      -15    2    3    3    0    0 -2.60460465924E+02  8.49829008591E+01  4.77075305390E+01  2.78102343097E+02  1.77680000000E+00  0.00000000000E+00  1.
       15    2    3    3    0    0 -2.49340576659E+01  4.44135350199E+01 -3.10500417167E+01  5.96785676227E+01  1.77680000000E+00  0.00000000000E+00  1.
       24    2   14   14    0    0 -1.50566241443E+02  4.96479726937E+01  2.69296254932E+01  1.60812023544E+02  4.33511626362E-01  0.00000000000E+00  1.
      -24    2   15   15    0    0 -4.64159174842E+00  8.93678700970E+00 -6.87860189362E+00  1.21954935277E+01  6.60481469050E-02  0.00000000000E+00  1.
       16    1   16   16    0    0 -5.51037165894E+01  1.79538788911E+01  9.80538433511E+00  5.87784561822E+01  5.89020114423E-07  0.00000000000E+00  1.
      -16    1   14   14    0    0 -1.09894224481E+02  3.53349281654E+01  2.07779050458E+01  1.17290319553E+02  1.60230794308E-06  0.00000000000E+00  1.
      -15    1   16   16    0    0 -9.54625248533E+01  3.16940938025E+01  1.71242411580E+01  1.02033567362E+02  2.01475877806E-06  0.00000000000E+00  1.
       15    1   17   17    0    0 -3.63317461674E+00  7.02481327046E+00 -5.37365928171E+00  9.56159889121E+00  2.18414504073E-07  0.00000000000E+00  1.
       16    1   15   15    0    0 -2.02924659174E+01  3.54767480102E+01 -2.41714398231E+01  4.74830740950E+01  6.96937998156E-07  0.00000000000E+00  1.
      -16    1   17   17    0    0 -1.00841713168E+00  1.91197373924E+00 -1.50494261191E+00  2.63389463649E+00  5.46036260182E-08  0.00000000000E+00  1.
</event>
<event>
23  80   1.0000000E+00   2.3570000E+02   7.8125000E-03   1.1298309E-01
        3   -1    0    0  501    0  0.00000000000E+00  0.00000000000E+00  7.16697033635E+02  7.16697033635E+02  0.00000000000E+00  0.00000000000E+00  1.
       -3   -1    0    0    0  502  0.00000000000E+00  0.00000000000E+00 -2.01736873650E+02  2.01736873650E+02  0.00000000000E+00  0.00000000000E+00  1.
       25    2    1    2    0    0 -9.10215138438E+01 -5.76771758795E+01 -2.39227448898E+01  1.66759918215E+02  1.25000000000E+02  0.00000000000E+00  1.
       -6    2    1    2    0  502 -5.83642721149E+01  1.24337756721E+02  7.58886442845E+01  2.30795440581E+02  1.69237061708E+02  0.00000000000E+00  1.
        6    2    1    2  501    0  1.49385785959E+02 -6.66605808416E+01  4.62994260590E+02  5.20878548489E+02  1.73755664229E+02  0.00000000000E+00  1.
       -5    1    4    4    0  502 -4.30699690456E+00 -3.15599751220E+01  8.20374104427E+00  3.32332080781E+01  4.75000000000E+00  0.00000000000E+00  1.
      -24    2    4    4    0    0 -5.40572752103E+01  1.55897731843E+02  6.76849032402E+01  1.97562232502E+02  8.49899863967E+01  0.00000000000E+00  1.
        1    1    7    7  704    0 -4.63417544343E+01  7.52734252090E+01  7.54249959781E+01  1.16200588488E+02  1.90734863281E-06  0.00000000000E+00  1.
       -2    1    7    7    0  704 -7.71552077606E+00  8.06243066341E+01 -7.74009273793E+00  8.13616440141E+01  1.69008337006E-06  0.00000000000E+00  1.
        5    1    5    5  501    0 -2.03088066922E+01  1.92801074021E+01  3.11844002507E+01  4.21805581956E+01  4.75000000000E+00  0.00000000000E+00  1.
       24    2    5    5    0    0  1.69694592651E+02 -8.59406882438E+01  4.31809860340E+02  4.78697990294E+02  8.06842844279E+01  0.00000000000E+00  1.
      -15    1   11   11    0    0  1.36148053014E+02 -7.35503336001E+01  4.06288297814E+02  4.34763478078E+02  1.77679999999E+00  0.00000000000E+00  1.
       16    1   11   11    0    0  3.35465396372E+01 -1.23903546437E+01  2.55215625262E+01  4.39345122154E+01  4.54873657902E-06  0.00000000000E+00  1.
      -15    2    3    3    0    0  1.63011538300E+01  2.47574512436E+01 -4.21010628159E+00  2.99923493813E+01  1.77680000000E+00  0.00000000000E+00  1.
       15    2    3    3    0    0 -1.07322667674E+02 -8.24346271231E+01 -1.97126386082E+01  1.36767568834E+02  1.77680000000E+00  0.00000000000E+00  1.
       24    2   14   14    0    0  1.20575969451E+01  1.95204294520E+01 -2.93135275720E+00  2.31316363821E+01  2.16708668503E-01  0.00000000000E+00  1.
      -24    2   15   15    0    0 -8.41861796499E+01 -6.48151488811E+01 -1.49178661922E+01  1.07293293031E+02  9.95805745501E-01  0.00000000000E+00  1.
       16    1   16   16    0    0  5.39218192912E+00  8.74821973660E+00 -1.42113738823E+00  1.03743243632E+01  4.41151096520E-07  0.00000000000E+00  1.
      -16    1   14   14    0    0  4.24355688488E+00  5.23702179164E+00 -1.27875352439E+00  6.86071299921E+00  1.40665168567E-07  0.00000000000E+00  1.
      -15    1   16   16    0    0  6.66541501597E+00  1.07722097154E+01 -1.51021536896E+00  1.27573120189E+01  1.11661654043E-07  0.00000000000E+00  1.
        3    1   17   17  804    0 -2.96422503689E+01 -2.25119711406E+01 -5.63709453354E+00  3.76460978901E+01  2.79396772385E-07  0.00000000000E+00  1.
       16    1   15   15    0    0 -2.31364880239E+01 -1.76194782421E+01 -4.79477241606E+00  2.94742758032E+01  5.66501406049E-07  0.00000000000E+00  1.
       -4    1   17   17    0  804 -5.45439292810E+01 -4.23031777404E+01 -9.28077165861E+00  6.96471951404E+01  7.45058059692E-07  0.00000000000E+00  1.
</event>
</LesHouchesEvents>
