<LesHouchesEvents version="1.0">
<!--
Output from the JHUGenerator v7.4.1 described in arXiv:1001.3396 [hep-ph], arXiv:1208.4018 [hep-ph], arXiv:1309.4819 [hep-ph], arXiv:1606.03107 [hep-ph]
   
   Command line: ./JHUGen Seed=765543533 PDFSet=3 Process=116 VegasNc0=100000 VegasNc2=100 DataFile=compare_to_reference/tWH_116 TopDK=1 DecayMode1=11 DecayMode2=11 ghg2=0.383432074687728,0.918260989345657 ghg3=6294.49296087723,2253.12941717723 ghg4=0.335495485382528,0.17285803562226 ghz1=0.154934976270359,0.453918144016304 ghz2=0.469297059144414,0.745302300947002 ghz3=3947.40921062637,3597.4885961919 ghz4=0.177791270766536,0.920170534486048 ghzgs2=0.0240331049939919,0.232175381101053 ghzgs3=0.331962910170583,0.0450183240308457 ghzgs4=0.808286540247172,0.133184346613754 ghgsgs2=0.530394804029869,0.211218112389125 ghgsgs3=0.914978695198138,0.055650585081425 ghgsgs4=0.694524307167701,0.511424456076726 ghz1_prime=0.143354267833606,0.0910761280837012 ghz1_prime2=7416.7007267243,4861.35525489789 ghz1_prime3=4431.44656075298,4436.48625894176 ghz1_prime4=2441.69123517064,6946.16318931911 ghz1_prime5=78314042.889773,69465359.939181 ghz1_prime6=51233058.8130761,29537873.5850789 ghz1_prime7=47832192.9001564,5955
   
   Input Parameter:
    Collider: P-P, sqrt(s)=13000.00
    Resonance: spin=0, mass= 125.00 width=   0.00407
    DecayMode1:11
    W boson: mass=80.399, width=2.0850
    Top quark mass=173.2000, width=2.0000
    Top quark decay= 1
    Random seed:   765543533
    To reproduce results using this seed, JHUGen should be compiled with the same compiler:
      GNU Fortran (GCC) 6.3.0
    
    WidthScheme:   2
    PDFSet:   3
    Unweighted: T
    
    
    LHE output: compare_to_reference/tWH_116.lhe
    Histogram output: compare_to_reference/tWH_116.dat
    Log file: compare_to_reference/tWH_116.log
    
-->
<init>
2212 2212   6500.0000000000000000    6500.0000000000000000 0 0  263000  263000  3  1
 2.4689079E+01  1.5691105E-01  1.0000000E+00 116
</init>
<event>
11 116   1.0000000E+00   7.4550000E+01   7.8125000E-03   1.3429423E-01
       21   -1    0    0  502  501  0.00000000000E+00  0.00000000000E+00  4.92105824558E+02  4.92105824558E+02  0.00000000000E+00  0.00000000000E+00  1.
       -5   -1    0    0    0  502  0.00000000000E+00  0.00000000000E+00 -1.97434947473E+02  1.97434947473E+02  0.00000000000E+00  0.00000000000E+00  1.
       25    1    1    2    0    0  6.44571613706E+01 -3.13815889098E+00 -6.80684156579E+01  1.56278222742E+02  1.25000000000E+02  0.00000000000E+00  1.
       -6    2    1    2    0  501 -1.17743717098E+02 -9.09650219214E+01  3.17738345288E+02  3.91118081302E+02  1.72851032180E+02  0.00000000000E+00  1.
       24    2    1    2    0    0  5.32865557276E+01  9.41031808124E+01  4.50009474557E+01  1.42144467987E+02  8.05301114308E+01  0.00000000000E+00  1.
       -5    1    4    4    0  501 -6.41828268625E+01 -1.03940294400E+02  1.21574113379E+02  1.72411854604E+02  4.75000000000E+00  0.00000000000E+00  1.
      -24    2    4    4    0    0 -5.35608902357E+01  1.29752724784E+01  1.96164231909E+02  2.18706226698E+02  7.94662258920E+01  0.00000000000E+00  1.
        3    1    7    7  704    0 -1.96641205849E+01 -3.90614099657E+00  1.73332100130E+02  1.74487685845E+02  0.00000000000E+00  0.00000000000E+00  1.
       -4    1    7    7    0  704 -3.38967696508E+01  1.68814134750E+01  2.28321317785E+01  4.42185408537E+01  3.16297987972E-06  0.00000000000E+00  1.
       -1    1    5    5    0  703  7.44407784941E+01  6.90961765202E+01  2.86165092750E+01  1.05520688567E+02  1.30587233902E-06  0.00000000000E+00  1.
        2    1    5    5  703    0 -2.11542227665E+01  2.50070042922E+01  1.63844381806E+01  3.66237794202E+01  9.53674316406E-07  0.00000000000E+00  1.
</event>
<event>
11 116   1.0000000E+00   7.4550000E+01   7.8125000E-03   1.3429423E-01
       21   -1    0    0  502  501  0.00000000000E+00  0.00000000000E+00  1.25257795563E+03  1.25257795563E+03  0.00000000000E+00  0.00000000000E+00  1.
       -5   -1    0    0    0  502  0.00000000000E+00  0.00000000000E+00 -1.61529080243E+02  1.61529080243E+02  0.00000000000E+00  0.00000000000E+00  1.
       25    1    1    2    0    0  1.13244712509E+02 -1.14883828335E+02  4.02665998650E+01  2.08012158272E+02  1.25000000000E+02  0.00000000000E+00  1.
       -6    2    1    2    0  501 -1.19701056703E+02  1.44771025985E+02  1.45691820795E+02  2.97279460944E+02  1.78499238969E+02  0.00000000000E+00  1.
       24    2    1    2    0    0  6.45634419340E+00 -2.98871976492E+01  9.05090454727E+02  9.08815416656E+02  7.63007296900E+01  0.00000000000E+00  1.
       -5    1    4    4    0  501 -3.20890783139E+01  1.39773084321E+01 -3.11767608411E+01  4.71129177040E+01  4.75000000000E+00  0.00000000000E+00  1.
      -24    2    4    4    0    0 -8.76119783887E+01  1.30793717552E+02  1.76868581636E+02  2.50166543240E+02  8.07338149628E+01  0.00000000000E+00  1.
        3    1    7    7  704    0 -3.56329398331E+01  1.14338488691E+02  1.00561316707E+02  1.56382782988E+02  1.34869915235E-06  0.00000000000E+00  1.
       -4    1    7    7    0  704 -5.19790385556E+01  1.64552288615E+01  7.63072649295E+01  9.37837602523E+01  1.65181236989E-06  0.00000000000E+00  1.
       -3    1    5    5    0  703 -1.40154115577E+01 -1.35956737769E+01  5.57233354937E+01  5.90454420351E+01  5.91739351558E-06  0.00000000000E+00  1.
        4    1    5    5  703    0  2.04717557511E+01 -1.62915238723E+01  8.49367119233E+02  8.49769974621E+02  1.07895932188E-05  0.00000000000E+00  1.
</event>
<event>
11 116   1.0000000E+00   7.4550000E+01   7.8125000E-03   1.3429423E-01
       21   -1    0    0  502  501  0.00000000000E+00  0.00000000000E+00  3.91273766008E+02  3.91273766008E+02  0.00000000000E+00  0.00000000000E+00  1.
       -5   -1    0    0    0  502  0.00000000000E+00  0.00000000000E+00 -1.79366203872E+02  1.79366203872E+02  0.00000000000E+00  0.00000000000E+00  1.
       25    1    1    2    0    0  5.13194973237E+01  2.49735932918E+01  4.40292443942E+01  1.44294648305E+02  1.25000000000E+02  0.00000000000E+00  1.
       -6    2    1    2    0  501 -7.43609734180E+01 -6.09584813443E+01  2.39375662520E+02  3.10012885714E+02  1.71935425919E+02  0.00000000000E+00  1.
       24    2    1    2    0    0  2.30414760943E+01  3.59848880525E+01 -7.14973447787E+01  1.16332435861E+02  8.12129517632E+01  0.00000000000E+00  1.
       -5    1    4    4    0  501 -3.42790338162E+01  1.21558832190E+00  1.81626548362E+02  1.84898067551E+02  4.75000000000E+00  0.00000000000E+00  1.
      -24    2    4    4    0    0 -4.00819396018E+01 -6.21740696662E+01  5.77491141587E+01  1.25114818163E+02  8.27440675619E+01  0.00000000000E+00  1.
        3    1    7    7  704    0 -5.91549958312E+01 -4.63971552810E+01  1.64383794174E+01  7.69560255459E+01  1.06624029994E-06  0.00000000000E+00  1.
       -4    1    7    7    0  704  1.90730562294E+01 -1.57769143852E+01  4.13107347412E+01  4.81587926168E+01  6.74349576174E-07  0.00000000000E+00  1.
       -1    1    5    5    0  703 -1.03245445444E+01  4.60715275030E+01 -6.58399480226E+01  8.10190139544E+01  0.00000000000E+00  0.00000000000E+00  1.
        2    1    5    5  703    0  3.33660206387E+01 -1.00866394505E+01 -5.65739675608E+00  3.53134219062E+01  7.44461774635E-07  0.00000000000E+00  1.
</event>
<event>
11 116   1.0000000E+00   7.4550000E+01   7.8125000E-03   1.3429423E-01
       21   -1    0    0  502  501  0.00000000000E+00  0.00000000000E+00  4.87257337993E+02  4.87257337993E+02  0.00000000000E+00  0.00000000000E+00  1.
       -5   -1    0    0    0  502  0.00000000000E+00  0.00000000000E+00 -3.15505695872E+02  3.15505695872E+02  0.00000000000E+00  0.00000000000E+00  1.
       25    1    1    2    0    0 -8.40146950632E+01 -2.86568592725E+02  6.14762693801E+01  3.29521409047E+02  1.25000000000E+02  0.00000000000E+00  1.
       -6    2    1    2    0  501  1.63236346771E+02  2.24227329343E+02  1.16755152879E+02  3.45186661990E+02  1.69109626458E+02  0.00000000000E+00  1.
       24    2    1    2    0    0 -7.92216517081E+01  6.23412633828E+01 -6.47978013755E+00  1.28054962829E+02  7.86993185163E+01  0.00000000000E+00  1.
       -5    1    4    4    0  501  1.15751853817E+02  4.77783648297E+01  4.69559358334E+01  1.33823339586E+02  4.75000000000E+00  0.00000000000E+00  1.
      -24    2    4    4    0    0  4.74844929540E+01  1.76448964513E+02  6.97992170454E+01  2.11363322404E+02  8.00843880472E+01  0.00000000000E+00  1.
        1    1    7    7  704    0  3.11803255997E+01  1.16139413223E+02  8.47607325499E+01  1.47122254573E+02  1.65181236989E-06  0.00000000000E+00  1.
       -2    1    7    7    0  704  1.63041673543E+01  6.03095512900E+01 -1.49615155045E+01  6.42410678313E+01  1.19209289551E-06  0.00000000000E+00  1.
       -3    1    5    5    0  703 -5.08745482315E+01 -7.22679757427E+00 -1.18756068171E+01  5.27397032435E+01  3.37174788087E-07  0.00000000000E+00  1.
        4    1    5    5  703    0 -2.83471034766E+01  6.95680609570E+01  5.39582667958E+00  7.53152595852E+01  1.17104546454E-06  0.00000000000E+00  1.
</event>
<event>
11 116   1.0000000E+00   7.4550000E+01   7.8125000E-03   1.3429423E-01
       -5   -1    0    0    0  502  0.00000000000E+00  0.00000000000E+00  3.17666055962E+02  3.17666055962E+02  0.00000000000E+00  0.00000000000E+00  1.
       21   -1    0    0  502  501  0.00000000000E+00  0.00000000000E+00 -3.03668837284E+02  3.03668837284E+02  0.00000000000E+00  0.00000000000E+00  1.
       25    1    1    2    0    0  1.13185308701E+02  1.37193852800E+02  4.24111421529E+01  2.21487634713E+02  1.25000000000E+02  0.00000000000E+00  1.
       -6    2    1    2    0  501 -2.95281794459E+01 -6.12335225037E+01  1.01315495125E+02  2.10325328408E+02  1.71319749469E+02  0.00000000000E+00  1.
       24    2    1    2    0    0 -8.36571292555E+01 -7.59603302966E+01 -1.29729418600E+02  1.89521930125E+02  7.95006471307E+01  0.00000000000E+00  1.
       -5    1    4    4    0  501 -5.41782935074E+01  1.65194584333E+01  6.44380815896E+01  8.59244368807E+01  4.75000000000E+00  0.00000000000E+00  1.
      -24    2    4    4    0    0  2.46501140615E+01 -7.77529809370E+01  3.68774135349E+01  1.24400891527E+02  8.63856702003E+01  0.00000000000E+00  1.
        1    1    7    7  704    0  4.20239989304E+01 -2.42604509745E+01  4.66542319846E+01  6.73142134297E+01  1.34869915235E-06  0.00000000000E+00  1.
       -2    1    7    7    0  704 -1.73738848689E+01 -5.34925299625E+01 -9.77681844967E+00  5.70866780977E+01  1.56795340037E-06  0.00000000000E+00  1.
      -15    1    5    5    0    0 -8.48207065130E+01 -7.84215156323E+01 -8.19035100143E+01  1.41618601668E+02  1.77680000000E+00  0.00000000000E+00  1.
       16    1    5    5    0    0  1.16357725757E+00  2.46118533576E+00 -4.78259085855E+01  4.79033284577E+01  1.50789149292E-06  0.00000000000E+00  1.
</event>
<event>
11 116   1.0000000E+00   7.4550000E+01   7.8125000E-03   1.3429423E-01
       21   -1    0    0  502  501  0.00000000000E+00  0.00000000000E+00  8.84055359011E+02  8.84055359011E+02  0.00000000000E+00  0.00000000000E+00  1.
       -5   -1    0    0    0  502  0.00000000000E+00  0.00000000000E+00 -4.87100591246E+02  4.87100591246E+02  0.00000000000E+00  0.00000000000E+00  1.
       25    1    1    2    0    0 -2.24142515635E+02  4.03132989417E+02 -6.26705035986E+01  4.81984093610E+02  1.25000000000E+02  0.00000000000E+00  1.
       -6    2    1    2    0  501  1.94860685073E+01 -2.59836804712E+02  5.31317349544E+02  6.16709062456E+02  1.73600316362E+02  0.00000000000E+00  1.
       24    2    1    2    0    0  2.04656447128E+02 -1.43296184705E+02 -7.16920781806E+01  2.72462794191E+02  8.17200235108E+01  0.00000000000E+00  1.
       -5    1    4    4    0  501 -5.67235845158E+01 -7.87617692882E+01  1.30905340882E+02  1.63032978606E+02  4.75000000000E+00  0.00000000000E+00  1.
      -24    2    4    4    0    0  7.62096530231E+01 -1.81075035424E+02  4.00412008662E+02  4.53676083851E+02  8.30429570141E+01  0.00000000000E+00  1.
        3    1    7    7  704    0  1.64880246204E+01  5.37295102434E+00  2.79089493835E+01  3.28577694660E+01  0.00000000000E+00  0.00000000000E+00  1.
       -4    1    7    7    0  704  5.97216284027E+01 -1.86447986448E+02  3.72503059279E+02  4.20818314385E+02  0.00000000000E+00  0.00000000000E+00  1.
       -1    1    5    5    0  703  1.13465201356E+02 -1.11532412596E+02 -1.33973657164E+01  1.59666278176E+02  2.37821785727E-06  0.00000000000E+00  1.
        4    1    5    5  703    0  9.11912457713E+01 -3.17637721090E+01 -5.82947124642E+01  1.12796516015E+02  2.33601545599E-06  0.00000000000E+00  1.
</event>
<event>
11 116   1.0000000E+00   7.4550000E+01   7.8125000E-03   1.3429423E-01
       21   -1    0    0  502  501  0.00000000000E+00  0.00000000000E+00  3.12206944672E+02  3.12206944672E+02  0.00000000000E+00  0.00000000000E+00  1.
       -5   -1    0    0    0  502  0.00000000000E+00  0.00000000000E+00 -1.83659111203E+03  1.83659111203E+03  0.00000000000E+00  0.00000000000E+00  1.
       25    1    1    2    0    0  1.18219600384E+02  4.37765513464E+02 -4.47233428053E+02  6.49043340511E+02  1.25000000000E+02  0.00000000000E+00  1.
       -6    2    1    2    0  501  1.32118569897E+02 -6.54466671731E+02 -6.02651389127E+02  9.15727891354E+02  1.72008526733E+02  0.00000000000E+00  1.
       24    2    1    2    0    0 -2.50338170281E+02  2.16701158267E+02 -4.74499350173E+02  5.84026824834E+02  7.94298893139E+01  0.00000000000E+00  1.
       -5    1    4    4    0  501  4.41031534124E+01 -2.99829686750E+01 -4.33287531105E+01  6.88767732810E+01  4.75000000001E+00  0.00000000000E+00  1.
      -24    2    4    4    0    0  8.80154164846E+01 -6.24483703056E+02 -5.59322636016E+02  8.46851118073E+02  8.11689355590E+01  0.00000000000E+00  1.
        3    1    7    7  704    0 -9.09699245696E-01 -3.91219544916E+00  2.74692238953E+00  4.86604650249E+00  1.56874907079E-05  0.00000000000E+00  1.
       -4    1    7    7    0  704  8.89251157303E+01 -6.20571507607E+02 -5.62069558406E+02  8.41985071570E+02  7.62939453125E-06  0.00000000000E+00  1.
      -13    1    5    5    0    0 -8.52717010319E+01  1.26027178703E+02 -2.12247035439E+02  2.61156903002E+02  1.05660000055E-01  0.00000000000E+00  1.
       14    1    5    5    0    0 -1.65066469250E+02  9.06739795645E+01 -2.62252314734E+02  3.22869921832E+02  3.81469726562E-06  0.00000000000E+00  1.
</event>
<event>
11 116   1.0000000E+00   7.4550000E+01   7.8125000E-03   1.3429423E-01
       21   -1    0    0  502  501  0.00000000000E+00  0.00000000000E+00  2.16170353095E+02  2.16170353095E+02  0.00000000000E+00  0.00000000000E+00  1.
       -5   -1    0    0    0  502  0.00000000000E+00  0.00000000000E+00 -4.09003529439E+02  4.09003529439E+02  0.00000000000E+00  0.00000000000E+00  1.
       25    1    1    2    0    0  4.55441311401E+01 -9.22426821608E+01 -1.73673289844E+02  2.37424497259E+02  1.25000000000E+02  0.00000000000E+00  1.
       -6    2    1    2    0  501 -5.92959972477E+01  1.34977567322E+02 -1.12928358541E+02  2.54440871366E+02  1.73932124373E+02  0.00000000000E+00  1.
       24    2    1    2    0    0  1.37518661075E+01 -4.27348851610E+01  9.37684720409E+01  1.33308513909E+02  8.34460861913E+01  0.00000000000E+00  1.
       -5    1    4    4    0  501 -4.61451466450E+01  1.05310750294E+02 -5.74137541504E+00  1.15218290988E+02  4.75000000000E+00  0.00000000000E+00  1.
      -24    2    4    4    0    0 -1.31508506027E+01  2.96668170274E+01 -1.07186983126E+02  1.39222580378E+02  8.27092052398E+01  0.00000000000E+00  1.
       13    1    7    7    0    0  2.43825823764E+01  2.04872656303E+01 -9.25961617820E+01  9.79198586455E+01  1.05659999995E-01  0.00000000000E+00  1.
      -14    1    7    7    0    0 -3.75334329791E+01  9.17955139706E+00 -1.45908213441E+01  4.13027217329E+01  9.23391186287E-07  0.00000000000E+00  1.
      -13    1    5    5    0    0  2.94285559196E+01 -5.90009901599E+01  8.80595584062E+01  1.10007516716E+02  1.05659999991E-01  0.00000000000E+00  1.
       14    1    5    5    0    0 -1.56766898120E+01  1.62661049989E+01  5.70891363474E+00  2.33009971930E+01  1.31940505631E-06  0.00000000000E+00  1.
</event>
<event>
11 116   1.0000000E+00   7.4550000E+01   7.8125000E-03   1.3429423E-01
       21   -1    0    0  502  501  0.00000000000E+00  0.00000000000E+00  8.96476313106E+02  8.96476313106E+02  0.00000000000E+00  0.00000000000E+00  1.
       -5   -1    0    0    0  502  0.00000000000E+00  0.00000000000E+00 -2.48212090090E+02  2.48212090090E+02  0.00000000000E+00  0.00000000000E+00  1.
       25    1    1    2    0    0  2.79904606681E+02  1.70540499332E+02  3.86689705963E+01  3.52917752516E+02  1.25000000000E+02  0.00000000000E+00  1.
       -6    2    1    2    0  501 -2.32891554075E+01 -1.27585494904E+02  3.71764438796E+02  4.30041290446E+02  1.72934294649E+02  0.00000000000E+00  1.
       24    2    1    2    0    0 -2.56615451274E+02 -4.29550044287E+01  2.37830813623E+02  3.61729360234E+02  8.11665689094E+01  0.00000000000E+00  1.
       -5    1    4    4    0  501  5.45066233044E+01 -4.50846579069E+01  8.12298365065E+01  1.07816729692E+02  4.75000000000E+00  0.00000000000E+00  1.
      -24    2    4    4    0    0 -7.77957787119E+01 -8.25008369969E+01  2.90534602290E+02  3.22224560754E+02  8.09922288555E+01  0.00000000000E+00  1.
        1    1    7    7  704    0 -1.80047175469E+01 -5.22551288493E+01  5.75334493167E+01  7.97801111511E+01  2.33601545599E-06  0.00000000000E+00  1.
       -2    1    7    7    0  704 -5.97910611650E+01 -3.02457081476E+01  2.33001152973E+02  2.42444449603E+02  3.81469726562E-06  0.00000000000E+00  1.
      -15    1    5    5    0    0 -7.13177699933E+01  2.15368224876E+01  4.74488450757E+01  8.83436978904E+01  1.77680000000E+00  0.00000000000E+00  1.
       16    1    5    5    0    0 -1.85297681281E+02 -6.44918269163E+01  1.90381968548E+02  2.73385662343E+02  2.69739830470E-06  0.00000000000E+00  1.
</event>
<event>
11 116   1.0000000E+00   7.4550000E+01   7.8125000E-03   1.3429423E-01
       21   -1    0    0  502  501  0.00000000000E+00  0.00000000000E+00  2.73157833013E+02  2.73157833013E+02  0.00000000000E+00  0.00000000000E+00  1.
       -5   -1    0    0    0  502  0.00000000000E+00  0.00000000000E+00 -4.94039551507E+02  4.94039551507E+02  0.00000000000E+00  0.00000000000E+00  1.
       25    1    1    2    0    0  1.32488510301E+02  2.68958335779E+02 -8.95409402090E+01  3.36948618813E+02  1.25000000000E+02  0.00000000000E+00  1.
       -6    2    1    2    0  501 -1.04358712405E+02 -1.50047274453E+02 -1.34176227003E+02  2.83987006371E+02  1.70998346394E+02  0.00000000000E+00  1.
       24    2    1    2    0    0 -2.81297978962E+01 -1.18911061326E+02  2.83544871890E+00  1.46261759336E+02  8.03326610984E+01  0.00000000000E+00  1.
       -5    1    4    4    0  501 -1.17867121459E+02 -7.50183746645E+01 -8.44441361334E+01  1.63321123820E+02  4.75000000000E+00  0.00000000000E+00  1.
      -24    2    4    4    0    0  1.35084090543E+01 -7.50288997884E+01 -4.97320908698E+01  1.20665882552E+02  7.92159165259E+01  0.00000000000E+00  1.
        1    1    7    7  704    0  3.42125431708E+01 -2.50641125147E+00 -1.20744996505E+01  3.63672070605E+01  2.92001931999E-07  0.00000000000E+00  1.
       -2    1    7    7    0  704 -2.07041341165E+01 -7.25224885369E+01 -3.76575912193E+01  8.42986754910E+01  8.25906184945E-07  0.00000000000E+00  1.
       -3    1    5    5    0  703 -2.41278868984E+01 -6.71678081182E+01  4.05706695697E+01  8.20953628588E+01  1.96604996949E-06  0.00000000000E+00  1.
        4    1    5    5  703    0 -4.00191099776E+00 -5.17432532077E+01 -3.77352208508E+01  6.41663964768E+01  1.96604996949E-06  0.00000000000E+00  1.
</event>
<event>
11 116   1.0000000E+00   7.4550000E+01   7.8125000E-03   1.3429423E-01
       21   -1    0    0  502  501  0.00000000000E+00  0.00000000000E+00  1.15091430604E+03  1.15091430604E+03  0.00000000000E+00  0.00000000000E+00  1.
       -5   -1    0    0    0  502  0.00000000000E+00  0.00000000000E+00 -5.66538826088E+02  5.66538826088E+02  0.00000000000E+00  0.00000000000E+00  1.
       25    1    1    2    0    0  4.80197608231E+02  3.36383025361E+02  3.69098281081E+02  7.03989931604E+02  1.25000000000E+02  0.00000000000E+00  1.
       -6    2    1    2    0  501 -2.77156455826E+02  1.98451190960E+02  2.09290969865E+02  4.35758067108E+02  1.72869334420E+02  0.00000000000E+00  1.
       24    2    1    2    0    0 -2.03041152405E+02 -5.34834216321E+02  5.98622900575E+00  5.77705133416E+02  8.02124536412E+01  0.00000000000E+00  1.
       -5    1    4    4    0  501 -2.13406504485E+02  1.08409176449E+02  9.42651614269E+01  2.57300153233E+02  4.75000000000E+00  0.00000000000E+00  1.
      -24    2    4    4    0    0 -6.37499513417E+01  9.00420145105E+01  1.15025808438E+02  1.78457913875E+02  8.02787004411E+01  0.00000000000E+00  1.
        1    1    7    7  704    0  9.58812782982E+00 -5.64386961147E+00 -9.56940269207E-01  1.11669688882E+01  2.81643772634E-06  0.00000000000E+00  1.
       -2    1    7    7    0  704 -7.33380791715E+01  9.56858841220E+01  1.15982748708E+02  1.67290944987E+02  0.00000000000E+00  0.00000000000E+00  1.
       -1    1    5    5    0  703 -2.02435197290E+02 -5.37304481696E+02  3.55313426201E+00  5.74185283610E+02  1.21704452957E-05  0.00000000000E+00  1.
        2    1    5    5  703    0 -6.05955115576E-01  2.47026537407E+00  2.43309474374E+00  3.51984980539E+00  7.49058711369E-06  0.00000000000E+00  1.
</event>
<event>
11 116   1.0000000E+00   7.4550000E+01   7.8125000E-03   1.3429423E-01
       21   -1    0    0  502  501  0.00000000000E+00  0.00000000000E+00  8.22248243726E+02  8.22248243726E+02  0.00000000000E+00  0.00000000000E+00  1.
       -5   -1    0    0    0  502  0.00000000000E+00  0.00000000000E+00 -3.65668571709E+02  3.65668571709E+02  0.00000000000E+00  0.00000000000E+00  1.
       25    1    1    2    0    0 -7.21425724576E+00  1.88504333953E+02 -1.45145939739E+02  2.68846188832E+02  1.25000000000E+02  0.00000000000E+00  1.
       -6    2    1    2    0  501  7.45420908454E+01 -1.86146146635E+02  7.15994973018E+02  7.63416368770E+02  1.73057330107E+02  0.00000000000E+00  1.
       24    2    1    2    0    0 -6.73278335996E+01 -2.35818731784E+00 -1.14269361262E+02  1.55654257833E+02  8.14380920311E+01  0.00000000000E+00  1.
       -5    1    4    4    0  501 -6.11753575740E+00 -1.47414881676E+01 -1.77074929344E+00  1.67461568785E+01  4.74999999998E+00  0.00000000000E+00  1.
      -24    2    4    4    0    0  8.06596266028E+01 -1.71404658467E+02  7.17765722312E+02  7.46670211891E+02  8.02698006248E+01  0.00000000000E+00  1.
        1    1    7    7  704    0  2.28583966857E+01 -5.38430004099E+01  1.06325170441E+02  1.21353272974E+02  6.18051595536E-06  0.00000000000E+00  1.
       -2    1    7    7    0  704  5.78012299171E+01 -1.17561658057E+02  6.11440551871E+02  6.25316938918E+02  1.07895932188E-05  0.00000000000E+00  1.
       -1    1    5    5    0  703 -6.44768743952E+01  2.63623818543E+01 -1.03688496161E+02  1.24914157504E+02  1.34869915235E-06  0.00000000000E+00  1.
        2    1    5    5  703    0 -2.85095920436E+00 -2.87205691721E+01 -1.05808651014E+01  3.07401003292E+01  7.15255737305E-07  0.00000000000E+00  1.
</event>
<event>
11 116   1.0000000E+00   7.4550000E+01   7.8125000E-03   1.3429423E-01
       21   -1    0    0  502  501  0.00000000000E+00  0.00000000000E+00  1.04783225251E+03  1.04783225251E+03  0.00000000000E+00  0.00000000000E+00  1.
       -5   -1    0    0    0  502  0.00000000000E+00  0.00000000000E+00 -8.73880529145E+01  8.73880529145E+01  0.00000000000E+00  0.00000000000E+00  1.
       25    1    1    2    0    0 -5.90532922089E+01  6.80138021777E+01  1.19254995950E+02  1.94833063586E+02  1.25000000000E+02  0.00000000000E+00  1.
       -6    2    1    2    0  501 -5.84153056269E+01 -1.39159182855E+02  6.65175255885E+02  7.03462066468E+02  1.72113717682E+02  0.00000000000E+00  1.
       24    2    1    2    0    0  1.17468597836E+02  7.11453806778E+01  1.76013947763E+02  2.36925175372E+02  7.93227095384E+01  0.00000000000E+00  1.
       -5    1    4    4    0  501  4.09289284716E+01 -2.08394375891E+01  2.23006338901E+02  2.27736358615E+02  4.75000000000E+00  0.00000000000E+00  1.
      -24    2    4    4    0    0 -9.93442340985E+01 -1.18319745266E+02  4.42168916983E+02  4.75725707854E+02  8.32631911367E+01  0.00000000000E+00  1.
        1    1    7    7  704    0 -9.32458866383E+01 -5.93016870645E+01  2.26120429550E+02  2.51678235299E+02  3.81469726562E-06  0.00000000000E+00  1.
       -2    1    7    7    0  704 -6.09834746017E+00 -5.90180582019E+01  2.16048487434E+02  2.24047472554E+02  0.00000000000E+00  0.00000000000E+00  1.
       -3    1    5    5    0  703  5.16100883147E+01  4.37932045279E+01  2.92162387039E+01  7.37226870283E+01  2.36022351661E-06  0.00000000000E+00  1.
        4    1    5    5  703    0  6.58585095211E+01  2.73521761498E+01  1.46797709059E+02  1.63202488343E+02  0.00000000000E+00  0.00000000000E+00  1.
</event>
<event>
11 116   1.0000000E+00   7.4550000E+01   7.8125000E-03   1.3429423E-01
       21   -1    0    0  502  501  0.00000000000E+00  0.00000000000E+00  1.29569691998E+02  1.29569691998E+02  0.00000000000E+00  0.00000000000E+00  1.
       -5   -1    0    0    0  502  0.00000000000E+00  0.00000000000E+00 -1.25460857994E+03  1.25460857994E+03  0.00000000000E+00  0.00000000000E+00  1.
       25    1    1    2    0    0  2.19175457781E+01  1.11251891560E+02 -3.15909415687E+02  3.58163539613E+02  1.25000000000E+02  0.00000000000E+00  1.
       -6    2    1    2    0  501  9.05015057774E+01 -2.60962572100E+02 -1.99014503884E+02  3.82671923859E+02  1.74754233049E+02  0.00000000000E+00  1.
       24    2    1    2    0    0 -1.12419051556E+02  1.49710680541E+02 -6.10114968370E+02  6.43342808465E+02  8.12303117937E+01  0.00000000000E+00  1.
       -5    1    4    4    0  501  1.13824395893E+02 -1.41107919425E+02 -1.03767351734E+02  2.08944164338E+02  4.75000000000E+00  0.00000000000E+00  1.
      -24    2    4    4    0    0 -2.33228901160E+01 -1.19854652676E+02 -9.52471521498E+01  1.73727759521E+02  7.87414723274E+01  0.00000000000E+00  1.
        1    1    7    7  704    0  1.43389622708E+01  8.39645319262E-01  1.61637252770E+00  1.44541863630E+01  2.14556024136E-06  0.00000000000E+00  1.
       -2    1    7    7    0  704 -3.76618523868E+01 -1.20694297995E+02 -9.68635246775E+01  1.59273573158E+02  0.00000000000E+00  0.00000000000E+00  1.
      -11    1    5    5    0    0 -5.83284813214E+01  8.12032570246E+01 -4.50079755115E+02  4.61050937152E+02  5.10998597706E-04  0.00000000000E+00  1.
       12    1    5    5    0    0 -5.40905702341E+01  6.85074235160E+01 -1.60035213255E+02  1.82291871313E+02  8.31393994053E-06  0.00000000000E+00  1.
</event>
<event>
11 116   1.0000000E+00   7.4550000E+01   7.8125000E-03   1.3429423E-01
       21   -1    0    0  502  501  0.00000000000E+00  0.00000000000E+00  1.10143942782E+02  1.10143942782E+02  0.00000000000E+00  0.00000000000E+00  1.
       -5   -1    0    0    0  502  0.00000000000E+00  0.00000000000E+00 -5.16954537009E+02  5.16954537009E+02  0.00000000000E+00  0.00000000000E+00  1.
       25    1    1    2    0    0 -7.58565014940E+01 -1.06268000446E+02 -1.33663793042E+02  2.24806819977E+02  1.25000000000E+02  0.00000000000E+00  1.
       -6    2    1    2    0  501  4.44605085194E+01  1.03295429273E+02 -2.11630957063E+02  2.98918558849E+02  1.78655983137E+02  0.00000000000E+00  1.
       24    2    1    2    0    0  3.13959929747E+01  2.97257117271E+00 -6.15158441223E+01  1.03373100966E+02  7.68586649046E+01  0.00000000000E+00  1.
       -5    1    4    4    0  501  9.62427772319E+00  2.51909687982E+01 -1.69368763724E+02  1.71567923156E+02  4.75000000000E+00  0.00000000000E+00  1.
      -24    2    4    4    0    0  3.48362307962E+01  7.81044604753E+01 -4.22621933387E+01  1.27350635693E+02  8.43695543634E+01  0.00000000000E+00  1.
       15    1    7    7    0    0  5.95746502980E+01  7.33189120154E+01 -3.77652321211E+01  1.01755449941E+02  1.77680000000E+00  0.00000000000E+00  1.
      -16    1    7    7    0    0 -2.47384195019E+01  4.78554845984E+00 -4.49696121763E+00  2.55951857525E+01  1.97686242482E-07  0.00000000000E+00  1.
       -3    1    5    5    0  703  5.04998669376E+01 -1.57623911842E+01 -2.61139176438E+01  5.89968323833E+01  1.06624029994E-06  0.00000000000E+00  1.
        2    1    5    5  703    0 -1.91038739629E+01  1.87349623569E+01 -3.54019264785E+01  4.43762685823E+01  1.34869915235E-06  0.00000000000E+00  1.
</event>
<event>
11 116   1.0000000E+00   7.4550000E+01   7.8125000E-03   1.3429423E-01
       -5   -1    0    0    0  502  0.00000000000E+00  0.00000000000E+00  2.77734534047E+02  2.77734534047E+02  0.00000000000E+00  0.00000000000E+00  1.
       21   -1    0    0  502  501  0.00000000000E+00  0.00000000000E+00 -8.78296768920E+02  8.78296768920E+02  0.00000000000E+00  0.00000000000E+00  1.
       25    1    1    2    0    0  2.84079453276E+02  2.44137417611E+02 -1.21283129564E+02  4.13084509474E+02  1.25000000000E+02  0.00000000000E+00  1.
       -6    2    1    2    0  501 -3.48111901257E+00 -1.74946432055E+02 -1.15627191156E+02  2.71602367390E+02  1.72568323741E+02  0.00000000000E+00  1.
       24    2    1    2    0    0 -2.80598334263E+02 -6.91909855553E+01 -3.63651914153E+02  4.71344426102E+02  8.00002229824E+01  0.00000000000E+00  1.
       -5    1    4    4    0  501  5.21134370229E+01 -4.93751243256E+01  4.13627016597E+00  7.20651403343E+01  4.75000000000E+00  0.00000000000E+00  1.
      -24    2    4    4    0    0 -5.55945560355E+01 -1.25571307730E+02 -1.19763461322E+02  1.99537227056E+02  8.13198028009E+01  0.00000000000E+00  1.
        1    1    7    7  704    0 -3.91865255682E+01 -9.03222653621E+01 -3.19659823361E+01  1.03515793157E+02  1.68587394044E-06  0.00000000000E+00  1.
       -2    1    7    7    0  704 -1.64080304673E+01 -3.52490423677E+01 -8.77974789864E+01  9.60214338990E+01  2.52318507296E-06  0.00000000000E+00  1.
       -1    1    5    5    0  703 -2.19281949388E+02 -2.01665691447E+01 -2.49173348162E+02  3.32533639311E+02  7.13664510112E-06  0.00000000000E+00  1.
        2    1    5    5  703    0 -6.13163848748E+01 -4.90244164106E+01 -1.14478565990E+02  1.38810786791E+02  4.47312904341E-06  0.00000000000E+00  1.
</event>
<event>
11 116   1.0000000E+00   7.4550000E+01   7.8125000E-03   1.3429423E-01
       21   -1    0    0  502  501  0.00000000000E+00  0.00000000000E+00  3.64554457866E+02  3.64554457866E+02  0.00000000000E+00  0.00000000000E+00  1.
       -5   -1    0    0    0  502  0.00000000000E+00  0.00000000000E+00 -1.82432598714E+02  1.82432598714E+02  0.00000000000E+00  0.00000000000E+00  1.
       25    1    1    2    0    0 -6.85006113874E+01  3.16989307139E+01  9.83766148915E+01  1.76068493281E+02  1.25000000000E+02  0.00000000000E+00  1.
       -6    2    1    2    0  501  9.87579429684E+01  2.82782143242E+01  1.45172475435E+02  2.47956588740E+02  1.72784934444E+02  0.00000000000E+00  1.
       24    2    1    2    0    0 -3.02573315810E+01 -5.99771450381E+01 -6.14272311745E+01  1.22961974560E+02  8.26654608438E+01  0.00000000000E+00  1.
       -5    1    4    4    0  501  3.71073210752E+01  7.86918240587E+01  7.78257143616E+01  1.16827910907E+02  4.75000000000E+00  0.00000000000E+00  1.
      -24    2    4    4    0    0  6.16506218933E+01 -5.04136097344E+01  6.73467610734E+01  1.31128677833E+02  7.94783788008E+01  0.00000000000E+00  1.
       13    1    7    7    0    0  7.76282472671E+01 -5.20223301070E+01  4.52871597629E+01  1.03843177951E+02  1.05660000000E-01  0.00000000000E+00  1.
      -14    1    7    7    0    0 -1.59776253738E+01  1.60872037254E+00  2.20596013105E+01  2.72854998818E+01  1.48892354927E-06  0.00000000000E+00  1.
       -1    1    5    5    0  703 -3.21232976222E+01 -4.40558732926E+01 -8.10132310031E+01  9.76522903944E+01  1.90734863281E-06  0.00000000000E+00  1.
        2    1    5    5  703    0  1.86596604120E+00 -1.59212717455E+01  1.95859998286E+01  2.53096841653E+01  2.26183723939E-06  0.00000000000E+00  1.
</event>
<event>
11 116   1.0000000E+00   7.4550000E+01   7.8125000E-03   1.3429423E-01
       21   -1    0    0  502  501  0.00000000000E+00  0.00000000000E+00  4.57487841687E+02  4.57487841687E+02  0.00000000000E+00  0.00000000000E+00  1.
       -5   -1    0    0    0  502  0.00000000000E+00  0.00000000000E+00 -4.73238301537E+02  4.73238301537E+02  0.00000000000E+00  0.00000000000E+00  1.
       25    1    1    2    0    0 -3.04638138566E+02  1.77849689227E+02 -1.20499462448E+02  3.93166666793E+02  1.25000000000E+02  0.00000000000E+00  1.
       -6    2    1    2    0  501  2.83114908536E+01  1.55492414534E+00  1.01611486026E+02  1.98050735836E+02  1.67616352332E+02  0.00000000000E+00  1.
       24    2    1    2    0    0  2.76326647712E+02 -1.79404613372E+02  3.13751657124E+00  3.39508740595E+02  8.19384488215E+01  0.00000000000E+00  1.
       -5    1    4    4    0  501 -4.94488153350E+01 -2.60659521795E+00  6.15378204429E+01  7.91292962279E+01  4.75000000000E+00  0.00000000000E+00  1.
      -24    2    4    4    0    0  7.77603061886E+01  4.16151936328E+00  4.00736655832E+01  1.18921439608E+02  8.04513931709E+01  0.00000000000E+00  1.
        3    1    7    7  704    0  1.83251434457E+01  3.43449759014E+01  3.45222319254E+01  5.20304982590E+01  8.25906184945E-07  0.00000000000E+00  1.
       -4    1    7    7    0  704  5.94351627429E+01 -3.01834565381E+01  5.55143365783E+00  6.68909413487E+01  8.42936970218E-07  0.00000000000E+00  1.
      -15    1    5    5    0    0  9.95727443720E+01 -4.07068318808E+01 -3.16740729411E+01  1.12152492163E+02  1.77680000000E+00  0.00000000000E+00  1.
       16    1    5    5    0    0  1.76753903340E+02 -1.38697781492E+02  3.48115895124E+01  2.27356248432E+02  9.53674316406E-07  0.00000000000E+00  1.
</event>
<event>
11 116   1.0000000E+00   7.4550000E+01   7.8125000E-03   1.3429423E-01
       -5   -1    0    0    0  502  0.00000000000E+00  0.00000000000E+00  3.44948197235E+02  3.44948197235E+02  0.00000000000E+00  0.00000000000E+00  1.
       21   -1    0    0  502  501  0.00000000000E+00  0.00000000000E+00 -2.64534249622E+02  2.64534249622E+02  0.00000000000E+00  0.00000000000E+00  1.
       25    1    1    2    0    0 -1.89045187715E+01  6.47868538952E+01  2.13418072694E+02  2.56372757952E+02  1.25000000000E+02  0.00000000000E+00  1.
       -6    2    1    2    0  501  3.20694640471E+01 -8.98100882437E+01 -1.56793529944E+02  2.58031728992E+02  1.81388697719E+02  0.00000000000E+00  1.
       24    2    1    2    0    0 -1.31649452756E+01  2.50232343485E+01  2.37894048628E+01  9.50779599125E+01  8.76036793521E+01  0.00000000000E+00  1.
       -5    1    4    4    0  501  1.33667060737E+01 -3.75367967344E+01 -1.54224350803E+02  1.59359319843E+02  4.75000000000E+00  0.00000000000E+00  1.
      -24    2    4    4    0    0  1.87027579733E+01 -5.22732915093E+01 -2.56917914054E+00  9.86724091489E+01  8.15313037107E+01  0.00000000000E+00  1.
        3    1    7    7  704    0 -2.91613997281E+01 -2.24835281620E+01 -1.68798452925E+01  4.05071036957E+01  5.84003863998E-07  0.00000000000E+00  1.
       -4    1    7    7    0  704  4.78641577014E+01 -2.97897633473E+01  1.43106661520E+01  5.81653054532E+01  1.14341533740E-06  0.00000000000E+00  1.
       -1    1    5    5    0  703  2.13069693973E+01 -1.51648942761E+01  3.21833272975E+01  4.14695975293E+01  4.76837158203E-07  0.00000000000E+00  1.
        2    1    5    5  703    0 -3.44719146729E+01  4.01881286246E+01 -8.39392243464E+00  5.36083623832E+01  9.68460846500E-07  0.00000000000E+00  1.
</event>
<event>
11 116   1.0000000E+00   7.4550000E+01   7.8125000E-03   1.3429423E-01
       21   -1    0    0  502  501  0.00000000000E+00  0.00000000000E+00  3.29506424839E+02  3.29506424839E+02  0.00000000000E+00  0.00000000000E+00  1.
       -5   -1    0    0    0  502  0.00000000000E+00  0.00000000000E+00 -5.89695101919E+02  5.89695101919E+02  0.00000000000E+00  0.00000000000E+00  1.
       25    1    1    2    0    0  1.30865372124E+02  1.35191496001E+01 -1.40883242689E+02  2.29742466901E+02  1.25000000000E+02  0.00000000000E+00  1.
       -6    2    1    2    0  501  2.15656023639E+02 -5.05112235874E+01  5.21668747514E+01  2.92710718840E+02  1.84117565327E+02  0.00000000000E+00  1.
       24    2    1    2    0    0 -3.46521395763E+02  3.69920739873E+01 -1.71472309142E+02  3.96748341017E+02  8.10000125788E+01  0.00000000000E+00  1.
       -5    1    4    4    0  501  1.13401157483E+02 -1.18604369138E+01  9.72258461200E+01  1.49919712300E+02  4.75000000000E+00  0.00000000000E+00  1.
      -24    2    4    4    0    0  1.02254866156E+02 -3.86507866736E+01 -4.50589713686E+01  1.42791006540E+02  8.00563531814E+01  0.00000000000E+00  1.
       11    1    7    7    0    0  2.85192776407E+01  2.33271350485E+01 -9.70523221493E-01  3.68571070800E+01  5.10997576884E-04  0.00000000000E+00  1.
      -12    1    7    7    0    0  7.37355885156E+01 -6.19779217221E+01 -4.40884481471E+01  1.05933899460E+02  1.50789149292E-06  0.00000000000E+00  1.
      -15    1    5    5    0    0 -3.13842867126E+02  2.38241161384E+01 -1.76969207295E+02  3.61090281099E+02  1.77680000000E+00  0.00000000000E+00  1.
       16    1    5    5    0    0 -3.26785286374E+01  1.31679578489E+01  5.49689815253E+00  3.56580599180E+01  1.66893005371E-06  0.00000000000E+00  1.
</event>
<event>
11 116   1.0000000E+00   7.4550000E+01   7.8125000E-03   1.3429423E-01
       21   -1    0    0  502  501  0.00000000000E+00  0.00000000000E+00  1.07810516381E+03  1.07810516381E+03  0.00000000000E+00  0.00000000000E+00  1.
       -5   -1    0    0    0  502  0.00000000000E+00  0.00000000000E+00 -6.70361436462E+02  6.70361436462E+02  0.00000000000E+00  0.00000000000E+00  1.
       25    1    1    2    0    0 -3.01747568180E+02  5.33335424110E+02  6.91061344946E+02  9.32034898484E+02  1.25000000000E+02  0.00000000000E+00  1.
       -6    2    1    2    0  501  2.02260386549E+01 -4.39127309588E+01 -2.92561494720E+00  1.81550800431E+02  1.74970607059E+02  0.00000000000E+00  1.
       24    2    1    2    0    0  2.81521529526E+02 -4.89422693151E+02 -2.80392002652E+02  6.34880901355E+02  7.52671216169E+01  0.00000000000E+00  1.
       -5    1    4    4    0  501  9.44386700163E+00 -6.96770255823E+01 -4.82266439334E+01  8.53958207585E+01  4.75000000000E+00  0.00000000000E+00  1.
      -24    2    4    4    0    0  1.07821716532E+01  2.57642946235E+01  4.53010289862E+01  9.61549796729E+01  8.00845976807E+01  0.00000000000E+00  1.
        3    1    7    7  704    0  2.79345987780E+01  1.86437775317E+01 -1.21978667443E+01  3.57312216787E+01  9.97376473587E-07  0.00000000000E+00  1.
       -4    1    7    7    0  704 -1.71524271248E+01  7.12051709183E+00  5.74988957305E+01  6.04237579943E+01  1.16800772800E-06  0.00000000000E+00  1.
       -1    1    5    5    0  703  1.29531994659E+02 -1.98549230384E+02 -7.92725970537E+01  2.49968956413E+02  5.47844185499E-06  0.00000000000E+00  1.
        2    1    5    5  703    0  1.51989534867E+02 -2.90873462767E+02 -2.01119405599E+02  3.84911944943E+02  2.69739830470E-06  0.00000000000E+00  1.
</event>
<event>
11 116   1.0000000E+00   7.4550000E+01   7.8125000E-03   1.3429423E-01
       21   -1    0    0  502  501  0.00000000000E+00  0.00000000000E+00  5.54329414879E+01  5.54329414879E+01  0.00000000000E+00  0.00000000000E+00  1.
       -5   -1    0    0    0  502  0.00000000000E+00  0.00000000000E+00 -1.49098282907E+03  1.49098282907E+03  0.00000000000E+00  0.00000000000E+00  1.
       25    1    1    2    0    0  4.81557775924E+01 -1.08329141608E+01 -5.03705721034E+02  5.21325986641E+02  1.25000000000E+02  0.00000000000E+00  1.
       -6    2    1    2    0  501  1.06559656834E+02 -5.06107327593E+01 -3.02062246772E+02  3.68781451055E+02  1.75618196616E+02  0.00000000000E+00  1.
       24    2    1    2    0    0 -1.54715434426E+02  6.14436469202E+01 -6.29781919778E+02  6.56308332863E+02  8.00198344785E+01  0.00000000000E+00  1.
       -5    1    4    4    0  501  8.74738898011E+01 -8.45510575533E+01 -1.87937760599E+02  2.23927950665E+02  4.75000000000E+00  0.00000000000E+00  1.
      -24    2    4    4    0    0  1.90857670327E+01  3.39403247940E+01 -1.14124486173E+02  1.44853500390E+02  8.02616102545E+01  0.00000000000E+00  1.
        1    1    7    7  704    0  4.34319325567E+01  2.00531524101E+01 -1.04988902901E+02  1.15373876677E+02  1.90734863281E-06  0.00000000000E+00  1.
       -2    1    7    7    0  704 -2.43461655240E+01  1.38871723839E+01 -9.13558327245E+00  2.94796237131E+01  1.54512898884E-06  0.00000000000E+00  1.
       -3    1    5    5    0  703 -9.15169070122E+01 -4.81240287998E+00 -2.73339484962E+02  2.88293214505E+02  6.60724947956E-06  0.00000000000E+00  1.
        2    1    5    5  703    0 -6.31985274141E+01  6.62560498001E+01 -3.56442434816E+02  3.68015118358E+02  6.60724947956E-06  0.00000000000E+00  1.
</event>
<event>
11 116   1.0000000E+00   7.4550000E+01   7.8125000E-03   1.3429423E-01
       21   -1    0    0  502  501  0.00000000000E+00  0.00000000000E+00  1.23674205907E+03  1.23674205907E+03  0.00000000000E+00  0.00000000000E+00  1.
       -5   -1    0    0    0  502  0.00000000000E+00  0.00000000000E+00 -4.29637717854E+02  4.29637717854E+02  0.00000000000E+00  0.00000000000E+00  1.
       25    1    1    2    0    0  9.76408427253E+01 -1.98730785253E+02  3.55633246399E+02  4.37181501346E+02  1.25000000000E+02  0.00000000000E+00  1.
       -6    2    1    2    0  501  9.64725519616E+01  1.26459236494E+02  7.90549803055E+02  8.24354097731E+02  1.71148460579E+02  0.00000000000E+00  1.
       24    2    1    2    0    0 -1.94113394687E+02  7.22715487589E+01 -3.39078708234E+02  4.04844177851E+02  7.75967216151E+01  0.00000000000E+00  1.
       -5    1    4    4    0  501  7.65001675380E+01  7.63391204851E+01  6.13366409969E+02  6.22832924891E+02  4.74999999999E+00  0.00000000000E+00  1.
      -24    2    4    4    0    0  1.99723844236E+01  5.01201160091E+01  1.77183393086E+02  2.01521172840E+02  7.94097358579E+01  0.00000000000E+00  1.
       11    1    7    7    0    0  4.18449243221E+01  1.98175413049E+01  4.65826236418E+01  6.56785616507E+01  5.11000822499E-04  0.00000000000E+00  1.
      -12    1    7    7    0    0 -2.18725398984E+01  3.03025747042E+01  1.30600769444E+02  1.35842611190E+02  3.30362473978E-06  0.00000000000E+00  1.
       -3    1    5    5    0  703 -1.68778934113E+02  7.30716364021E+01 -3.30239805553E+02  3.78000161135E+02  3.81469726562E-06  0.00000000000E+00  1.
        4    1    5    5  703    0 -2.53344605743E+01 -8.00087643175E-01 -8.83890268081E+00  2.68440167156E+01  3.47347313984E-06  0.00000000000E+00  1.
</event>
<event>
11 116   1.0000000E+00   7.4550000E+01   7.8125000E-03   1.3429423E-01
       -5   -1    0    0    0  502  0.00000000000E+00  0.00000000000E+00  8.03604036967E+01  8.03604036967E+01  0.00000000000E+00  0.00000000000E+00  1.
       21   -1    0    0  502  501  0.00000000000E+00  0.00000000000E+00 -1.84486116772E+03  1.84486116772E+03  0.00000000000E+00  0.00000000000E+00  1.
       25    1    1    2    0    0 -6.85001935108E+01 -2.27029090206E+02 -3.25340647363E+02  4.21551919860E+02  1.25000000000E+02  0.00000000000E+00  1.
       -6    2    1    2    0  501  1.45650609843E+02  2.06461137179E+02 -1.20026390234E+03  1.23884554672E+03  1.73967100475E+02  0.00000000000E+00  1.
       24    2    1    2    0    0 -7.71504163321E+01  2.05679530273E+01 -2.38896214323E+02  2.64824104842E+02  8.17629369323E+01  0.00000000000E+00  1.
       -5    1    4    4    0  501  9.63778946436E+01  1.79554702085E+02 -9.10176118039E+02  9.32722744423E+02  4.74999999999E+00  0.00000000000E+00  1.
      -24    2    4    4    0    0  4.92727151993E+01  2.69064350941E+01 -2.90087784299E+02  3.06122802292E+02  8.00530497279E+01  0.00000000000E+00  1.
       15    1    7    7    0    0 -1.09728748023E+01  5.44117782832E+00 -1.66573835325E+02  1.67032960911E+02  1.77680000000E+00  0.00000000000E+00  1.
      -16    1    7    7    0    0  6.02455900015E+01  2.14652572658E+01 -1.23513948975E+02  1.39089841381E+02  2.69739830470E-06  0.00000000000E+00  1.
       -1    1    5    5    0  703 -7.19582334553E+01  2.50012537718E+01 -9.97544551415E+01  1.25514944818E+02  1.90734863281E-06  0.00000000000E+00  1.
        2    1    5    5  703    0 -5.19218287678E+00 -4.43330074453E+00 -1.39141759181E+02  1.39309160024E+02  0.00000000000E+00  0.00000000000E+00  1.
</event>
<event>
11 116   1.0000000E+00   7.4550000E+01   7.8125000E-03   1.3429423E-01
       21   -1    0    0  502  501  0.00000000000E+00  0.00000000000E+00  3.05682787785E+02  3.05682787785E+02  0.00000000000E+00  0.00000000000E+00  1.
       -5   -1    0    0    0  502  0.00000000000E+00  0.00000000000E+00 -5.03356726400E+02  5.03356726400E+02  0.00000000000E+00  0.00000000000E+00  1.
       25    1    1    2    0    0 -1.14825950637E+02 -3.33403004581E+01 -1.87642406792E+02  2.55208243208E+02  1.25000000000E+02  0.00000000000E+00  1.
       -6    2    1    2    0  501 -1.43211165195E+02  1.11447867933E+02  7.28663599694E+01  2.60694569958E+02  1.72400949206E+02  0.00000000000E+00  1.
       24    2    1    2    0    0  2.58037115833E+02 -7.81075674747E+01 -8.28978917921E+01  2.93136701020E+02  7.98318218348E+01  0.00000000000E+00  1.
       -5    1    4    4    0  501 -5.30793878387E+01  9.10643458525E+01 -1.73650123226E+01  1.06931018193E+02  4.75000000000E+00  0.00000000000E+00  1.
      -24    2    4    4    0    0 -9.01317773565E+01  2.03835220804E+01  9.02313722920E+01  1.53763551765E+02  8.34404221211E+01  0.00000000000E+00  1.
        3    1    7    7  704    0  7.11820456264E-02 -1.89965197562E+01 -1.71405123353E+00  1.90738250323E+01  8.76765887937E-07  0.00000000000E+00  1.
       -4    1    7    7    0  704 -9.02029594021E+01  3.93800418366E+01  9.19454235255E+01  1.34689726732E+02  1.34869915235E-06  0.00000000000E+00  1.
      -13    1    5    5    0    0  2.59087519405E+02 -6.40052015916E+01 -8.08046022212E+01  2.78841179610E+02  1.05660000081E-01  0.00000000000E+00  1.
       14    1    5    5    0    0 -1.05040357217E+00 -1.41023658831E+01 -2.09328957090E+00  1.42955214104E+01  3.75177979037E-06  0.00000000000E+00  1.
</event>
<event>
11 116   1.0000000E+00   7.4550000E+01   7.8125000E-03   1.3429423E-01
       -5   -1    0    0    0  502  0.00000000000E+00  0.00000000000E+00  5.29323800597E+02  5.29323800597E+02  0.00000000000E+00  0.00000000000E+00  1.
       21   -1    0    0  502  501  0.00000000000E+00  0.00000000000E+00 -3.03739275580E+02  3.03739275580E+02  0.00000000000E+00  0.00000000000E+00  1.
       25    1    1    2    0    0  6.98932218566E+01  5.06472013026E+01  1.12927100059E+02  1.89282147571E+02  1.25000000000E+02  0.00000000000E+00  1.
       -6    2    1    2    0  501 -2.47365009011E+02 -2.02423238568E+02 -1.74210400700E+01  3.64725557615E+02  1.74804532393E+02  0.00000000000E+00  1.
       24    2    1    2    0    0  1.77471787154E+02  1.51776037265E+02  1.30078465028E+02  2.79055370991E+02  8.01204860892E+01  0.00000000000E+00  1.
       -5    1    4    4    0  501  1.36367380033E+01 -4.10405967539E+01  1.50739398008E+01  4.60442978707E+01  4.75000000000E+00  0.00000000000E+00  1.
      -24    2    4    4    0    0 -2.61001747014E+02 -1.61382641814E+02 -3.24949798708E+01  3.18681259744E+02  7.95961844056E+01  0.00000000000E+00  1.
        3    1    7    7  704    0 -5.43222711961E+01 -3.50690920569E+01 -4.05558189329E+01  7.63251257118E+01  4.83936861281E-06  0.00000000000E+00  1.
       -4    1    7    7    0  704 -2.06679475818E+02 -1.26313549757E+02  8.06083906217E+00  2.42356134032E+02  5.92819059332E-06  0.00000000000E+00  1.
      -15    1    5    5    0    0  8.19345071822E+01  1.18919048784E+02  9.11698513805E+01  1.70792571413E+02  1.77680000000E+00  0.00000000000E+00  1.
       16    1    5    5    0    0  9.55372799720E+01  3.28569884819E+01  3.89086136470E+01  1.08262799578E+02  2.33601545599E-06  0.00000000000E+00  1.
</event>
<event>
11 116   1.0000000E+00   7.4550000E+01   7.8125000E-03   1.3429423E-01
       21   -1    0    0  502  501  0.00000000000E+00  0.00000000000E+00  4.29097114024E+02  4.29097114024E+02  0.00000000000E+00  0.00000000000E+00  1.
       -5   -1    0    0    0  502  0.00000000000E+00  0.00000000000E+00 -8.92295760940E+02  8.92295760940E+02  0.00000000000E+00  0.00000000000E+00  1.
       25    1    1    2    0    0  4.38747242686E+01  4.55957114235E+02 -5.70770959172E+01  4.78230777271E+02  1.25000000000E+02  0.00000000000E+00  1.
       -6    2    1    2    0  501 -1.99211318649E+02 -1.81795335974E+01 -1.79929760821E+02  3.20548939010E+02  1.74244823600E+02  0.00000000000E+00  1.
       24    2    1    2    0    0  1.55336594380E+02 -4.37777580638E+02 -2.26191790177E+02  5.22613158683E+02  7.86328177194E+01  0.00000000000E+00  1.
       -5    1    4    4    0  501 -1.43636756778E+01  4.93619936213E+01 -2.46954492109E+01  5.72306675217E+01  4.75000000000E+00  0.00000000000E+00  1.
      -24    2    4    4    0    0 -1.84847642971E+02 -6.75415272187E+01 -1.55234311610E+02  2.63318271488E+02  8.06741072920E+01  0.00000000000E+00  1.
        3    1    7    7  704    0 -7.25142009954E+01 -2.50849293039E+01 -1.41140971318E+01  7.80177592733E+01  2.52881091065E-06  0.00000000000E+00  1.
       -4    1    7    7    0  704 -1.12333441975E+02 -4.24565979148E+01 -1.41120214478E+02  1.85300512215E+02  2.69739830470E-06  0.00000000000E+00  1.
      -11    1    5    5    0    0  1.45750473414E+02 -4.33221134291E+02 -2.29544153221E+02  5.11482423916E+02  5.11041312032E-04  0.00000000000E+00  1.
       12    1    5    5    0    0  9.58612096566E+00 -4.55644634670E+00  3.35236304351E+00  1.11307347670E+01  2.16677435986E-06  0.00000000000E+00  1.
</event>
<event>
11 116   1.0000000E+00   7.4550000E+01   7.8125000E-03   1.3429423E-01
       21   -1    0    0  502  501  0.00000000000E+00  0.00000000000E+00  6.98890805724E+02  6.98890805724E+02  0.00000000000E+00  0.00000000000E+00  1.
       -5   -1    0    0    0  502  0.00000000000E+00  0.00000000000E+00 -1.25806866965E+02  1.25806866965E+02  0.00000000000E+00  0.00000000000E+00  1.
       25    1    1    2    0    0  2.92790420040E+01 -3.14366268512E+01  7.99797673330E+01  1.54490410677E+02  1.25000000000E+02  0.00000000000E+00  1.
       -6    2    1    2    0  501  6.06588297693E+00  1.45560259934E+02  4.73678813847E+02  5.24648276821E+02  1.72219660535E+02  0.00000000000E+00  1.
       24    2    1    2    0    0 -3.53449249809E+01 -1.14123633083E+02  1.94253575786E+01  1.45558985191E+02  8.08492813995E+01  0.00000000000E+00  1.
       -5    1    4    4    0  501  2.91844661293E+01  1.23867625055E+02  3.60296199381E+02  3.82139811311E+02  4.75000000000E+00  0.00000000000E+00  1.
      -24    2    4    4    0    0 -2.31185831524E+01  2.16926348786E+01  1.13382614466E+02  1.42508465510E+02  8.02994781043E+01  0.00000000000E+00  1.
        1    1    7    7  704    0  1.83346947027E+01  3.77961611977E+00  8.94747325079E+01  9.14121123551E+01  1.34869915235E-06  0.00000000000E+00  1.
       -2    1    7    7    0  704 -4.14532778551E+01  1.79130187588E+01  2.39078819583E+01  5.10963531547E+01  1.71926082395E-06  0.00000000000E+00  1.
       -1    1    5    5    0  703  2.08622798567E+01 -1.21036571941E+01  1.61637564039E+01  2.90344667486E+01  1.75201159199E-06  0.00000000000E+00  1.
        2    1    5    5  703    0 -5.62072048376E+01 -1.02019975889E+02  3.26160117475E+00  1.16524518442E+02  2.14576721191E-06  0.00000000000E+00  1.
</event>
<event>
11 116   1.0000000E+00   7.4550000E+01   7.8125000E-03   1.3429423E-01
       -5   -1    0    0    0  502  0.00000000000E+00  0.00000000000E+00  6.54380502895E+02  6.54380502895E+02  0.00000000000E+00  0.00000000000E+00  1.
       21   -1    0    0  502  501  0.00000000000E+00  0.00000000000E+00 -8.50211600941E+02  8.50211600941E+02  0.00000000000E+00  0.00000000000E+00  1.
       25    1    1    2    0    0 -8.99275960277E+01  3.97073627693E+02  2.22937673300E+02  4.80708481840E+02  1.25000000000E+02  0.00000000000E+00  1.
       -6    2    1    2    0  501 -1.72809233852E+02  1.47216794358E+02 -2.76707748846E+02  3.97789353648E+02  1.73589676418E+02  0.00000000000E+00  1.
       24    2    1    2    0    0  2.62736829879E+02 -5.44290422050E+02 -1.42061022501E+02  6.26094268349E+02  8.08083747790E+01  0.00000000000E+00  1.
       -5    1    4    4    0  501 -1.41769621936E+02  3.48914567175E+01 -1.42730931910E+02  2.04232027067E+02  4.75000000000E+00  0.00000000000E+00  1.
      -24    2    4    4    0    0 -3.10396119152E+01  1.12325337640E+02 -1.33976816935E+02  1.93557326581E+02  7.70338381050E+01  0.00000000000E+00  1.
        3    1    7    7  704    0 -3.06503010929E+01  6.72433354875E+01 -2.91389022819E+01  7.94366587337E+01  9.53674316406E-07  0.00000000000E+00  1.
       -4    1    7    7    0  704 -3.89310822262E-01  4.50820021528E+01 -1.04837914654E+02  1.14120667847E+02  1.90734863281E-06  0.00000000000E+00  1.
      -13    1    5    5    0    0  9.17237012514E+01 -1.67155116447E+02 -8.24405632914E+01  2.07727051598E+02  1.05660000068E-01  0.00000000000E+00  1.
       14    1    5    5    0    0  1.71013128628E+02 -3.77135305603E+02 -5.96204592094E+01  4.18367216751E+02  5.26683855876E-06  0.00000000000E+00  1.
</event>
<event>
11 116   1.0000000E+00   7.4550000E+01   7.8125000E-03   1.3429423E-01
       21   -1    0    0  502  501  0.00000000000E+00  0.00000000000E+00  1.12224000431E+03  1.12224000431E+03  0.00000000000E+00  0.00000000000E+00  1.
       -5   -1    0    0    0  502  0.00000000000E+00  0.00000000000E+00 -5.46665839201E+02  5.46665839201E+02  0.00000000000E+00  0.00000000000E+00  1.
       25    1    1    2    0    0 -2.34235034759E+02  2.47507827851E+02  5.14505060344E+02  6.29655964377E+02  1.25000000000E+02  0.00000000000E+00  1.
       -6    2    1    2    0  501  2.14533471615E+02 -3.13775850219E+02  4.62508247064E+02  6.23707382565E+02  1.74977500955E+02  0.00000000000E+00  1.
       24    2    1    2    0    0  1.97015631433E+01  6.62680223679E+01 -4.01439142294E+02  4.15542496573E+02  8.21132091280E+01  0.00000000000E+00  1.
       -5    1    4    4    0  501  7.96926634384E+01 -2.27468210854E+02  2.65326318473E+02  3.58487552544E+02  4.75000000000E+00  0.00000000000E+00  1.
      -24    2    4    4    0    0  1.34840808177E+02 -8.63076393654E+01  1.97181928591E+02  2.65219830021E+02  7.63530818686E+01  0.00000000000E+00  1.
       11    1    7    7    0    0  2.55803371514E+01 -5.53821127220E+01  4.73707564793E+01  7.72367828694E+01  5.11001712413E-04  0.00000000000E+00  1.
      -12    1    7    7    0    0  1.09260471026E+02 -3.09255266434E+01  1.49811172112E+02  1.87983047152E+02  0.00000000000E+00  0.00000000000E+00  1.
       -3    1    5    5    0  703  2.08457061542E+01  5.45629990551E+01 -3.99348350912E+02  4.03597286546E+02  0.00000000000E+00  0.00000000000E+00  1.
        4    1    5    5  703    0 -1.14414301085E+00  1.17050233127E+01 -2.09079138178E+00  1.19452100267E+01  3.05353844744E-06  0.00000000000E+00  1.
</event>
<event>
11 116   1.0000000E+00   7.4550000E+01   7.8125000E-03   1.3429423E-01
       -5   -1    0    0    0  502  0.00000000000E+00  0.00000000000E+00  4.58892638123E+02  4.58892638123E+02  0.00000000000E+00  0.00000000000E+00  1.
       21   -1    0    0  502  501  0.00000000000E+00  0.00000000000E+00 -1.92987070535E+02  1.92987070535E+02  0.00000000000E+00  0.00000000000E+00  1.
       25    1    1    2    0    0  2.18696079562E+02 -3.21472076145E+01  1.04615226147E+02  2.74646616063E+02  1.25000000000E+02  0.00000000000E+00  1.
       -6    2    1    2    0  501 -1.69772896856E+02  2.42103807543E+01  9.40721986292E+01  2.61435737081E+02  1.73464944657E+02  0.00000000000E+00  1.
       24    2    1    2    0    0 -4.89231827054E+01  7.93682686024E+00  6.72181428114E+01  1.15797355514E+02  8.02139501235E+01  0.00000000000E+00  1.
       -5    1    4    4    0  501 -1.61545619274E+02  8.65348993395E+00  7.94129723265E+01  1.80279928635E+02  4.75000000000E+00  0.00000000000E+00  1.
      -24    2    4    4    0    0 -8.22727758176E+00  1.55568908204E+01  1.46592263027E+01  8.11558084462E+01  7.78567105673E+01  0.00000000000E+00  1.
        3    1    7    7  704    0  1.93516682575E+01 -2.28462317898E+01  1.58168706950E+01  3.38616415717E+01  7.53945746462E-07  0.00000000000E+00  1.
       -4    1    7    7    0  704 -2.75789458393E+01  3.84031226102E+01 -1.15764439232E+00  4.72941668746E+01  7.28025048989E-07  0.00000000000E+00  1.
       -1    1    5    5    0  703 -4.90609734946E+01  3.33563574214E+00  8.45797936719E+01  9.78358169773E+01  1.65181236989E-06  0.00000000000E+00  1.
        2    1    5    5  703    0  1.37790789150E-01  4.60119111810E+00 -1.73616508605E+01  1.79615385368E+01  8.25906184945E-07  0.00000000000E+00  1.
</event>
<event>
11 116   1.0000000E+00   7.4550000E+01   7.8125000E-03   1.3429423E-01
       21   -1    0    0  502  501  0.00000000000E+00  0.00000000000E+00  2.80545715362E+02  2.80545715362E+02  0.00000000000E+00  0.00000000000E+00  1.
       -5   -1    0    0    0  502  0.00000000000E+00  0.00000000000E+00 -2.14512426460E+02  2.14512426460E+02  0.00000000000E+00  0.00000000000E+00  1.
       25    1    1    2    0    0 -1.24835186734E+02 -2.61018752304E+01 -2.46321865395E+01  1.80268900122E+02  1.25000000000E+02  0.00000000000E+00  1.
       -6    2    1    2    0  501  7.35384858620E+01  1.95922417897E+01  1.70875059288E+01  1.90592666561E+02  1.73901744807E+02  0.00000000000E+00  1.
       24    2    1    2    0    0  5.12967008722E+01  6.50963344074E+00  7.35779695125E+01  1.24196575139E+02  8.56583027540E+01  0.00000000000E+00  1.
       -5    1    4    4    0  501 -4.16758325586E+01  9.08502767256E+00  2.45584909448E+01  4.94478990934E+01  4.75000000000E+00  0.00000000000E+00  1.
      -24    2    4    4    0    0  1.15214318421E+02  1.05072141171E+01 -7.47098501599E+00  1.41144767468E+02  8.05064534613E+01  0.00000000000E+00  1.
       11    1    7    7    0    0  5.93658014535E+01  4.09094356823E+01  1.51179260904E+01  7.36643197185E+01  5.11001656794E-04  0.00000000000E+00  1.
      -12    1    7    7    0    0  5.58485169670E+01 -3.04022215651E+01 -2.25889111064E+01  6.74804477496E+01  4.76837158203E-07  0.00000000000E+00  1.
       -1    1    5    5    0  703  2.98545139313E+01 -1.46572226364E+01  8.55407686357E+01  9.17788062478E+01  9.53674316406E-07  0.00000000000E+00  1.
        2    1    5    5  703    0  2.14421869409E+01  2.11668560772E+01 -1.19627991232E+01  3.24177688909E+01  1.41050333574E-06  0.00000000000E+00  1.
</event>
<event>
11 116   1.0000000E+00   7.4550000E+01   7.8125000E-03   1.3429423E-01
       21   -1    0    0  502  501  0.00000000000E+00  0.00000000000E+00  3.20755547135E+02  3.20755547135E+02  0.00000000000E+00  0.00000000000E+00  1.
       -5   -1    0    0    0  502  0.00000000000E+00  0.00000000000E+00 -2.89278231202E+02  2.89278231202E+02  0.00000000000E+00  0.00000000000E+00  1.
       25    1    1    2    0    0  1.35946491845E+02 -2.06179502185E+01  1.44697091545E+02  2.35518145411E+02  1.25000000000E+02  0.00000000000E+00  1.
       -6    2    1    2    0  501 -8.04295466752E+01 -7.59486827930E+01 -1.12899376852E+02  2.37055346764E+02  1.76668768433E+02  0.00000000000E+00  1.
       24    2    1    2    0    0 -5.55169451700E+01  9.65666330116E+01 -3.20398759855E-01  1.37460286161E+02  8.05480093106E+01  0.00000000000E+00  1.
       -5    1    4    4    0  501 -1.57131837583E+01  3.65444825396E+01 -7.26788940663E+01  8.29890805504E+01  4.75000000000E+00  0.00000000000E+00  1.
      -24    2    4    4    0    0 -6.47163629170E+01 -1.12493165333E+02 -4.02204827858E+01  1.54066266214E+02  7.26347525211E+01  0.00000000000E+00  1.
        3    1    7    7  704    0  1.20903008841E+01 -3.11201597161E+01  4.25222028228E+00  3.36559221171E+01  1.49843753457E-06  0.00000000000E+00  1.
       -4    1    7    7    0  704 -7.68066638011E+01 -8.13730056166E+01 -4.44727030681E+01  1.20410344097E+02  1.26159253648E-06  0.00000000000E+00  1.
       -1    1    5    5    0  703 -6.59135388414E+01  3.51650728794E+01 -5.87267194735E+00  7.49377423533E+01  3.37174788087E-07  0.00000000000E+00  1.
        2    1    5    5  703    0  1.03965936715E+01  6.14015601322E+01  5.55227318749E+00  6.25225438077E+01  3.15398134120E-07  0.00000000000E+00  1.
</event>
<event>
11 116   1.0000000E+00   7.4550000E+01   7.8125000E-03   1.3429423E-01
       21   -1    0    0  502  501  0.00000000000E+00  0.00000000000E+00  6.52570046609E+02  6.52570046609E+02  0.00000000000E+00  0.00000000000E+00  1.
       -5   -1    0    0    0  502  0.00000000000E+00  0.00000000000E+00 -3.28465542111E+02  3.28465542111E+02  0.00000000000E+00  0.00000000000E+00  1.
       25    1    1    2    0    0  2.34705531951E+01 -8.72329202419E+01 -1.60739462659E+02  2.22761361320E+02  1.25000000000E+02  0.00000000000E+00  1.
       -6    2    1    2    0  501 -1.90524955284E+02  2.48434542176E+01  4.98706089921E+02  5.61728784793E+02  1.72958109774E+02  0.00000000000E+00  1.
       24    2    1    2    0    0  1.67054402089E+02  6.23894660243E+01 -1.38621227644E+01  1.96545442607E+02  8.14759708984E+01  0.00000000000E+00  1.
       -5    1    4    4    0  501 -1.91726332052E+01  5.59358874612E+01  1.83082613023E+02  1.92453160695E+02  4.75000000000E+00  0.00000000000E+00  1.
      -24    2    4    4    0    0 -1.71352322079E+02 -3.10924332436E+01  3.15623476898E+02  3.69275624097E+02  8.01121070534E+01  0.00000000000E+00  1.
        1    1    7    7  704    0 -8.66307866313E+01 -3.17367359509E+01  2.34413608082E+02  2.51916361627E+02  6.03156597170E-06  0.00000000000E+00  1.
       -2    1    7    7    0  704 -8.47215354476E+01  6.44302707258E-01  8.12098688159E+01  1.17359262471E+02  2.33601545599E-06  0.00000000000E+00  1.
      -11    1    5    5    0    0  1.23967971222E+02  5.40782127514E+01 -4.52230294348E+01  1.42610074591E+02  5.10998597706E-04  0.00000000000E+00  1.
       12    1    5    5    0    0  4.30864308673E+01  8.31125327285E+00  3.13609066704E+01  5.39353680161E+01  1.30587233902E-06  0.00000000000E+00  1.
</event>
<event>
11 116   1.0000000E+00   7.4550000E+01   7.8125000E-03   1.3429423E-01
       -5   -1    0    0    0  502  0.00000000000E+00  0.00000000000E+00  5.66484449918E+02  5.66484449918E+02  0.00000000000E+00  0.00000000000E+00  1.
       21   -1    0    0  502  501  0.00000000000E+00  0.00000000000E+00 -1.74012783004E+02  1.74012783004E+02  0.00000000000E+00  0.00000000000E+00  1.
       25    1    1    2    0    0 -2.15144861964E+01  5.74888093249E+01  1.14454641144E+02  1.80257319389E+02  1.25000000000E+02  0.00000000000E+00  1.
       -6    2    1    2    0  501 -1.11628467403E+02 -1.49668155414E+02  3.25042113146E+01  2.55181096925E+02  1.70878310487E+02  0.00000000000E+00  1.
       24    2    1    2    0    0  1.33142953599E+02  9.21793460888E+01  2.45512814456E+02  3.05058816608E+02  8.09954417824E+01  0.00000000000E+00  1.
       -5    1    4    4    0  501 -5.28764075929E+01  1.86305664430E+01  5.76917813684E+00  5.65584512013E+01  4.75000000000E+00  0.00000000000E+00  1.
      -24    2    4    4    0    0 -5.87520598100E+01 -1.68298721857E+02  2.67350331778E+01  1.98622645723E+02  8.34261894411E+01  0.00000000000E+00  1.
       13    1    7    7    0    0  6.12488050822E-01 -1.73169352273E+01 -2.31281558205E+01  2.88993796296E+01  1.05660000046E-01  0.00000000000E+00  1.
      -14    1    7    7    0    0 -5.93645478609E+01 -1.50981786629E+02  4.98631889983E+01  1.69723266094E+02  3.43852164790E-06  0.00000000000E+00  1.
       -1    1    5    5    0  703  8.24841843021E+01  9.33437371282E+01  2.06282327039E+02  2.40975294106E+02  3.81469726562E-06  0.00000000000E+00  1.
        2    1    5    5  703    0  5.06587692973E+01 -1.16439103946E+00  3.92304874169E+01  6.40835225013E+01  3.30362473978E-06  0.00000000000E+00  1.
</event>
<event>
11 116   1.0000000E+00   7.4550000E+01   7.8125000E-03   1.3429423E-01
       -5   -1    0    0    0  502  0.00000000000E+00  0.00000000000E+00  5.65498792379E+02  5.65498792379E+02  0.00000000000E+00  0.00000000000E+00  1.
       21   -1    0    0  502  501  0.00000000000E+00  0.00000000000E+00 -8.96099173345E+02  8.96099173345E+02  0.00000000000E+00  0.00000000000E+00  1.
       25    1    1    2    0    0  2.12450756454E+01  1.29147732736E+01  5.01900509805E+02  5.17829379575E+02  1.25000000000E+02  0.00000000000E+00  1.
       -6    2    1    2    0  501  6.92797336373E+01 -5.25271417032E+01 -7.84321512165E+02  8.07627434036E+02  1.71880934527E+02  0.00000000000E+00  1.
       24    2    1    2    0    0 -9.05248092827E+01  3.96123684297E+01 -4.81793786058E+01  1.36141152113E+02  8.03074090459E+01  0.00000000000E+00  1.
       -5    1    4    4    0  501 -2.64542655187E+01  2.69461407096E+01 -2.60469346783E+02  2.63235190992E+02  4.75000000000E+00  0.00000000000E+00  1.
      -24    2    4    4    0    0  9.57339991559E+01 -7.94732824128E+01 -5.23852165382E+02  5.44392243044E+02  8.03792379802E+01  0.00000000000E+00  1.
        3    1    7    7  704    0  9.05293548568E+00 -5.02318426286E+00 -2.48045612801E+00  1.06461581638E+01  7.04571275556E-06  0.00000000000E+00  1.
       -4    1    7    7    0  704  8.66810636703E+01 -7.44500981500E+01 -5.21371709254E+02  5.33746084880E+02  1.52587890625E-05  0.00000000000E+00  1.
      -11    1    5    5    0    0 -3.38036809136E+01  1.21689601998E+01 -6.19764908442E+01  7.16369866289E+01  5.10999042666E-04  0.00000000000E+00  1.
       12    1    5    5    0    0 -5.67211283691E+01  2.74434082299E+01  1.37971122384E+01  6.45041654846E+01  4.12953092472E-07  0.00000000000E+00  1.
</event>
<event>
11 116   1.0000000E+00   7.4550000E+01   7.8125000E-03   1.3429423E-01
       21   -1    0    0  502  501  0.00000000000E+00  0.00000000000E+00  9.73488071098E+02  9.73488071098E+02  0.00000000000E+00  0.00000000000E+00  1.
       -5   -1    0    0    0  502  0.00000000000E+00  0.00000000000E+00 -2.00255827232E+02  2.00255827232E+02  0.00000000000E+00  0.00000000000E+00  1.
       25    1    1    2    0    0  4.67778990862E+01  1.36367028047E+02  9.15991042283E+00  1.91031521326E+02  1.25000000000E+02  0.00000000000E+00  1.
       -6    2    1    2    0  501 -8.79692131515E+01 -3.41483973279E+02  4.61858265026E+02  6.06658507630E+02  1.74274500254E+02  0.00000000000E+00  1.
       24    2    1    2    0    0  4.11913140654E+01  2.05116945232E+02  3.02214068417E+02  3.76053869373E+02  7.94574348027E+01  0.00000000000E+00  1.
       -5    1    4    4    0  501 -1.08517600519E+02 -1.88649184321E+02  2.62887011685E+02  3.41316169819E+02  4.74999999999E+00  0.00000000000E+00  1.
      -24    2    4    4    0    0  2.05483873673E+01 -1.52834788957E+02  1.98971253341E+02  2.65342337811E+02  8.38825824583E+01  0.00000000000E+00  1.
        3    1    7    7  704    0  1.32802076902E+01 -2.53102762367E+01 -3.74204258585E-01  2.85852064590E+01  3.89587717589E-06  0.00000000000E+00  1.
       -4    1    7    7    0  704  7.26817967703E+00 -1.27524512721E+02  1.99345457599E+02  2.36757131352E+02  2.69739830470E-06  0.00000000000E+00  1.
       -3    1    5    5    0  703  9.43630573133E+00  1.84661740563E+02  2.64092858317E+02  3.22388027240E+02  3.81469726562E-06  0.00000000000E+00  1.
        4    1    5    5  703    0  3.17550083340E+01  2.04552046686E+01  3.81212101001E+01  5.36658421328E+01  3.75461953831E-06  0.00000000000E+00  1.
</event>
<event>
11 116   1.0000000E+00   7.4550000E+01   7.8125000E-03   1.3429423E-01
       21   -1    0    0  502  501  0.00000000000E+00  0.00000000000E+00  5.23154067771E+02  5.23154067771E+02  0.00000000000E+00  0.00000000000E+00  1.
       -5   -1    0    0    0  502  0.00000000000E+00  0.00000000000E+00 -2.78372482039E+02  2.78372482039E+02  0.00000000000E+00  0.00000000000E+00  1.
       25    1    1    2    0    0  1.30442296158E+01  5.44263099060E+01  5.89935419850E+01  1.49122812246E+02  1.25000000000E+02  0.00000000000E+00  1.
       -6    2    1    2    0  501  2.21226202089E+02  6.98237253042E+01  2.31441376896E+02  3.71411167278E+02  1.74827798514E+02  0.00000000000E+00  1.
       24    2    1    2    0    0 -2.34270431704E+02 -1.24250035210E+02 -4.56533331480E+01  2.80992570286E+02  8.09437539765E+01  0.00000000000E+00  1.
       -5    1    4    4    0  501  1.97585507848E+02  3.58243784903E+01  1.51294899339E+02  2.51467946410E+02  4.75000000000E+00  0.00000000000E+00  1.
      -24    2    4    4    0    0  2.36406942408E+01  3.39993468139E+01  8.01464775565E+01  1.19943220868E+02  7.90447996989E+01  0.00000000000E+00  1.
        1    1    7    7  704    0  1.00336870395E+01  1.54994609840E+00  8.39406441159E+01  8.45524035324E+01  9.53674316406E-07  0.00000000000E+00  1.
       -2    1    7    7    0  704  1.36070072013E+01  3.24494007155E+01 -3.79416655947E+00  3.53908173352E+01  1.10630459745E-06  0.00000000000E+00  1.
      -15    1    5    5    0    0 -1.84745829801E+02 -1.17361441368E+02 -6.34965739781E+01  2.27902833405E+02  1.77679999999E+00  0.00000000000E+00  1.
       16    1    5    5    0    0 -4.95246019028E+01 -6.88859384252E+00  1.78432408301E+01  5.30897368809E+01  1.73571345551E-06  0.00000000000E+00  1.
</event>
<event>
11 116   1.0000000E+00   7.4550000E+01   7.8125000E-03   1.3429423E-01
       21   -1    0    0  502  501  0.00000000000E+00  0.00000000000E+00  1.91168606484E+03  1.91168606484E+03  0.00000000000E+00  0.00000000000E+00  1.
       -5   -1    0    0    0  502  0.00000000000E+00  0.00000000000E+00 -9.59417031081E+01  9.59417031081E+01  0.00000000000E+00  0.00000000000E+00  1.
       25    1    1    2    0    0 -3.52893497177E+01  1.93180544958E+02  1.00208646659E+02  2.53438027966E+02  1.25000000000E+02  0.00000000000E+00  1.
       -6    2    1    2    0  501 -3.61605636508E+01 -6.56590599035E+01  7.04767051176E+02  7.29765853868E+02  1.73904877841E+02  0.00000000000E+00  1.
       24    2    1    2    0    0  7.14499133685E+01 -1.27521485055E+02  1.01076866390E+03  1.02442388612E+03  8.01510277881E+01  0.00000000000E+00  1.
       -5    1    4    4    0  501  2.10140585434E+01  3.79537085117E+01  2.15658596282E+02  2.20030150881E+02  4.74999999999E+00  0.00000000000E+00  1.
      -24    2    4    4    0    0 -5.71746221942E+01 -1.03612768415E+02  4.89108454894E+02  5.09735702987E+02  8.12333862955E+01  0.00000000000E+00  1.
       15    1    7    7    0    0  1.26813262988E+01 -5.67167037936E+01  1.67554046410E+02  1.77355902108E+02  1.77680000000E+00  0.00000000000E+00  1.
      -16    1    7    7    0    0 -6.98559484930E+01 -4.68960646217E+01  3.21554408484E+02  3.32379800879E+02  7.62939453125E-06  0.00000000000E+00  1.
      -15    1    5    5    0    0 -6.27692513137E+00 -3.83059527614E+01  4.28243610551E+02  4.30002898597E+02  1.77680000001E+00  0.00000000000E+00  1.
       16    1    5    5    0    0  7.77268384999E+01 -8.92155322934E+01  5.82525053348E+02  5.94420987520E+02  7.62939453125E-06  0.00000000000E+00  1.
</event>
<event>
11 116   1.0000000E+00   7.4550000E+01   7.8125000E-03   1.3429423E-01
       21   -1    0    0  502  501  0.00000000000E+00  0.00000000000E+00  1.00226847555E+02  1.00226847555E+02  0.00000000000E+00  0.00000000000E+00  1.
       -5   -1    0    0    0  502  0.00000000000E+00  0.00000000000E+00 -1.45163156896E+03  1.45163156896E+03  0.00000000000E+00  0.00000000000E+00  1.
       25    1    1    2    0    0  1.20844929407E+02  1.47800390127E+02 -1.80736336081E+02  2.91099768920E+02  1.25000000000E+02  0.00000000000E+00  1.
       -6    2    1    2    0  501  1.02589218898E+02 -1.01854887737E+02 -5.59954254721E+02  6.03159746925E+02  1.71329935915E+02  0.00000000000E+00  1.
       24    2    1    2    0    0 -2.23434148305E+02 -4.59455023896E+01 -6.10714130604E+02  6.57598900671E+02  8.62018388724E+01  0.00000000000E+00  1.
       -5    1    4    4    0  501 -2.48029525054E+00 -2.04312245877E+01 -2.59359537393E-01  2.11238389043E+01  4.75000000000E+00  0.00000000000E+00  1.
      -24    2    4    4    0    0  1.05069514149E+02 -8.14236631493E+01 -5.59694895183E+02  5.82035908021E+02  8.85325183601E+01  0.00000000000E+00  1.
        3    1    7    7  704    0  9.58748852788E+01 -2.51286859729E+01 -2.93012436865E+02  3.09321406701E+02  5.39479660939E-06  0.00000000000E+00  1.
       -4    1    7    7    0  704  9.19462886975E+00 -5.62949771764E+01 -2.66682458318E+02  2.72714501319E+02  6.60724947956E-06  0.00000000000E+00  1.
      -15    1    5    5    0    0 -1.95635899439E+02 -6.91420852944E+01 -5.11632525069E+02  5.52109618495E+02  1.77680000003E+00  0.00000000000E+00  1.
       16    1    5    5    0    0 -2.77982488666E+01  2.31965829048E+01 -9.90816055353E+01  1.05489282176E+02  4.86280394897E-06  0.00000000000E+00  1.
</event>
<event>
11 116   1.0000000E+00   7.4550000E+01   7.8125000E-03   1.3429423E-01
       21   -1    0    0  502  501  0.00000000000E+00  0.00000000000E+00  9.59791672540E+01  9.59791672540E+01  0.00000000000E+00  0.00000000000E+00  1.
       -5   -1    0    0    0  502  0.00000000000E+00  0.00000000000E+00 -5.87467237801E+02  5.87467237801E+02  0.00000000000E+00  0.00000000000E+00  1.
       25    1    1    2    0    0 -7.59241509668E+00  1.19686843534E+02 -1.39165941627E+02  2.22204285717E+02  1.25000000000E+02  0.00000000000E+00  1.
       -6    2    1    2    0  501 -2.11713089465E+01 -4.92651850248E+01 -1.73779253228E+02  2.53777651274E+02  1.76998826707E+02  0.00000000000E+00  1.
       24    2    1    2    0    0  2.87637240432E+01 -7.04216585094E+01 -1.78542875692E+02  2.07464468064E+02  7.33306568931E+01  0.00000000000E+00  1.
       -5    1    4    4    0  501  9.94210063978E+00 -8.42074768720E+01 -1.13424400637E+02  1.41694748266E+02  4.75000000000E+00  0.00000000000E+00  1.
      -24    2    4    4    0    0 -3.11134095863E+01  3.49422918472E+01 -6.03548525905E+01  1.12082903008E+02  8.20418240891E+01  0.00000000000E+00  1.
       15    1    7    7    0    0 -3.46370707219E+01  9.60647338186E+00  9.89242287003E+00  3.73232909522E+01  1.77680000000E+00  0.00000000000E+00  1.
      -16    1    7    7    0    0  3.52366113552E+00  2.53358184654E+01 -7.02472754605E+01  7.47596120558E+01  9.53674316406E-07  0.00000000000E+00  1.
       -3    1    5    5    0  703 -9.80642983224E+00 -4.01691229756E+01 -3.01190545727E+01  5.11554684764E+01  1.01152436426E-06  0.00000000000E+00  1.
        4    1    5    5  703    0  3.85701538755E+01 -3.02525355338E+01 -1.48423821120E+02  1.56308999587E+02  0.00000000000E+00  0.00000000000E+00  1.
</event>
<event>
11 116   1.0000000E+00   7.4550000E+01   7.8125000E-03   1.3429423E-01
       -5   -1    0    0    0  502  0.00000000000E+00  0.00000000000E+00  6.43815153338E+01  6.43815153338E+01  0.00000000000E+00  0.00000000000E+00  1.
       21   -1    0    0  502  501  0.00000000000E+00  0.00000000000E+00 -1.58426771097E+03  1.58426771097E+03  0.00000000000E+00  0.00000000000E+00  1.
       25    1    1    2    0    0  1.27919977375E+02 -1.35648153975E+02 -3.68041510760E+02  4.31095692313E+02  1.25000000000E+02  0.00000000000E+00  1.
       -6    2    1    2    0  501  3.06723524644E+01  1.62871231695E+01 -4.12518914383E+02  4.48165999853E+02  1.71682396052E+02  0.00000000000E+00  1.
       24    2    1    2    0    0 -1.58592329840E+02  1.19361030805E+02 -7.39325770495E+02  7.69387534138E+02  7.71751255997E+01  0.00000000000E+00  1.
       -5    1    4    4    0  501  2.97702959487E+01 -6.18504926848E+00 -3.84831538690E+00  3.10144706007E+01  4.75000000000E+00  0.00000000000E+00  1.
      -24    2    4    4    0    0  9.02056515716E-01  2.24721724380E+01 -4.08670598996E+02  4.17151529253E+02  8.06097241908E+01  0.00000000000E+00  1.
        3    1    7    7  704    0  1.68342854533E+01 -1.21861676513E+01 -3.19367130203E+02  3.20042590451E+02  3.81469726562E-06  0.00000000000E+00  1.
       -4    1    7    7    0  704 -1.59322289376E+01  3.46583400893E+01 -8.93034687933E+01  9.71089388016E+01  0.00000000000E+00  0.00000000000E+00  1.
       -1    1    5    5    0  703 -3.18851378825E+01  5.00699392860E+01 -1.25911461643E+02  1.39202575447E+02  5.72204589844E-06  0.00000000000E+00  1.
        2    1    5    5  703    0 -1.26707191957E+02  6.92910915195E+01 -6.13414308851E+02  6.30184958691E+02  7.62939453125E-06  0.00000000000E+00  1.
</event>
<event>
11 116   1.0000000E+00   7.4550000E+01   7.8125000E-03   1.3429423E-01
       21   -1    0    0  502  501  0.00000000000E+00  0.00000000000E+00  2.61141178219E+02  2.61141178219E+02  0.00000000000E+00  0.00000000000E+00  1.
       -5   -1    0    0    0  502  0.00000000000E+00  0.00000000000E+00 -5.11242739654E+02  5.11242739654E+02  0.00000000000E+00  0.00000000000E+00  1.
       25    1    1    2    0    0 -1.24466595909E+02 -1.85545749930E+01 -1.79829342776E+01  1.78282336970E+02  1.25000000000E+02  0.00000000000E+00  1.
       -6    2    1    2    0  501 -9.84414905670E+01  1.22208349548E+02  1.79758568611E+01  2.34356631668E+02  1.73130851129E+02  0.00000000000E+00  1.
       24    2    1    2    0    0  2.22908086476E+02 -1.03653774555E+02 -2.50094484018E+02  3.59744949235E+02  8.02312754992E+01  0.00000000000E+00  1.
       -5    1    4    4    0  501 -5.04015693952E+01 -2.18018901070E+01 -2.31394007654E+01  5.97798877343E+01  4.75000000000E+00  0.00000000000E+00  1.
      -24    2    4    4    0    0 -4.80399211717E+01  1.44010239655E+02  4.11152576265E+01  1.74576743934E+02  7.57614147252E+01  0.00000000000E+00  1.
        1    1    7    7  704    0 -1.82054418251E+01  4.73076653059E+00  2.49168244579E+01  3.12196477411E+01  2.65491693632E-06  0.00000000000E+00  1.
       -2    1    7    7    0  704 -2.98344793467E+01  1.39279473124E+02  1.61984331686E+01  1.43357096193E+02  2.05095416714E-06  0.00000000000E+00  1.
       -3    1    5    5    0  703  2.29365457014E+02 -1.04149095872E+02 -2.41346481113E+02  3.48860532288E+02  0.00000000000E+00  0.00000000000E+00  1.
        4    1    5    5  703    0 -6.45737053789E+00  4.95321317461E-01 -8.74800290460E+00  1.08844169476E+01  2.21421427977E-06  0.00000000000E+00  1.
</event>
<event>
11 116   1.0000000E+00   7.4550000E+01   7.8125000E-03   1.3429423E-01
       21   -1    0    0  502  501  0.00000000000E+00  0.00000000000E+00  1.77115047837E+02  1.77115047837E+02  0.00000000000E+00  0.00000000000E+00  1.
       -5   -1    0    0    0  502  0.00000000000E+00  0.00000000000E+00 -1.06749099108E+03  1.06749099108E+03  0.00000000000E+00  0.00000000000E+00  1.
       25    1    1    2    0    0  1.56994888863E+02  2.99854138008E+01 -2.10774807852E+02  2.92570572333E+02  1.25000000000E+02  0.00000000000E+00  1.
       -6    2    1    2    0  501 -7.92901232098E+01  1.09692177199E+02  2.85200732763E+01  2.21832307733E+02  1.73426874495E+02  0.00000000000E+00  1.
       24    2    1    2    0    0 -7.77047656533E+01 -1.39677591000E+02 -7.08121208672E+02  7.30203158857E+02  7.88235180690E+01  0.00000000000E+00  1.
       -5    1    4    4    0  501  8.99809338157E+00 -3.16453291225E+01  9.35116771654E+00  3.45311363474E+01  4.75000000000E+00  0.00000000000E+00  1.
      -24    2    4    4    0    0 -8.82882165913E+01  1.41337506322E+02  1.91689055598E+01  1.87301171386E+02  8.33257582020E+01  0.00000000000E+00  1.
        3    1    7    7  704    0 -4.11811165557E+01  3.39689713366E+01  4.19087861061E+01  6.78684147990E+01  1.26159253648E-06  0.00000000000E+00  1.
       -4    1    7    7    0  704 -4.71071000356E+01  1.07368534985E+02 -2.27398805463E+01  1.19432756587E+02  1.46971082758E-06  0.00000000000E+00  1.
       -3    1    5    5    0  703 -7.47341445327E+01 -1.30182589256E+02 -7.03312551885E+02  7.19153144013E+02  1.52587890625E-05  0.00000000000E+00  1.
        4    1    5    5  703    0 -2.97062112056E+00 -9.49500174389E+00 -4.80865678677E+00  1.10500148439E+01  9.65190437611E-06  0.00000000000E+00  1.
</event>
<event>
11 116   1.0000000E+00   7.4550000E+01   7.8125000E-03   1.3429423E-01
       21   -1    0    0  502  501  0.00000000000E+00  0.00000000000E+00  5.59505173437E+02  5.59505173437E+02  0.00000000000E+00  0.00000000000E+00  1.
       -5   -1    0    0    0  502  0.00000000000E+00  0.00000000000E+00 -8.70418073418E+02  8.70418073418E+02  0.00000000000E+00  0.00000000000E+00  1.
       25    1    1    2    0    0  7.77881050433E+00 -1.26565166513E+01  7.51303312286E+01  1.46595579664E+02  1.25000000000E+02  0.00000000000E+00  1.
       -6    2    1    2    0  501 -1.65843453897E+02 -4.12345572942E+01  4.04216197250E+02  4.71515277844E+02  1.72428487221E+02  0.00000000000E+00  1.
       24    2    1    2    0    0  1.58064643393E+02  5.38910739454E+01 -7.90259428460E+02  8.11812389346E+02  8.14905631632E+01  0.00000000000E+00  1.
       -5    1    4    4    0  501 -7.12128981767E+01  1.15851222875E+01  3.94489818098E+01  8.23667201664E+01  4.75000000000E+00  0.00000000000E+00  1.
      -24    2    4    4    0    0 -9.46305557207E+01 -5.28196795816E+01  3.64767215440E+02  3.89148557678E+02  8.14654396381E+01  0.00000000000E+00  1.
       13    1    7    7    0    0 -4.59654525393E+01 -2.93404686057E+01  6.63723085615E+01  8.59009920371E+01  1.05659999995E-01  0.00000000000E+00  1.
      -14    1    7    7    0    0 -4.86651031814E+01 -2.34792109760E+01  2.98394906879E+02  3.03247565641E+02  3.81469726562E-06  0.00000000000E+00  1.
       -1    1    5    5    0  703  3.84087635131E+01  5.25216539997E+01 -2.37757523298E+02  2.46500298455E+02  5.39479660939E-06  0.00000000000E+00  1.
        2    1    5    5  703    0  1.19655879880E+02  1.36941994569E+00 -5.52501905162E+02  5.65312090891E+02  7.62939453125E-06  0.00000000000E+00  1.
</event>
<event>
11 116   1.0000000E+00   7.4550000E+01   7.8125000E-03   1.3429423E-01
       -5   -1    0    0    0  502  0.00000000000E+00  0.00000000000E+00  1.28442099633E+03  1.28442099633E+03  0.00000000000E+00  0.00000000000E+00  1.
       21   -1    0    0  502  501  0.00000000000E+00  0.00000000000E+00 -8.67260529480E+02  8.67260529480E+02  0.00000000000E+00  0.00000000000E+00  1.
       25    1    1    2    0    0  9.94327153132E+01  9.88237822757E+02  1.36451192214E+02  1.01031915109E+03  1.25000000000E+02  0.00000000000E+00  1.
       -6    2    1    2    0  501 -1.66738818026E+02 -2.78692423290E+02 -7.85197973966E+00  3.68127417418E+02  1.73161316792E+02  0.00000000000E+00  1.
       24    2    1    2    0    0  6.73061027132E+01 -7.09545399468E+02  2.88561254376E+02  7.73234957303E+02  8.14856815642E+01  0.00000000000E+00  1.
       -5    1    4    4    0  501 -7.35363230976E+01 -9.06623887996E+01  6.31166035310E+01  1.32791293762E+02  4.75000000000E+00  0.00000000000E+00  1.
      -24    2    4    4    0    0 -9.32024949289E+01 -1.88030034490E+02 -7.09685832707E+01  2.35336123656E+02  7.94012112933E+01  0.00000000000E+00  1.
       13    1    7    7    0    0  1.40490425208E+00 -7.09442233476E+00 -2.50311348760E+01  2.60552002763E+01  1.05659999965E-01  0.00000000000E+00  1.
      -14    1    7    7    0    0 -9.46073991810E+01 -1.80935612155E+02 -4.59374483947E+01  2.09280923380E+02  1.90734863281E-06  0.00000000000E+00  1.
       -3    1    5    5    0  703  7.13679873801E+01 -6.59014413666E+02  2.87499593625E+02  7.22529863312E+02  1.94512157959E-05  0.00000000000E+00  1.
        4    1    5    5  703    0 -4.06188466684E+00 -5.05309858012E+01  1.06166075085E+00  5.07050939910E+01  1.15784707339E-05  0.00000000000E+00  1.
</event>
<event>
11 116   1.0000000E+00   7.4550000E+01   7.8125000E-03   1.3429423E-01
       21   -1    0    0  502  501  0.00000000000E+00  0.00000000000E+00  3.44620685226E+02  3.44620685226E+02  0.00000000000E+00  0.00000000000E+00  1.
       -5   -1    0    0    0  502  0.00000000000E+00  0.00000000000E+00 -2.90581489405E+02  2.90581489405E+02  0.00000000000E+00  0.00000000000E+00  1.
       25    1    1    2    0    0 -1.15852718473E+02  4.47843992904E+01 -1.25800294510E+01  1.76665650137E+02  1.25000000000E+02  0.00000000000E+00  1.
       -6    2    1    2    0  501  2.36282376810E+02 -4.35169162737E+01 -1.83739091985E+01  2.90792923349E+02  1.62787714946E+02  0.00000000000E+00  1.
       24    2    1    2    0    0 -1.20429658337E+02 -1.26748301667E+00  8.49931344705E+01  1.67743601145E+02  8.00573150785E+01  0.00000000000E+00  1.
       -5    1    4    4    0  501  3.75747847947E+01 -4.33186509284E+01 -4.72988976236E+01  7.44856911563E+01  4.75000000000E+00  0.00000000000E+00  1.
      -24    2    4    4    0    0  1.98707592015E+02 -1.98265345350E-01  2.89249884251E+01  2.16307232192E+02  8.04202543497E+01  0.00000000000E+00  1.
        3    1    7    7  704    0  2.45248160612E+01 -2.81938354089E+01  1.11494120123E+01  3.89957477954E+01  3.35908002939E-06  0.00000000000E+00  1.
       -4    1    7    7    0  704  1.74182775954E+02  2.79955700636E+01  1.77755764128E+01  1.77311484397E+02  2.48916304324E-06  0.00000000000E+00  1.
      -11    1    5    5    0    0 -1.18488843181E+02  3.65646537031E+00  4.40579723006E+01  1.26467705842E+02  5.11004604624E-04  0.00000000000E+00  1.
       12    1    5    5    0    0 -1.94081515573E+00 -4.92394838698E+00  4.09351621699E+01  4.12758953030E+01  1.58148993986E-06  0.00000000000E+00  1.
</event>
<event>
11 116   1.0000000E+00   7.4550000E+01   7.8125000E-03   1.3429423E-01
       21   -1    0    0  502  501  0.00000000000E+00  0.00000000000E+00  4.00581448103E+02  4.00581448103E+02  0.00000000000E+00  0.00000000000E+00  1.
       -5   -1    0    0    0  502  0.00000000000E+00  0.00000000000E+00 -1.75989698252E+02  1.75989698252E+02  0.00000000000E+00  0.00000000000E+00  1.
       25    1    1    2    0    0  1.18819698808E+02  6.16968770050E-01  1.67806081065E+02  2.40629138547E+02  1.25000000000E+02  0.00000000000E+00  1.
       -6    2    1    2    0  501 -4.59992666580E+01 -2.80941094503E+01  1.10112703076E+02  2.12413105745E+02  1.73462700874E+02  0.00000000000E+00  1.
       24    2    1    2    0    0 -7.28204321504E+01  2.74771406802E+01 -5.33270342904E+01  1.23528902063E+02  7.97358668372E+01  0.00000000000E+00  1.
       -5    1    4    4    0  501 -8.35121252998E+01  5.90904227285E+00  4.21487080161E+01  9.38523731192E+01  4.75000000000E+00  0.00000000000E+00  1.
      -24    2    4    4    0    0  3.75128586418E+01 -3.40031517231E+01  6.79639950603E+01  1.18560732626E+02  8.29102756339E+01  0.00000000000E+00  1.
        3    1    7    7  704    0 -5.23198808926E+00 -2.83337498121E+01  6.96855096450E+01  7.54071968201E+01  1.34869915235E-06  0.00000000000E+00  1.
       -4    1    7    7    0  704  4.27448467310E+01 -5.66940191097E+00 -1.72151458473E+00  4.31535358059E+01  1.21039262361E-06  0.00000000000E+00  1.
       -1    1    5    5    0  703 -8.21179025879E+01  2.58182615691E+01 -6.54673945721E+01  1.08147641250E+02  1.65181236989E-06  0.00000000000E+00  1.
        2    1    5    5  703    0  9.29747043757E+00  1.65887911107E+00  1.21403602817E+01  1.53812608135E+01  3.37174788087E-07  0.00000000000E+00  1.
</event>
<event>
11 116   1.0000000E+00   7.4550000E+01   7.8125000E-03   1.3429423E-01
       21   -1    0    0  502  501  0.00000000000E+00  0.00000000000E+00  1.79655045660E+02  1.79655045660E+02  0.00000000000E+00  0.00000000000E+00  1.
       -5   -1    0    0    0  502  0.00000000000E+00  0.00000000000E+00 -2.85050850291E+03  2.85050850291E+03  0.00000000000E+00  0.00000000000E+00  1.
       25    1    1    2    0    0 -1.95188787019E+02 -4.99000840211E+01  5.63913453683E+01  2.43708154963E+02  1.25000000000E+02  0.00000000000E+00  1.
       -6    2    1    2    0  501  1.79862725255E+01 -3.53750214560E+01 -2.99294513184E+02  3.49195986515E+02  1.75458636818E+02  0.00000000000E+00  1.
       24    2    1    2    0    0  1.77202514493E+02  8.52751054771E+01 -2.42795028944E+03  2.43725940710E+03  8.13525336889E+01  0.00000000000E+00  1.
       -5    1    4    4    0  501  1.63036915566E+00 -5.98453829502E+01 -3.10956157291E+01  6.76286018014E+01  4.75000000000E+00  0.00000000000E+00  1.
      -24    2    4    4    0    0  1.63559033699E+01  2.44703614943E+01 -2.68198897455E+02  2.81567384714E+02  8.05185032886E+01  0.00000000000E+00  1.
        1    1    7    7  704    0 -6.07763477712E+00 -1.13442744667E+01 -2.05814238052E+02  2.06216223398E+02  2.69739830470E-06  0.00000000000E+00  1.
       -2    1    7    7    0  704  2.24335381470E+01  3.58146359610E+01 -6.23846594032E+01  7.53511613159E+01  2.33601545599E-06  0.00000000000E+00  1.
       -1    1    5    5    0  703  9.05712996510E+01  8.75605412032E+01 -1.48713490454E+03  1.49246113282E+03  0.00000000000E+00  0.00000000000E+00  1.
        2    1    5    5  703    0  8.66312148424E+01 -2.28543572608E+00 -9.40815384903E+02  9.44798274274E+02  3.41196895981E-05  0.00000000000E+00  1.
</event>
<event>
11 116   1.0000000E+00   7.4550000E+01   7.8125000E-03   1.3429423E-01
       21   -1    0    0  502  501  0.00000000000E+00  0.00000000000E+00  5.47331438661E+02  5.47331438661E+02  0.00000000000E+00  0.00000000000E+00  1.
       -5   -1    0    0    0  502  0.00000000000E+00  0.00000000000E+00 -1.45557297962E+02  1.45557297962E+02  0.00000000000E+00  0.00000000000E+00  1.
       25    1    1    2    0    0  8.66102872378E+01 -7.60851302502E+00  5.53592066108E+01  1.62015039680E+02  1.25000000000E+02  0.00000000000E+00  1.
       -6    2    1    2    0  501  7.78374970191E+01 -5.06704221486E+01  2.51478723716E+02  3.16603659968E+02  1.68434442439E+02  0.00000000000E+00  1.
       24    2    1    2    0    0 -1.64447784257E+02  5.82789351736E+01  9.49362103719E+01  2.14270036976E+02  8.03695008928E+01  0.00000000000E+00  1.
       -5    1    4    4    0  501  1.52157726110E+01  4.12817332649E+01  1.08778338056E+02  1.17435048294E+02  4.75000000000E+00  0.00000000000E+00  1.
      -24    2    4    4    0    0  6.26217244081E+01 -9.19521554135E+01  1.42700385661E+02  1.99168611674E+02  8.32349479212E+01  0.00000000000E+00  1.
        1    1    7    7  704    0 -2.04519540608E+01 -1.61893165618E+01  2.10513208694E+01  3.35191662484E+01  7.53945746462E-07  0.00000000000E+00  1.
       -2    1    7    7    0  704  8.30736784689E+01 -7.57628388518E+01  1.21649064791E+02  1.65649445426E+02  2.69739830470E-06  0.00000000000E+00  1.
      -13    1    5    5    0    0 -1.60596699286E+01  1.67914865421E+01  4.77909097441E+01  5.31399024907E+01  1.05660000028E-01  0.00000000000E+00  1.
       14    1    5    5    0    0 -1.48388114328E+02  4.14874486315E+01  4.71453006278E+01  1.61130134485E+02  6.74349576174E-07  0.00000000000E+00  1.
</event>
<event>
11 116   1.0000000E+00   7.4550000E+01   7.8125000E-03   1.3429423E-01
       21   -1    0    0  502  501  0.00000000000E+00  0.00000000000E+00  7.33372306224E+02  7.33372306224E+02  0.00000000000E+00  0.00000000000E+00  1.
       -5   -1    0    0    0  502  0.00000000000E+00  0.00000000000E+00 -3.49271418203E+02  3.49271418203E+02  0.00000000000E+00  0.00000000000E+00  1.
       25    1    1    2    0    0 -1.18482304291E+02  2.98600274955E+02 -4.80606719535E+01  3.48044550054E+02  1.25000000000E+02  0.00000000000E+00  1.
       -6    2    1    2    0  501 -1.03399405023E+02 -5.33026818727E+00  7.35891277137E+01  2.14681701589E+02  1.73069421220E+02  0.00000000000E+00  1.
       24    2    1    2    0    0  2.21881709314E+02 -2.93270006768E+02  3.58572432261E+02  5.19917472785E+02  8.06300163182E+01  0.00000000000E+00  1.
       -5    1    4    4    0  501 -8.11871157309E+01  9.83784377654E+00  9.73449181230E+01  1.27227066756E+02  4.75000000000E+00  0.00000000000E+00  1.
      -24    2    4    4    0    0 -2.22122892922E+01 -1.51681119638E+01 -2.37557904093E+01  8.74546348334E+01  7.97528567496E+01  0.00000000000E+00  1.
        1    1    7    7  704    0 -3.78317898916E+01 -3.97649975256E+01 -1.30803837294E+01  5.64233621218E+01  1.23885927742E-06  0.00000000000E+00  1.
       -2    1    7    7    0  704  1.56195005995E+01  2.45968855618E+01 -1.06754066799E+01  3.10312727116E+01  1.09905534474E-06  0.00000000000E+00  1.
       -3    1    5    5    0  703  6.95827589212E+01 -8.35633913066E+01  5.87286115557E+01  1.23586611415E+02  1.34869915235E-06  0.00000000000E+00  1.
        4    1    5    5  703    0  1.52298950393E+02 -2.09706615461E+02  2.99843820705E+02  3.96330861370E+02  6.60724947956E-06  0.00000000000E+00  1.
</event>
<event>
11 116   1.0000000E+00   7.4550000E+01   7.8125000E-03   1.3429423E-01
       21   -1    0    0  502  501  0.00000000000E+00  0.00000000000E+00  2.76909865104E+02  2.76909865104E+02  0.00000000000E+00  0.00000000000E+00  1.
       -5   -1    0    0    0  502  0.00000000000E+00  0.00000000000E+00 -6.94961283475E+02  6.94961283475E+02  0.00000000000E+00  0.00000000000E+00  1.
       25    1    1    2    0    0  1.55262999823E+02  1.40562710179E+02  4.96735835145E+01  2.48911509388E+02  1.25000000000E+02  0.00000000000E+00  1.
       -6    2    1    2    0  501 -9.64755331770E+01 -6.46551878212E+01  2.94631641973E+01  2.10083108370E+02  1.72565965833E+02  0.00000000000E+00  1.
       24    2    1    2    0    0 -5.87874666459E+01 -7.59075223573E+01 -4.97188166083E+02  5.12876530820E+02  8.14146497171E+01  0.00000000000E+00  1.
       -5    1    4    4    0  501 -1.06112134723E+02 -5.95398538062E+01 -5.87023644580E+00  1.21908988605E+02  4.75000000000E+00  0.00000000000E+00  1.
      -24    2    4    4    0    0  9.63660154557E+00 -5.11533401496E+00  3.53334006431E+01  8.81741197657E+01  8.00449590169E+01  0.00000000000E+00  1.
        1    1    7    7  704    0  1.48813843572E+01 -2.52496041447E+01 -1.55664423414E+01  3.31860247246E+01  9.07870901330E-07  0.00000000000E+00  1.
       -2    1    7    7    0  704 -5.24478281159E+00  2.01342701298E+01  5.08998429845E+01  5.49880950411E+01  9.53674316406E-07  0.00000000000E+00  1.
       -3    1    5    5    0  703 -6.07754434839E+01 -8.67912615791E+01 -3.60681192206E+02  3.75921933423E+02  7.62939453125E-06  0.00000000000E+00  1.
        4    1    5    5  703    0  1.98797683803E+00  1.08837392218E+01 -1.36506973877E+02  1.36954597398E+02  3.81469726562E-06  0.00000000000E+00  1.
</event>
<event>
11 116   1.0000000E+00   7.4550000E+01   7.8125000E-03   1.3429423E-01
       -5   -1    0    0    0  502  0.00000000000E+00  0.00000000000E+00  4.87958756810E+02  4.87958756810E+02  0.00000000000E+00  0.00000000000E+00  1.
       21   -1    0    0  502  501  0.00000000000E+00  0.00000000000E+00 -3.31459927122E+02  3.31459927122E+02  0.00000000000E+00  0.00000000000E+00  1.
       25    1    1    2    0    0 -1.70998328453E+01 -1.78149111058E+02  3.57962496167E+02  4.19275158716E+02  1.25000000000E+02  0.00000000000E+00  1.
       -6    2    1    2    0  501  3.18491466330E+01  1.39113064390E+02 -2.12195847492E+02  3.10274723214E+02  1.75717140164E+02  0.00000000000E+00  1.
       24    2    1    2    0    0 -1.47493137877E+01  3.90360466674E+01  1.07321810124E+01  8.98688020015E+01  7.88661313067E+01  0.00000000000E+00  1.
       -5    1    4    4    0  501  2.24609824134E+01 -1.92039772862E+01  4.02031842117E+00  3.01995684537E+01  4.75000000000E+00  0.00000000000E+00  1.
      -24    2    4    4    0    0  9.38816421966E+00  1.58317041677E+02 -2.16216165913E+02  2.80075154761E+02  8.08717416615E+01  0.00000000000E+00  1.
        3    1    7    7  704    0  4.35718950757E+01  7.52795091164E+01 -8.98717392460E+01  1.25069756730E+02  1.34869915235E-06  0.00000000000E+00  1.
       -4    1    7    7    0  704 -3.41837308560E+01  8.30375325602E+01 -1.26344426667E+02  1.55005398031E+02  2.33601545599E-06  0.00000000000E+00  1.
       -1    1    5    5    0  703  7.13314635453E+00  5.64173847924E+01 -6.18457277633E+00  5.72018533280E+01  1.61263337832E-06  0.00000000000E+00  1.
        2    1    5    5  703    0 -2.18824601422E+01 -1.73813381250E+01  1.69167537887E+01  3.26669486736E+01  1.34869915235E-06  0.00000000000E+00  1.
</event>
<event>
11 116   1.0000000E+00   7.4550000E+01   7.8125000E-03   1.3429423E-01
       -5   -1    0    0    0  502  0.00000000000E+00  0.00000000000E+00  1.76753699702E+02  1.76753699702E+02  0.00000000000E+00  0.00000000000E+00  1.
       21   -1    0    0  502  501  0.00000000000E+00  0.00000000000E+00 -2.65749801430E+02  2.65749801430E+02  0.00000000000E+00  0.00000000000E+00  1.
       25    1    1    2    0    0 -2.35763791853E+01  2.23184993855E+01 -4.43871341009E+01  1.36561995973E+02  1.25000000000E+02  0.00000000000E+00  1.
       -6    2    1    2    0  501 -9.46042993494E-01  5.72501784875E+01 -3.22519216995E+01  1.89321035042E+02  1.77549401356E+02  0.00000000000E+00  1.
       24    2    1    2    0    0  2.45224221788E+01 -7.95686778730E+01 -1.23570459272E+01  1.16620470118E+02  8.07162547351E+01  0.00000000000E+00  1.
       -5    1    4    4    0  501  4.87271183181E-01 -1.34402871013E+01 -7.27296202890E+01  7.41150384062E+01  4.75000000000E+00  0.00000000000E+00  1.
      -24    2    4    4    0    0 -1.43331417667E+00  7.06904655888E+01  4.04776985895E+01  1.15205996635E+02  8.14541666398E+01  0.00000000000E+00  1.
       15    1    7    7    0    0  2.62587787799E+01  1.67704127577E+01  4.46184352025E+01  5.44493524776E+01  1.77680000000E+00  0.00000000000E+00  1.
      -16    1    7    7    0    0 -2.76920929565E+01  5.39200528311E+01 -4.14073661302E+00  6.07566441578E+01  9.29144458063E-07  0.00000000000E+00  1.
       -3    1    5    5    0  703  4.79880696862E+01 -3.56960757346E+01 -2.57184425318E+01  6.51037859216E+01  1.16800772800E-06  0.00000000000E+00  1.
        4    1    5    5  703    0 -2.34656475075E+01 -4.38726021384E+01  1.33613966046E+01  5.15166841961E+01  1.39020726558E-06  0.00000000000E+00  1.
</event>
<event>
11 116   1.0000000E+00   7.4550000E+01   7.8125000E-03   1.3429423E-01
       -5   -1    0    0    0  502  0.00000000000E+00  0.00000000000E+00  3.30207001005E+02  3.30207001005E+02  0.00000000000E+00  0.00000000000E+00  1.
       21   -1    0    0  502  501  0.00000000000E+00  0.00000000000E+00 -1.33317239397E+02  1.33317239397E+02  0.00000000000E+00  0.00000000000E+00  1.
       25    1    1    2    0    0  5.55226841932E+01 -2.79862711919E+01  5.44891221299E+01  1.49866821764E+02  1.25000000000E+02  0.00000000000E+00  1.
       -6    2    1    2    0  501 -7.91777646199E+01  3.57355240033E+01  8.29341008409E+01  2.10774651128E+02  1.73210110530E+02  0.00000000000E+00  1.
       24    2    1    2    0    0  2.36550804267E+01 -7.74925281143E+00  5.94665386365E+01  1.02882767510E+02  8.01809259362E+01  0.00000000000E+00  1.
       -5    1    4    4    0  501  4.22243971422E+01  2.10901125840E+01  2.33728047728E+01  5.28823511748E+01  4.75000000000E+00  0.00000000000E+00  1.
      -24    2    4    4    0    0 -1.21402161762E+02  1.46454114194E+01  5.95612960681E+01  1.57892299953E+02  8.01838976286E+01  0.00000000000E+00  1.
        3    1    7    7  704    0 -8.42240832537E+01 -1.91136023680E+01  6.39764050550E+01  1.07480260509E+02  0.00000000000E+00  0.00000000000E+00  1.
       -4    1    7    7    0  704 -3.71780785085E+01  3.37590137874E+01 -4.41510898695E+00  5.04120394434E+01  7.99680224955E-07  0.00000000000E+00  1.
      -11    1    5    5    0    0 -1.32123460439E+01 -2.73320242374E+01  1.61449503487E-01  3.03583876894E+01  5.10999369925E-04  0.00000000000E+00  1.
       12    1    5    5    0    0  3.68674264706E+01  1.95827714259E+01  5.93050891330E+01  7.25243798206E+01  0.00000000000E+00  0.00000000000E+00  1.
</event>
<event>
11 116   1.0000000E+00   7.4550000E+01   7.8125000E-03   1.3429423E-01
       21   -1    0    0  502  501  0.00000000000E+00  0.00000000000E+00  2.50762818431E+02  2.50762818431E+02  0.00000000000E+00  0.00000000000E+00  1.
       -5   -1    0    0    0  502  0.00000000000E+00  0.00000000000E+00 -5.60941129923E+02  5.60941129923E+02  0.00000000000E+00  0.00000000000E+00  1.
       25    1    1    2    0    0 -6.04911121709E+01  1.60441007311E+01 -1.16299690806E+02  1.81843905318E+02  1.25000000000E+02  0.00000000000E+00  1.
       -6    2    1    2    0  501  3.60620790485E+01 -4.01349361523E+01  1.74169577676E+02  2.51398933307E+02  1.73075403321E+02  0.00000000000E+00  1.
       24    2    1    2    0    0  2.44290331225E+01  2.40908354212E+01 -3.68048198363E+02  3.78461109728E+02  8.12169271014E+01  0.00000000000E+00  1.
       -5    1    4    4    0  501  1.53616435606E+01 -7.54085323791E+01  3.37667796344E+01  8.41735395200E+01  4.75000000000E+00  0.00000000000E+00  1.
      -24    2    4    4    0    0  2.07004354879E+01  3.52735962268E+01  1.40402798042E+02  1.67225393787E+02  8.11088898281E+01  0.00000000000E+00  1.
        1    1    7    7  704    0  3.17375288614E+00 -1.88037590900E+01  4.04703289163E+00  1.94944232672E+01  2.08871548986E-06  0.00000000000E+00  1.
       -2    1    7    7    0  704  1.75266826018E+01  5.40773553167E+01  1.36355765150E+02  1.47730970520E+02  2.69739830470E-06  0.00000000000E+00  1.
      -15    1    5    5    0    0 -6.32014813470E-01  2.19154583880E+00 -3.19995672203E+02  3.20008733573E+02  1.77680000000E+00  0.00000000000E+00  1.
       16    1    5    5    0    0  2.50610479359E+01  2.18992895824E+01 -4.80525261600E+01  5.84523761555E+01  3.50402318399E-06  0.00000000000E+00  1.
</event>
<event>
11 116   1.0000000E+00   7.4550000E+01   7.8125000E-03   1.3429423E-01
       21   -1    0    0  502  501  0.00000000000E+00  0.00000000000E+00  6.10851923387E+02  6.10851923387E+02  0.00000000000E+00  0.00000000000E+00  1.
       -5   -1    0    0    0  502  0.00000000000E+00  0.00000000000E+00 -1.50250314752E+02  1.50250314752E+02  0.00000000000E+00  0.00000000000E+00  1.
       25    1    1    2    0    0 -1.99893431944E+02 -3.23458212428E+01  2.24196971651E+02  3.26944824678E+02  1.25000000000E+02  0.00000000000E+00  1.
       -6    2    1    2    0  501  1.24384834638E+02  9.52541844571E+01  1.82056258047E+02  2.96092851774E+02  1.73151809211E+02  0.00000000000E+00  1.
       24    2    1    2    0    0  7.55085973055E+01 -6.29083632143E+01  5.43483789380E+01  1.38064561687E+02  8.03060799149E+01  0.00000000000E+00  1.
       -5    1    4    4    0  501  2.90718060025E+00  3.36243460192E+01  1.22952752270E+02  1.27589145836E+02  4.75000000000E+00  0.00000000000E+00  1.
      -24    2    4    4    0    0  1.21477654038E+02  6.16298384379E+01  5.91035057768E+01  1.68503705939E+02  7.96568710373E+01  0.00000000000E+00  1.
        1    1    7    7  704    0  2.43169214733E+01 -6.34074591068E+00  4.16588772685E+01  4.86516164574E+01  1.34869915235E-06  0.00000000000E+00  1.
       -2    1    7    7    0  704  9.71607325648E+01  6.79705843486E+01  1.74446285082E+01  1.19852089481E+02  7.53945746462E-07  0.00000000000E+00  1.
       -3    1    5    5    0  703  5.92074704870E+01  6.46577020468E-01  1.33528097580E+01  6.06979419070E+01  4.12953092472E-07  0.00000000000E+00  1.
        4    1    5    5  703    0  1.63011268185E+01 -6.35549402348E+01  4.09955691800E+01  7.73666197801E+01  6.74349576174E-07  0.00000000000E+00  1.
</event>
<event>
11 116   1.0000000E+00   7.4550000E+01   7.8125000E-03   1.3429423E-01
       -5   -1    0    0    0  502  0.00000000000E+00  0.00000000000E+00  2.05107285592E+02  2.05107285592E+02  0.00000000000E+00  0.00000000000E+00  1.
       21   -1    0    0  502  501  0.00000000000E+00  0.00000000000E+00 -4.00110183414E+02  4.00110183414E+02  0.00000000000E+00  0.00000000000E+00  1.
       25    1    1    2    0    0  2.37076091142E+01  1.29693381512E+02 -6.23769013779E+01  1.92089306739E+02  1.25000000000E+02  0.00000000000E+00  1.
       -6    2    1    2    0  501  5.03447660922E+01 -3.73246354731E+01 -1.87184321054E+02  2.61396933915E+02  1.71355370869E+02  0.00000000000E+00  1.
       24    2    1    2    0    0 -7.40523752064E+01 -9.23687460384E+01  5.45583246103E+01  1.51731228352E+02  7.76531734992E+01  0.00000000000E+00  1.
       -5    1    4    4    0  501 -1.16407527434E+01 -2.87637692579E+01 -1.48554683116E+02  1.51835166948E+02  4.75000000000E+00  0.00000000000E+00  1.
      -24    2    4    4    0    0  6.19855188356E+01 -8.56086621528E+00 -3.86296379381E+01  1.09561766968E+02  8.12160013678E+01  0.00000000000E+00  1.
        3    1    7    7  704    0  9.17734983387E+00 -2.22708090192E+01 -4.84674638717E+01  5.41230795364E+01  1.16800772800E-06  0.00000000000E+00  1.
       -4    1    7    7    0  704  5.28081690018E+01  1.37099428039E+01  9.83782593367E+00  5.54386874313E+01  1.35919502389E-06  0.00000000000E+00  1.
      -11    1    5    5    0    0 -3.85998305757E+01 -9.24782573611E+01  5.85386121148E+01  1.16055780182E+02  5.10999932583E-04  0.00000000000E+00  1.
       12    1    5    5    0    0 -3.54525446307E+01  1.09511322701E-01 -3.98028750458E+00  3.56754481702E+01  1.19581238316E-06  0.00000000000E+00  1.
</event>
<event>
11 116   1.0000000E+00   7.4550000E+01   7.8125000E-03   1.3429423E-01
       -5   -1    0    0    0  502  0.00000000000E+00  0.00000000000E+00  1.63264216778E+02  1.63264216778E+02  0.00000000000E+00  0.00000000000E+00  1.
       21   -1    0    0  502  501  0.00000000000E+00  0.00000000000E+00 -1.33811616050E+03  1.33811616050E+03  0.00000000000E+00  0.00000000000E+00  1.
       25    1    1    2    0    0 -4.51714915964E+01  5.95558387084E+01 -3.61497563476E+02  3.89734332561E+02  1.25000000000E+02  0.00000000000E+00  1.
       -6    2    1    2    0  501  1.82795248316E+02  2.65238077329E+02 -5.63823489925E+02  6.72263590918E+02  1.74000193708E+02  0.00000000000E+00  1.
       24    2    1    2    0    0 -1.37623756719E+02 -3.24793916038E+02 -2.49530890324E+02  4.39382453804E+02  7.97489133209E+01  0.00000000000E+00  1.
       -5    1    4    4    0  501  1.62954328857E+02  1.38378769060E+02 -3.09630632543E+02  3.76293088070E+02  4.75000000000E+00  0.00000000000E+00  1.
      -24    2    4    4    0    0  1.98409194585E+01  1.26859308270E+02 -2.54192857381E+02  2.95970502848E+02  8.06075904164E+01  0.00000000000E+00  1.
        1    1    7    7  704    0  2.45080827315E+01  6.10762202831E+01 -5.37918597762E+01  8.49971469017E+01  9.53674316406E-07  0.00000000000E+00  1.
       -2    1    7    7    0  704 -4.66716327300E+00  6.57830879865E+01 -2.00400997605E+02  2.10973355946E+02  2.69739830470E-06  0.00000000000E+00  1.
      -11    1    5    5    0    0 -7.35603498271E+01 -1.32722943512E+02 -6.37512128732E+01  1.64592593832E+02  5.10994593055E-04  0.00000000000E+00  1.
       12    1    5    5    0    0 -6.40634068922E+01 -1.92070972526E+02 -1.85779677451E+02  2.74789859972E+02  3.81469726562E-06  0.00000000000E+00  1.
</event>
<event>
11 116   1.0000000E+00   7.4550000E+01   7.8125000E-03   1.3429423E-01
       21   -1    0    0  502  501  0.00000000000E+00  0.00000000000E+00  2.67966177131E+02  2.67966177131E+02  0.00000000000E+00  0.00000000000E+00  1.
       -5   -1    0    0    0  502  0.00000000000E+00  0.00000000000E+00 -4.74709494145E+02  4.74709494145E+02  0.00000000000E+00  0.00000000000E+00  1.
       25    1    1    2    0    0 -1.02832804120E+02 -1.16601161552E+02 -2.27029941384E+02  3.02221790682E+02  1.25000000000E+02  0.00000000000E+00  1.
       -6    2    1    2    0  501 -3.03344732342E+01  5.22521041814E+01  1.41733037808E+02  2.31962731745E+02  1.73401246405E+02  0.00000000000E+00  1.
       24    2    1    2    0    0  1.33167277354E+02  6.43490573704E+01 -1.21446413438E+02  2.08491148848E+02  8.27345325029E+01  0.00000000000E+00  1.
       -5    1    4    4    0  501  1.11380299726E+01 -3.53267468430E+01  8.65189393690E+01  9.42344105077E+01  4.75000000000E+00  0.00000000000E+00  1.
      -24    2    4    4    0    0 -4.14725032069E+01  8.75788510244E+01  5.52140984391E+01  1.37728321238E+02  8.08113243025E+01  0.00000000000E+00  1.
        3    1    7    7  704    0  2.24689841566E+01  1.37345864288E+01  2.27325199171E+01  3.47888139376E+01  0.00000000000E+00  0.00000000000E+00  1.
       -4    1    7    7    0  704 -6.39414873635E+01  7.38442645956E+01  3.24815785220E+01  1.02939507300E+02  1.26159253648E-06  0.00000000000E+00  1.
      -11    1    5    5    0    0  1.20758004765E+02  8.00947149871E+01 -1.20430603309E+02  1.88417592855E+02  5.10995038018E-04  0.00000000000E+00  1.
       12    1    5    5    0    0  1.24092725891E+01 -1.57456576167E+01 -1.01581012942E+00  2.00735559927E+01  3.00955503015E-06  0.00000000000E+00  1.
</event>
<event>
11 116   1.0000000E+00   7.4550000E+01   7.8125000E-03   1.3429423E-01
       21   -1    0    0  502  501  0.00000000000E+00  0.00000000000E+00  4.05509534329E+02  4.05509534329E+02  0.00000000000E+00  0.00000000000E+00  1.
       -5   -1    0    0    0  502  0.00000000000E+00  0.00000000000E+00 -6.91985287786E+02  6.91985287786E+02  0.00000000000E+00  0.00000000000E+00  1.
       25    1    1    2    0    0  1.13304320078E+02  1.99236863318E+02  2.89890592480E+02  3.90121458345E+02  1.25000000000E+02  0.00000000000E+00  1.
       -6    2    1    2    0  501 -1.06737546254E+01 -1.69681238806E+02 -2.45635324975E+02  3.48212695552E+02  1.78912594938E+02  0.00000000000E+00  1.
       24    2    1    2    0    0 -1.02630565453E+02 -2.95556245122E+01 -3.30731020962E+02  3.59160668217E+02  9.05914425429E+01  0.00000000000E+00  1.
       -5    1    4    4    0  501 -2.28564701160E+01 -1.00238211173E+02 -2.13439078070E+02  2.36957632823E+02  4.75000000000E+00  0.00000000000E+00  1.
      -24    2    4    4    0    0  1.21827154906E+01 -6.94430276332E+01 -3.21962469042E+01  1.11255062729E+02  7.98143973512E+01  0.00000000000E+00  1.
        3    1    7    7  704    0 -1.12418194368E+01 -7.20450899839E+01 -4.37205871754E+01  8.50197814512E+01  6.74349576174E-07  0.00000000000E+00  1.
       -4    1    7    7    0  704  2.34245349274E+01  2.60206235074E+00  1.15243402713E+01  2.62352812779E+01  6.95103632789E-07  0.00000000000E+00  1.
       -3    1    5    5    0  703 -3.58681130382E+01 -2.47655132822E+01 -2.52360729367E+02  2.56097227450E+02  0.00000000000E+00  0.00000000000E+00  1.
        4    1    5    5  703    0 -6.67624524145E+01 -4.79011123003E+00 -7.83702915954E+01  1.03063440767E+02  1.65181236989E-06  0.00000000000E+00  1.
</event>
<event>
11 116   1.0000000E+00   7.4550000E+01   7.8125000E-03   1.3429423E-01
       21   -1    0    0  502  501  0.00000000000E+00  0.00000000000E+00  2.76333582025E+02  2.76333582025E+02  0.00000000000E+00  0.00000000000E+00  1.
       -5   -1    0    0    0  502  0.00000000000E+00  0.00000000000E+00 -3.93787313553E+02  3.93787313553E+02  0.00000000000E+00  0.00000000000E+00  1.
       25    1    1    2    0    0 -1.28492727310E+02  7.37850836049E+01 -2.12855367478E+02  2.87901071548E+02  1.25000000000E+02  0.00000000000E+00  1.
       -6    2    1    2    0  501  8.35533984177E+01  5.77958641386E+01  9.46661266990E+01  2.21411061203E+02  1.72451877868E+02  0.00000000000E+00  1.
       24    2    1    2    0    0  4.49393288922E+01 -1.31580947744E+02  7.35509250178E-01  1.60808762827E+02  8.07825979886E+01  0.00000000000E+00  1.
       -5    1    4    4    0  501  8.48994346415E+01 -3.27810692978E+00  3.11936446992E+00  8.51525273975E+01  4.75000000000E+00  0.00000000000E+00  1.
      -24    2    4    4    0    0 -1.34603622382E+00  6.10739710684E+01  9.15467622291E+01  1.36258533806E+02  8.03351517374E+01  0.00000000000E+00  1.
        3    1    7    7  704    0  2.80429949039E+01  4.65008328210E+01  2.05699001753E+01  5.80677002253E+01  1.41050333574E-06  0.00000000000E+00  1.
       -2    1    7    7    0  704 -2.93890311277E+01  1.45731382474E+01  7.09768620538E+01  7.81908335804E+01  1.34869915235E-06  0.00000000000E+00  1.
       -3    1    5    5    0  703 -1.09203648713E+01 -9.03908181815E+01  5.70728621690E+00  9.12267915494E+01  6.19429638708E-07  0.00000000000E+00  1.
        4    1    5    5  703    0  5.58596937635E+01 -4.11901295621E+01 -4.97177696673E+00  6.95819712778E+01  2.06476546236E-07  0.00000000000E+00  1.
</event>
<event>
11 116   1.0000000E+00   7.4550000E+01   7.8125000E-03   1.3429423E-01
       21   -1    0    0  502  501  0.00000000000E+00  0.00000000000E+00  9.34332928325E+02  9.34332928325E+02  0.00000000000E+00  0.00000000000E+00  1.
       -5   -1    0    0    0  502  0.00000000000E+00  0.00000000000E+00 -1.44170106040E+02  1.44170106040E+02  0.00000000000E+00  0.00000000000E+00  1.
       25    1    1    2    0    0  1.48930239508E+02 -1.27601144802E+02  3.84773818649E+02  4.49597775698E+02  1.25000000000E+02  0.00000000000E+00  1.
       -6    2    1    2    0  501 -2.66511103592E+02  1.18788603494E+02  3.03296091523E+02  4.55205755355E+02  1.73449877248E+02  0.00000000000E+00  1.
       24    2    1    2    0    0  1.17580864084E+02  8.81254130864E+00  1.02092912113E+02  1.73699503311E+02  7.64567476680E+01  0.00000000000E+00  1.
       -5    1    4    4    0  501 -1.67121686631E+02  2.07563500658E+01  1.13510014761E+02  2.03144210259E+02  4.75000000000E+00  0.00000000000E+00  1.
      -24    2    4    4    0    0 -9.93894169607E+01  9.80322534279E+01  1.89786076762E+02  2.52061545097E+02  8.95973697596E+01  0.00000000000E+00  1.
        3    1    7    7  704    0 -4.76557073912E+01  7.22259327481E+00  1.11525371104E+02  1.21495434896E+02  1.90734863281E-06  0.00000000000E+00  1.
       -4    1    7    7    0  704 -5.17337095695E+01  9.08096601531E+01  7.82607056578E+01  1.30566110201E+02  2.86102294922E-06  0.00000000000E+00  1.
       -3    1    5    5    0  703 -2.23511088659E+00 -1.65566300191E+01  5.08809636124E+00  1.74644336538E+01  1.61153147633E-06  0.00000000000E+00  1.
        4    1    5    5  703    0  1.19815974970E+02  2.53691713278E+01  9.70048157514E+01  1.56235069658E+02  0.00000000000E+00  0.00000000000E+00  1.
</event>
<event>
11 116   1.0000000E+00   7.4550000E+01   7.8125000E-03   1.3429423E-01
       21   -1    0    0  502  501  0.00000000000E+00  0.00000000000E+00  9.12074017782E+02  9.12074017782E+02  0.00000000000E+00  0.00000000000E+00  1.
       -5   -1    0    0    0  502  0.00000000000E+00  0.00000000000E+00 -3.74212430266E+02  3.74212430266E+02  0.00000000000E+00  0.00000000000E+00  1.
       25    1    1    2    0    0 -9.34020245567E+00  2.42729835990E+02 -8.52970495355E+00  2.73318072085E+02  1.25000000000E+02  0.00000000000E+00  1.
       -6    2    1    2    0  501 -1.10453814930E+02 -3.11292300866E+01  6.88045406230E+02  7.19015140860E+02  1.74376654266E+02  0.00000000000E+00  1.
       24    2    1    2    0    0  1.19794017385E+02 -2.11600605903E+02 -1.41654113760E+02  2.93953235103E+02  8.49540667792E+01  0.00000000000E+00  1.
       -5    1    4    4    0  501 -1.19595428460E+02  4.37595087384E+00  4.40460373864E+02  4.56453851883E+02  4.75000000001E+00  0.00000000000E+00  1.
      -24    2    4    4    0    0  9.14161353070E+00 -3.55051809604E+01  2.47585032366E+02  2.62561288977E+02  7.93466775884E+01  0.00000000000E+00  1.
        3    1    7    7  704    0 -1.62440381804E+01 -2.21829969817E+01  2.21397743996E+01  3.53004779282E+01  2.80078414070E-06  0.00000000000E+00  1.
       -4    1    7    7    0  704  2.53856517111E+01 -1.33221839787E+01  2.25445257967E+02  2.27260811049E+02  3.81469726562E-06  0.00000000000E+00  1.
       -1    1    5    5    0  703  8.30440864970E+01 -9.33325681771E+01 -1.09194578389E+02  1.65923911882E+02  1.34869915235E-06  0.00000000000E+00  1.
        4    1    5    5  703    0  3.67499308883E+01 -1.18268037726E+02 -3.24595353711E+01  1.28029323221E+02  1.50789149292E-06  0.00000000000E+00  1.
</event>
<event>
11 116   1.0000000E+00   7.4550000E+01   7.8125000E-03   1.3429423E-01
       21   -1    0    0  502  501  0.00000000000E+00  0.00000000000E+00  2.17279297273E+02  2.17279297273E+02  0.00000000000E+00  0.00000000000E+00  1.
       -5   -1    0    0    0  502  0.00000000000E+00  0.00000000000E+00 -6.08820058051E+02  6.08820058051E+02  0.00000000000E+00  0.00000000000E+00  1.
       25    1    1    2    0    0  1.75493072266E+01  1.52570004555E+02 -1.47981893604E+02  2.47202801984E+02  1.25000000000E+02  0.00000000000E+00  1.
       -6    2    1    2    0  501  1.74043939868E+02 -1.03600352026E+02 -1.45577181569E+01  2.65681220809E+02  1.71319169937E+02  0.00000000000E+00  1.
       24    2    1    2    0    0 -1.91593247094E+02 -4.89696525293E+01 -2.29001149018E+02  3.13215332532E+02  8.09711002787E+01  0.00000000000E+00  1.
       -5    1    4    4    0  501  1.66558349654E+01 -4.37068051265E+01  5.12284400757E+01  6.95314117888E+01  4.75000000000E+00  0.00000000000E+00  1.
      -24    2    4    4    0    0  1.57388104902E+02 -5.98935468994E+01 -6.57861582326E+01  1.96149809020E+02  7.60833519147E+01  0.00000000000E+00  1.
        3    1    7    7  704    0  1.37126312384E+02 -5.68754151898E+01 -2.50490153549E+01  1.50551956385E+02  2.07848498513E-06  0.00000000000E+00  1.
       -4    1    7    7    0  704  2.02617925179E+01 -3.01813170962E+00 -4.07371428777E+01  4.55978526346E+01  1.58148993986E-06  0.00000000000E+00  1.
       -1    1    5    5    0  703 -1.25114236550E+02 -1.53631315727E-01 -1.00301948045E+02  1.60356093030E+02  3.30362473978E-06  0.00000000000E+00  1.
        2    1    5    5  703    0 -6.64790105441E+01 -4.88160212136E+01 -1.28699200973E+02  1.52859239502E+02  1.90734863281E-06  0.00000000000E+00  1.
</event>
<event>
11 116   1.0000000E+00   7.4550000E+01   7.8125000E-03   1.3429423E-01
       21   -1    0    0  502  501  0.00000000000E+00  0.00000000000E+00  1.97098605536E+03  1.97098605536E+03  0.00000000000E+00  0.00000000000E+00  1.
       -5   -1    0    0    0  502  0.00000000000E+00  0.00000000000E+00 -9.01038017792E+01  9.01038017792E+01  0.00000000000E+00  0.00000000000E+00  1.
       25    1    1    2    0    0  7.77843416848E+01 -7.82539771624E+01  1.09235351109E+02  1.99327496059E+02  1.25000000000E+02  0.00000000000E+00  1.
       -6    2    1    2    0  501  1.31770066812E+02  6.99535898795E+01  1.45555884777E+03  1.47354831267E+03  1.74459781079E+02  0.00000000000E+00  1.
       24    2    1    2    0    0 -2.09554408497E+02  8.30038728294E+00  3.16088054703E+02  3.88214048409E+02  8.25623552652E+01  0.00000000000E+00  1.
       -5    1    4    4    0  501  1.14582479965E+02  7.82656499396E+01  7.16559530191E+02  7.29886826490E+02  4.75000000002E+00  0.00000000000E+00  1.
      -24    2    4    4    0    0  1.71875868472E+01 -8.31206006017E+00  7.38999317574E+02  7.43661486178E+02  8.09191643916E+01  0.00000000000E+00  1.
        3    1    7    7  704    0  2.62764504888E+01 -3.52172922224E+01  2.49540984238E+02  2.53379976194E+02  2.69739830470E-06  0.00000000000E+00  1.
       -4    1    7    7    0  704 -9.08886364166E+00  2.69052321622E+01  4.89458333336E+02  4.90281509984E+02  7.62939453125E-06  0.00000000000E+00  1.
       -1    1    5    5    0  703 -1.86762329575E+02 -1.84659532838E+01  2.42314210586E+02  3.06491983306E+02  3.81469726562E-06  0.00000000000E+00  1.
        2    1    5    5  703    0 -2.27920789212E+01  2.67663405667E+01  7.37738441172E+01  8.17220651031E+01  2.13248059988E-06  0.00000000000E+00  1.
</event>
<event>
11 116   1.0000000E+00   7.4550000E+01   7.8125000E-03   1.3429423E-01
       -5   -1    0    0    0  502  0.00000000000E+00  0.00000000000E+00  1.46928020897E+02  1.46928020897E+02  0.00000000000E+00  0.00000000000E+00  1.
       21   -1    0    0  502  501  0.00000000000E+00  0.00000000000E+00 -1.28196369501E+03  1.28196369501E+03  0.00000000000E+00  0.00000000000E+00  1.
       25    1    1    2    0    0  2.92667670696E+01 -1.36371813295E+02  4.50803634537E+00  1.87347638116E+02  1.25000000000E+02  0.00000000000E+00  1.
       -6    2    1    2    0  501 -2.00285517388E+02  2.44447274575E+01 -5.12212878604E+02  5.76668555591E+02  1.71676314102E+02  0.00000000000E+00  1.
       24    2    1    2    0    0  1.71018750319E+02  1.11927085837E+02 -6.27330831856E+02  6.64875522201E+02  8.20999507923E+01  0.00000000000E+00  1.
       -5    1    4    4    0  501 -1.55857389594E+02  2.27630218823E+01 -4.10852967515E+02  4.40036821723E+02  4.75000000002E+00  0.00000000000E+00  1.
      -24    2    4    4    0    0 -4.44281277947E+01  1.68170557521E+00 -1.01359911089E+02  1.36631733868E+02  8.01106263289E+01  0.00000000000E+00  1.
       13    1    7    7    0    0 -6.62742191017E+01 -4.36110228199E+00 -8.82376804582E+01  1.10440892550E+02  1.05659999995E-01  0.00000000000E+00  1.
      -14    1    7    7    0    0  2.18460913069E+01  6.04280785720E+00 -1.31222306306E+01  2.61908413174E+01  1.43051147461E-06  0.00000000000E+00  1.
       -3    1    5    5    0  703  9.27468790794E+01  1.06913148601E+02 -3.86953656969E+02  4.12026136991E+02  7.62939453125E-06  0.00000000000E+00  1.
        4    1    5    5  703    0  7.82718712394E+01  5.01393723639E+00 -2.40377174887E+02  2.52849385209E+02  0.00000000000E+00  0.00000000000E+00  1.
</event>
<event>
11 116   1.0000000E+00   7.4550000E+01   7.8125000E-03   1.3429423E-01
       -5   -1    0    0    0  502  0.00000000000E+00  0.00000000000E+00  1.33208031949E+02  1.33208031949E+02  0.00000000000E+00  0.00000000000E+00  1.
       21   -1    0    0  502  501  0.00000000000E+00  0.00000000000E+00 -1.00682765659E+03  1.00682765659E+03  0.00000000000E+00  0.00000000000E+00  1.
       25    1    1    2    0    0 -1.44454243462E+02 -2.38866773831E+02 -2.55196402649E+02  3.98339764547E+02  1.25000000000E+02  0.00000000000E+00  1.
       -6    2    1    2    0  501  1.54168033005E+02  2.04696462060E+02 -3.98754859709E+02  5.04915383117E+02  1.73970348008E+02  0.00000000000E+00  1.
       24    2    1    2    0    0 -9.71378954295E+00  3.41703117705E+01 -2.19668362287E+02  2.36780540878E+02  8.09250717317E+01  0.00000000000E+00  1.
       -5    1    4    4    0  501 -4.82316307896E+00  2.40781365049E+01 -1.40933800634E+02  1.43136013012E+02  4.75000000000E+00  0.00000000000E+00  1.
      -24    2    4    4    0    0  1.58991196084E+02  1.80618325555E+02 -2.57821059074E+02  3.61779370105E+02  8.06934580539E+01  0.00000000000E+00  1.
        1    1    7    7  704    0  5.81787977548E+01  4.36955103066E+01 -3.29825237503E+01  7.98869013174E+01  1.96604996949E-06  0.00000000000E+00  1.
       -2    1    7    7    0  704  1.00812398330E+02  1.36922815249E+02 -2.24838535324E+02  2.81892468788E+02  2.69739830470E-06  0.00000000000E+00  1.
      -15    1    5    5    0    0 -1.72750015619E+01  5.57426579713E+00 -3.46728673554E+00  1.85654844722E+01  1.77680000000E+00  0.00000000000E+00  1.
       16    1    5    5    0    0  7.56121201897E+00  2.85960459734E+01 -2.16201075552E+02  2.18215056406E+02  3.81469726562E-06  0.00000000000E+00  1.
</event>
<event>
11 116   1.0000000E+00   7.4550000E+01   7.8125000E-03   1.3429423E-01
       -5   -1    0    0    0  502  0.00000000000E+00  0.00000000000E+00  8.49753868981E+02  8.49753868981E+02  0.00000000000E+00  0.00000000000E+00  1.
       21   -1    0    0  502  501  0.00000000000E+00  0.00000000000E+00 -3.33022609723E+02  3.33022609723E+02  0.00000000000E+00  0.00000000000E+00  1.
       25    1    1    2    0    0  2.70732775436E+02 -5.01374295350E+01  6.47995663676E+01  3.09247443542E+02  1.25000000000E+02  0.00000000000E+00  1.
       -6    2    1    2    0  501  1.71088196349E+02  1.49243482152E+02  1.50336138128E+02  3.23499242182E+02  1.74659718797E+02  0.00000000000E+00  1.
       24    2    1    2    0    0 -4.41820971785E+02 -9.91060526173E+01  3.01595554761E+02  5.50029792980E+02  8.09018772309E+01  0.00000000000E+00  1.
       -5    1    4    4    0  501  1.52319386175E+02  1.29016581041E+02  1.26079898821E+02  2.36146515907E+02  4.75000000000E+00  0.00000000000E+00  1.
      -24    2    4    4    0    0  1.87688101740E+01  2.02269011117E+01  2.42562393072E+01  8.73527262753E+01  7.92511064811E+01  0.00000000000E+00  1.
        1    1    7    7  704    0  3.14907440978E+01 -1.97009393728E+01 -3.15325453187E+00  3.72791763609E+01  3.60102831530E-07  0.00000000000E+00  1.
       -2    1    7    7    0  704 -1.27219339238E+01  3.99278404845E+01  2.74094938391E+01  5.00735499144E+01  7.53945746462E-07  0.00000000000E+00  1.
       -1    1    5    5    0  703 -1.97307481363E+02 -5.73154694114E+01  9.13395267221E+01  2.24851538526E+02  2.33601545599E-06  0.00000000000E+00  1.
        4    1    5    5  703    0 -2.44513490423E+02 -4.17905832059E+01  2.10256028039E+02  3.25178254455E+02  5.39479660939E-06  0.00000000000E+00  1.
</event>
<event>
11 116   1.0000000E+00   7.4550000E+01   7.8125000E-03   1.3429423E-01
       -5   -1    0    0    0  502  0.00000000000E+00  0.00000000000E+00  8.18081899521E+02  8.18081899521E+02  0.00000000000E+00  0.00000000000E+00  1.
       21   -1    0    0  502  501  0.00000000000E+00  0.00000000000E+00 -1.58176006126E+02  1.58176006126E+02  0.00000000000E+00  0.00000000000E+00  1.
       25    1    1    2    0    0 -9.56089155742E+01  2.51900020540E+02  2.05110898077E+02  3.60957290542E+02  1.25000000000E+02  0.00000000000E+00  1.
       -6    2    1    2    0  501 -2.57660257281E+01 -9.88087483202E+01  1.93857216111E+02  2.79730315926E+02  1.73900467462E+02  0.00000000000E+00  1.
       24    2    1    2    0    0  1.21374941302E+02 -1.53091272220E+02  2.60937779206E+02  3.35570299178E+02  7.96874335594E+01  0.00000000000E+00  1.
       -5    1    4    4    0  501  4.98344521698E+01 -7.78361137187E+01  7.31225302087E+01  1.17946598705E+02  4.75000000000E+00  0.00000000000E+00  1.
      -24    2    4    4    0    0 -7.56004778979E+01 -2.09726346015E+01  1.20734685902E+02  1.61783717222E+02  7.37687136774E+01  0.00000000000E+00  1.
       15    1    7    7    0    0 -2.15658769437E+01 -2.81468721377E+01  9.51720730632E+01  1.01578609800E+02  1.77680000000E+00  0.00000000000E+00  1.
      -16    1    7    7    0    0 -5.40346009542E+01  7.17423753624E+00  2.55626128391E+01  6.02051074218E+01  1.16800772800E-06  0.00000000000E+00  1.
       -1    1    5    5    0  703  6.22076964471E+01 -3.13099828237E+01  5.33385903613E+01  8.77218202240E+01  3.01578298585E-06  0.00000000000E+00  1.
        2    1    5    5  703    0  5.91672448552E+01 -1.21781289396E+02  2.07599188845E+02  2.47848478954E+02  2.69739830470E-06  0.00000000000E+00  1.
</event>
<event>
11 116   1.0000000E+00   7.4550000E+01   7.8125000E-03   1.3429423E-01
       -5   -1    0    0    0  502  0.00000000000E+00  0.00000000000E+00  1.10416100463E+03  1.10416100463E+03  0.00000000000E+00  0.00000000000E+00  1.
       21   -1    0    0  502  501  0.00000000000E+00  0.00000000000E+00 -6.27632492836E+01  6.27632492836E+01  0.00000000000E+00  0.00000000000E+00  1.
       25    1    1    2    0    0  9.00627597109E+01  2.27568158107E+01  3.23452545587E+02  3.58992649784E+02  1.25000000000E+02  0.00000000000E+00  1.
       -6    2    1    2    0  501  6.07502826774E+01  3.49122404133E+01  3.13830649533E+02  3.65403336113E+02  1.73552470682E+02  0.00000000000E+00  1.
       24    2    1    2    0    0 -1.50813042388E+02 -5.76690562240E+01  4.04114560228E+02  4.42528268018E+02  8.03268100111E+01  0.00000000000E+00  1.
       -5    1    4    4    0  501 -2.35503674778E+01  4.73323272067E+01  1.72556750196E+02  1.80536321956E+02  4.75000000000E+00  0.00000000000E+00  1.
      -24    2    4    4    0    0  8.43006501552E+01 -1.24200867934E+01  1.41273899337E+02  1.84867014156E+02  8.34064752687E+01  0.00000000000E+00  1.
        3    1    7    7  704    0  1.22498317930E+01  2.93212170027E+01  6.31155991260E+01  7.06637884528E+01  1.16800772800E-06  0.00000000000E+00  1.
       -4    1    7    7    0  704  7.20508183622E+01 -4.17413037961E+01  7.81583002107E+01  1.14203225704E+02  1.34869915235E-06  0.00000000000E+00  1.
       -3    1    5    5    0  703 -8.89273621167E+01 -4.85583508062E+00  2.82529971946E+02  2.96234434047E+02  6.60724947956E-06  0.00000000000E+00  1.
        4    1    5    5  703    0 -6.18856802716E+01 -5.28132211434E+01  1.21584588282E+02  1.46293833971E+02  0.00000000000E+00  0.00000000000E+00  1.
</event>
<event>
11 116   1.0000000E+00   7.4550000E+01   7.8125000E-03   1.3429423E-01
       -5   -1    0    0    0  502  0.00000000000E+00  0.00000000000E+00  1.02335308446E+03  1.02335308446E+03  0.00000000000E+00  0.00000000000E+00  1.
       21   -1    0    0  502  501  0.00000000000E+00  0.00000000000E+00 -1.80171989469E+02  1.80171989469E+02  0.00000000000E+00  0.00000000000E+00  1.
       25    1    1    2    0    0  9.87678186623E+01 -1.06647769327E+01  3.03197038507E+02  3.42669321110E+02  1.25000000000E+02  0.00000000000E+00  1.
       -6    2    1    2    0  501 -1.13676444480E+02 -5.41362137223E+01 -8.00720190386E+01  2.31310480930E+02  1.76748257952E+02  0.00000000000E+00  1.
       24    2    1    2    0    0  1.49086258179E+01  6.48009906550E+01  6.20056075524E+02  6.29545271892E+02  8.62338509740E+01  0.00000000000E+00  1.
       -5    1    4    4    0  501  1.98521218510E+01  2.63983738610E+01  8.87009570935E+00  3.45285676272E+01  4.75000000000E+00  0.00000000000E+00  1.
      -24    2    4    4    0    0 -1.33528566331E+02 -8.05345875833E+01 -8.89421147479E+01  1.96781913302E+02  8.06022568138E+01  0.00000000000E+00  1.
        1    1    7    7  704    0 -1.99267817843E+01  1.41863568758E+01 -2.69795654324E+01  3.64173901399E+01  2.26183723939E-06  0.00000000000E+00  1.
       -2    1    7    7    0  704 -1.13601784547E+02 -9.47209444591E+01 -6.19625493156E+01  1.60364523163E+02  3.01578298585E-06  0.00000000000E+00  1.
       -3    1    5    5    0  703  1.26820460692E+01  2.90786701622E+01  5.49642190438E+02  5.50556936983E+02  0.00000000000E+00  0.00000000000E+00  1.
        4    1    5    5  703    0  2.22657974872E+00  3.57223204928E+01  7.04138850861E+01  7.89883349089E+01  9.53674316406E-07  0.00000000000E+00  1.
</event>
<event>
11 116   1.0000000E+00   7.4550000E+01   7.8125000E-03   1.3429423E-01
       -5   -1    0    0    0  502  0.00000000000E+00  0.00000000000E+00  1.52491891096E+03  1.52491891096E+03  0.00000000000E+00  0.00000000000E+00  1.
       21   -1    0    0  502  501  0.00000000000E+00  0.00000000000E+00 -8.68910044282E+02  8.68910044282E+02  0.00000000000E+00  0.00000000000E+00  1.
       25    1    1    2    0    0 -4.10088993464E+01 -1.25984156895E+02  2.28676155957E+02  2.92355129795E+02  1.25000000000E+02  0.00000000000E+00  1.
       -6    2    1    2    0  501  1.51272102039E+01  4.32036932340E+02 -7.49738703377E+02  8.82011767014E+02  1.70152550420E+02  0.00000000000E+00  1.
       24    2    1    2    0    0  2.58816891425E+01 -3.06052775444E+02  1.17707141409E+03  1.21946205843E+03  8.51612287410E+01  0.00000000000E+00  1.
       -5    1    4    4    0  501 -5.17587657545E+01  2.43744531869E+02 -3.91197975790E+02  4.63841336462E+02  4.74999999998E+00  0.00000000000E+00  1.
      -24    2    4    4    0    0  6.68859759584E+01  1.88292400471E+02 -3.58540727587E+02  4.18170430551E+02  7.99205467577E+01  0.00000000000E+00  1.
        1    1    7    7  704    0  2.59391099111E+01  7.26043619777E+01 -6.81037254301E+01  1.02870541063E+02  2.13248059988E-06  0.00000000000E+00  1.
       -2    1    7    7    0  704  4.09468660474E+01  1.15688038493E+02 -2.90437002157E+02  3.15299889488E+02  3.81469726562E-06  0.00000000000E+00  1.
      -11    1    5    5    0    0  4.95303722410E+01 -2.60133156810E+02  9.25251199527E+02  9.62399241102E+02  5.10770727640E-04  0.00000000000E+00  1.
       12    1    5    5    0    0 -2.36486830985E+01 -4.59196186342E+01  2.51820214566E+02  2.57062817327E+02  1.74811389731E-05  0.00000000000E+00  1.
</event>
<event>
11 116   1.0000000E+00   7.4550000E+01   7.8125000E-03   1.3429423E-01
       -5   -1    0    0    0  502  0.00000000000E+00  0.00000000000E+00  6.98633421213E+02  6.98633421213E+02  0.00000000000E+00  0.00000000000E+00  1.
       21   -1    0    0  502  501  0.00000000000E+00  0.00000000000E+00 -3.52150105734E+02  3.52150105734E+02  0.00000000000E+00  0.00000000000E+00  1.
       25    1    1    2    0    0  1.99322857674E+02 -1.23611320814E+02  3.47678941347E+02  4.37624275470E+02  1.25000000000E+02  0.00000000000E+00  1.
       -6    2    1    2    0  501 -1.68118650131E+02  9.72836702170E+01 -2.42220152174E+02  3.55807743763E+02  1.73783069917E+02  0.00000000000E+00  1.
       24    2    1    2    0    0 -3.12042075434E+01  2.63276505968E+01  2.41024526307E+02  2.57351507713E+02  8.04371088891E+01  0.00000000000E+00  1.
       -5    1    4    4    0  501 -1.09989723652E+02 -9.63239082924E+00 -7.29655310980E+01  1.32427540529E+02  4.75000000000E+00  0.00000000000E+00  1.
      -24    2    4    4    0    0 -5.81289264784E+01  1.06916061046E+02 -1.69254621076E+02  2.23380203234E+02  8.02594059164E+01  0.00000000000E+00  1.
        3    1    7    7  704    0 -4.17167617144E+01  1.02927670918E+02 -9.17515276844E+01  1.44058101060E+02  3.01578298585E-06  0.00000000000E+00  1.
       -4    1    7    7    0  704 -1.64121647639E+01  3.98839012840E+00 -7.75030933918E+01  7.93221021743E+01  1.65181236989E-06  0.00000000000E+00  1.
       -3    1    5    5    0  703  2.07816820812E+01 -7.00426555874E+00  2.80544053921E+01  3.56088150328E+01  2.58988868980E-06  0.00000000000E+00  1.
        4    1    5    5  703    0 -5.19858896246E+01  3.33319161556E+01  2.12970120915E+02  2.21742692680E+02  2.69739830470E-06  0.00000000000E+00  1.
</event>
<event>
11 116   1.0000000E+00   7.4550000E+01   7.8125000E-03   1.3429423E-01
       -5   -1    0    0    0  502  0.00000000000E+00  0.00000000000E+00  2.22190208555E+02  2.22190208555E+02  0.00000000000E+00  0.00000000000E+00  1.
       21   -1    0    0  502  501  0.00000000000E+00  0.00000000000E+00 -1.17893292793E+03  1.17893292793E+03  0.00000000000E+00  0.00000000000E+00  1.
       25    1    1    2    0    0  6.06891111768E+01  2.10876129905E+01 -8.06103921010E+02  8.18264252613E+02  1.25000000000E+02  0.00000000000E+00  1.
       -6    2    1    2    0  501 -1.36475823217E+02  2.17697314448E+01 -3.11434564604E+02  3.83358973762E+02  1.75707265653E+02  0.00000000000E+00  1.
       24    2    1    2    0    0  7.57867120401E+01 -4.28573444352E+01  1.60795766242E+02  1.99499910107E+02  7.97781799570E+01  0.00000000000E+00  1.
       -5    1    4    4    0  501 -3.97925709633E+01 -4.59790657248E+01 -3.04601818731E+01  6.81755701739E+01  4.75000000000E+00  0.00000000000E+00  1.
      -24    2    4    4    0    0 -9.66832522537E+01  6.77487971695E+01 -2.80974382731E+02  3.15183403588E+02  8.03518721729E+01  0.00000000000E+00  1.
       11    1    7    7    0    0 -5.98255672618E+01 -5.98500374845E+00 -1.27795179796E+02  1.41232173202E+02  5.10991478305E-04  0.00000000000E+00  1.
      -12    1    7    7    0    0 -3.68576849919E+01  7.37338009180E+01 -1.53179202936E+02  1.73951230386E+02  3.81469726562E-06  0.00000000000E+00  1.
       -1    1    5    5    0  703  1.96364645524E+01 -4.55032988077E+01  1.20624982398E+02  1.30409076835E+02  1.90734863281E-06  0.00000000000E+00  1.
        2    1    5    5  703    0  5.61502474877E+01  2.64595437245E+00  4.01707838440E+01  6.90908332713E+01  1.96604996949E-06  0.00000000000E+00  1.
</event>
<event>
11 116   1.0000000E+00   7.4550000E+01   7.8125000E-03   1.3429423E-01
       -5   -1    0    0    0  502  0.00000000000E+00  0.00000000000E+00  1.40289112244E+02  1.40289112244E+02  0.00000000000E+00  0.00000000000E+00  1.
       21   -1    0    0  502  501  0.00000000000E+00  0.00000000000E+00 -1.76404105473E+03  1.76404105473E+03  0.00000000000E+00  0.00000000000E+00  1.
       25    1    1    2    0    0 -3.55503405127E+01  1.70759438970E+01 -3.09109861476E+02  3.35751874205E+02  1.25000000000E+02  0.00000000000E+00  1.
       -6    2    1    2    0  501 -1.59237746224E+02 -8.15071360178E+01 -1.32504346666E+03  1.34816837444E+03  1.72678036375E+02  0.00000000000E+00  1.
       24    2    1    2    0    0  1.94788086736E+02  6.44311921208E+01  1.04013856531E+01  2.20409918330E+02  7.98659252901E+01  0.00000000000E+00  1.
       -5    1    4    4    0  501 -6.04300194713E+01 -9.30810303195E+01 -7.98665430685E+02  8.06352837243E+02  4.75000000001E+00  0.00000000000E+00  1.
      -24    2    4    4    0    0 -9.88077267522E+01  1.15738943017E+01 -5.26378035975E+02  5.41815537193E+02  8.11992468646E+01  0.00000000000E+00  1.
        1    1    7    7  704    0 -3.09250813294E+00 -2.47496347965E+01 -7.76603610866E+01  8.15673936889E+01  8.89528184232E-06  0.00000000000E+00  1.
       -2    1    7    7    0  704 -9.57152186193E+01  3.63235290981E+01 -4.48717674888E+02  4.60248143504E+02  7.62939453125E-06  0.00000000000E+00  1.
       -3    1    5    5    0  703  1.25349670683E+02  7.95787670431E+01 -6.90033590148E-01  1.48478268615E+02  3.28200400950E-06  0.00000000000E+00  1.
        4    1    5    5  703    0  6.94384160532E+01 -1.51475749223E+01  1.10914192433E+01  7.19316497158E+01  2.33601545599E-06  0.00000000000E+00  1.
</event>
<event>
11 116   1.0000000E+00   7.4550000E+01   7.8125000E-03   1.3429423E-01
       -5   -1    0    0    0  502  0.00000000000E+00  0.00000000000E+00  1.98634619590E+02  1.98634619590E+02  0.00000000000E+00  0.00000000000E+00  1.
       21   -1    0    0  502  501  0.00000000000E+00  0.00000000000E+00 -4.20900620603E+02  4.20900620603E+02  0.00000000000E+00  0.00000000000E+00  1.
       25    1    1    2    0    0 -1.40938182515E+02 -4.21621292788E+01 -1.27706872332E+01  1.93466552376E+02  1.25000000000E+02  0.00000000000E+00  1.
       -6    2    1    2    0  501  6.72206492603E+00  5.75344516256E+01 -1.96434538374E+02  2.68283521016E+02  1.73303550171E+02  0.00000000000E+00  1.
       24    2    1    2    0    0  1.34216117589E+02 -1.53723223468E+01 -1.30607754067E+01  1.57785166801E+02  8.04692518494E+01  0.00000000000E+00  1.
       -5    1    4    4    0  501 -5.89639734112E+01  3.37155100021E+01 -3.99943901482E+01  7.89658123396E+01  4.75000000000E+00  0.00000000000E+00  1.
      -24    2    4    4    0    0  6.56860383372E+01  2.38189416235E+01 -1.56440148226E+02  1.89317708676E+02  8.05337024422E+01  0.00000000000E+00  1.
        1    1    7    7  704    0  6.71230733230E+00  2.23886137708E+01 -1.14689506528E+02  1.17046947863E+02  2.33601545599E-06  0.00000000000E+00  1.
       -2    1    7    7    0  704  5.89737310049E+01  1.43032785265E+00 -4.17506416974E+01  7.22707608134E+01  2.33601545599E-06  0.00000000000E+00  1.
       -3    1    5    5    0  703  9.50106677709E+01  1.87588057149E+01  1.61146594320E+01  9.81763822450E+01  1.98045345853E-06  0.00000000000E+00  1.
        2    1    5    5  703    0  3.92054498179E+01 -3.41311280617E+01 -2.91754348387E+01  5.96087845558E+01  1.99475294717E-06  0.00000000000E+00  1.
</event>
<event>
11 116   1.0000000E+00   7.4550000E+01   7.8125000E-03   1.3429423E-01
       -5   -1    0    0    0  502  0.00000000000E+00  0.00000000000E+00  1.54464697309E+02  1.54464697309E+02  0.00000000000E+00  0.00000000000E+00  1.
       21   -1    0    0  502  501  0.00000000000E+00  0.00000000000E+00 -1.18451529912E+03  1.18451529912E+03  0.00000000000E+00  0.00000000000E+00  1.
       25    1    1    2    0    0 -6.75784509237E+01  6.79976740317E+00  1.80105413537E+01  1.43396176608E+02  1.25000000000E+02  0.00000000000E+00  1.
       -6    2    1    2    0  501 -8.13645602835E+01 -2.21354933000E+01 -1.00205851670E+03  1.02022727772E+03  1.72140220732E+02  0.00000000000E+00  1.
       24    2    1    2    0    0  1.48943011207E+02  1.53357258969E+01 -4.60026264725E+01  1.75356542102E+02  7.88319106657E+01  0.00000000000E+00  1.
       -5    1    4    4    0  501  7.98716456520E+00  2.88744567278E+01 -5.28543050605E+02  5.29412738694E+02  4.75000000002E+00  0.00000000000E+00  1.
      -24    2    4    4    0    0 -8.93517248487E+01 -5.10099500278E+01 -4.73515466091E+02  4.90814539029E+02  7.80786101272E+01  0.00000000000E+00  1.
        3    1    7    7  704    0 -5.31683302970E+01 -3.32932441572E+01 -4.15340432607E+02  4.20051171181E+02  9.34406182397E-06  0.00000000000E+00  1.
       -4    1    7    7    0  704 -3.61833945517E+01 -1.77167058706E+01 -5.81750334846E+01  7.07633678475E+01  6.06914618557E-06  0.00000000000E+00  1.
       -3    1    5    5    0  703  1.26827238579E+02 -1.87376249228E+01 -2.97916232393E+01  1.31619861148E+02  2.23656452171E-06  0.00000000000E+00  1.
        4    1    5    5  703    0  2.21157726279E+01  3.40733508196E+01 -1.62110032333E+01  4.37366809536E+01  4.12953092472E-07  0.00000000000E+00  1.
</event>
<event>
11 116   1.0000000E+00   7.4550000E+01   7.8125000E-03   1.3429423E-01
       -5   -1    0    0    0  502  0.00000000000E+00  0.00000000000E+00  2.63458373608E+02  2.63458373608E+02  0.00000000000E+00  0.00000000000E+00  1.
       21   -1    0    0  502  501  0.00000000000E+00  0.00000000000E+00 -2.46329608711E+02  2.46329608711E+02  0.00000000000E+00  0.00000000000E+00  1.
       25    1    1    2    0    0 -7.50266405535E+01 -1.51748597412E+01 -1.29727915740E+02  1.95738614696E+02  1.25000000000E+02  0.00000000000E+00  1.
       -6    2    1    2    0  501  4.41081933792E+01 -2.00091188974E+01  9.27592448065E+01  2.01624479092E+02  1.72343423170E+02  0.00000000000E+00  1.
       24    2    1    2    0    0  3.09184471743E+01  3.51839786386E+01  5.40974358296E+01  1.12424888530E+02  8.67119384470E+01  0.00000000000E+00  1.
       -5    1    4    4    0  501  5.80482241732E+01 -2.17071295418E+01 -1.77459980211E+01  6.46396066539E+01  4.75000000000E+00  0.00000000000E+00  1.
      -24    2    4    4    0    0 -1.39400307940E+01  1.69801064440E+00  1.10505242828E+02  1.36984872438E+02  7.97260238936E+01  0.00000000000E+00  1.
       11    1    7    7    0    0  2.28138148420E+01 -2.32370680449E-01  2.58448018236E+00  2.29609163983E+01  5.11003878097E-04  0.00000000000E+00  1.
      -12    1    7    7    0    0 -3.67538456359E+01  1.93038132485E+00  1.07920762645E+02  1.14023956040E+02  3.01578298585E-06  0.00000000000E+00  1.
       -3    1    5    5    0  703  1.51194661330E+01  3.24912465672E+01  7.67335254589E+01  8.46895110919E+01  0.00000000000E+00  0.00000000000E+00  1.
        4    1    5    5  703    0  1.57989810414E+01  2.69273207140E+00 -2.26360896293E+01  2.77353774385E+01  5.84003863998E-07  0.00000000000E+00  1.
</event>
<event>
11 116   1.0000000E+00   7.4550000E+01   7.8125000E-03   1.3429423E-01
       -5   -1    0    0    0  502  0.00000000000E+00  0.00000000000E+00  1.44543486430E+03  1.44543486430E+03  0.00000000000E+00  0.00000000000E+00  1.
       21   -1    0    0  502  501  0.00000000000E+00  0.00000000000E+00 -4.03412225825E+02  4.03412225825E+02  0.00000000000E+00  0.00000000000E+00  1.
       25    1    1    2    0    0  6.19993750849E+01  2.26953222119E+02  6.42851450632E+00  2.66492051176E+02  1.25000000000E+02  0.00000000000E+00  1.
       -6    2    1    2    0  501 -2.66088711345E+02 -5.10386534660E+02  1.37507155755E+02  6.15817307567E+02  1.70367606510E+02  0.00000000000E+00  1.
       24    2    1    2    0    0  2.04089336260E+02  2.83433312541E+02  8.98086968218E+02  9.66537731385E+02  7.51537349416E+01  0.00000000000E+00  1.
       -5    1    4    4    0  501 -1.27147404955E+02 -3.14627064090E+02  1.26085552733E+02  3.62045275004E+02  4.75000000000E+00  0.00000000000E+00  1.
      -24    2    4    4    0    0 -1.38941306390E+02 -1.95759470570E+02  1.14216030220E+01  2.53772032563E+02  8.15066534493E+01  0.00000000000E+00  1.
        3    1    7    7  704    0 -1.38283130290E+02 -1.38461064976E+02  1.56598425069E+01  1.96313324317E+02  1.89238880472E-06  0.00000000000E+00  1.
       -4    1    7    7    0  704 -6.58176100052E-01 -5.72984055943E+01 -4.23823948495E+00  5.74587082465E+01  2.89681026464E-06  0.00000000000E+00  1.
       -3    1    5    5    0  703  8.88813754365E+01  1.78294958223E+02  4.51543681336E+02  4.93538941910E+02  9.34406182397E-06  0.00000000000E+00  1.
        2    1    5    5  703    0  1.15207960824E+02  1.05138354318E+02  4.46543286882E+02  4.72998789476E+02  0.00000000000E+00  0.00000000000E+00  1.
</event>
<event>
11 116   1.0000000E+00   7.4550000E+01   7.8125000E-03   1.3429423E-01
       -5   -1    0    0    0  502  0.00000000000E+00  0.00000000000E+00  2.27193291268E+02  2.27193291268E+02  0.00000000000E+00  0.00000000000E+00  1.
       21   -1    0    0  502  501  0.00000000000E+00  0.00000000000E+00 -1.50164102103E+03  1.50164102103E+03  0.00000000000E+00  0.00000000000E+00  1.
       25    1    1    2    0    0  3.89444332370E+02  5.42252240366E+01 -1.59450769645E+02  4.42331110004E+02  1.25000000000E+02  0.00000000000E+00  1.
       -6    2    1    2    0  501 -4.02308900729E+02 -1.53800103677E+01 -1.11215892360E+03  1.19653194854E+03  1.80837596220E+02  0.00000000000E+00  1.
       24    2    1    2    0    0  1.28645683583E+01 -3.88452136689E+01 -2.83803651432E+00  8.99712537529E+01  8.00769898696E+01  0.00000000000E+00  1.
       -5    1    4    4    0  501 -2.98052170269E+02 -2.58400076207E+01 -6.43162649011E+02  7.09354324565E+02  4.74999999999E+00  0.00000000000E+00  1.
      -24    2    4    4    0    0 -1.04256730460E+02  1.04599972530E+01 -4.68996274586E+02  4.87177623972E+02  8.00353317863E+01  0.00000000000E+00  1.
        3    1    7    7  704    0  3.87106776491E+00 -7.61304017717E+00 -1.42742057892E+02  1.42997337869E+02  5.39479660939E-06  0.00000000000E+00  1.
       -2    1    7    7    0  704 -1.08127798225E+02  1.80730374302E+01 -3.26254216694E+02  3.44180286102E+02  0.00000000000E+00  0.00000000000E+00  1.
       -1    1    5    5    0  703 -1.45325636810E+00  2.33093804849E+01  9.12988052227E+00  2.50757630196E+01  1.25594779883E-06  0.00000000000E+00  1.
        2    1    5    5  703    0  1.43178247264E+01 -6.21545941538E+01 -1.19679170366E+01  6.48954907333E+01  5.05762182131E-07  0.00000000000E+00  1.
</event>
<event>
11 116   1.0000000E+00   7.4550000E+01   7.8125000E-03   1.3429423E-01
       -5   -1    0    0    0  502  0.00000000000E+00  0.00000000000E+00  2.72448734306E+02  2.72448734306E+02  0.00000000000E+00  0.00000000000E+00  1.
       21   -1    0    0  502  501  0.00000000000E+00  0.00000000000E+00 -4.24048531062E+02  4.24048531062E+02  0.00000000000E+00  0.00000000000E+00  1.
       25    1    1    2    0    0 -2.38198405994E+02  4.21733728910E+01 -7.53639631926E+01  2.82527522460E+02  1.25000000000E+02  0.00000000000E+00  1.
       -6    2    1    2    0  501  1.80080045226E+02 -1.05651316924E+02 -1.01388416195E+02  2.96139941379E+02  1.83924523881E+02  0.00000000000E+00  1.
       24    2    1    2    0    0  5.81183607678E+01  6.34779440333E+01  2.51525826311E+01  1.17829801529E+02  7.64461671922E+01  0.00000000000E+00  1.
       -5    1    4    4    0  501  1.73686384681E+02 -7.73673210171E+01 -4.74865822945E+01  1.96036222630E+02  4.75000000000E+00  0.00000000000E+00  1.
      -24    2    4    4    0    0  6.39366054537E+00 -2.82839959072E+01 -5.39018339006E+01  1.00103718749E+02  7.92116373392E+01  0.00000000000E+00  1.
       11    1    7    7    0    0  4.17317642115E+01 -2.15665338237E+01 -3.94325883264E+01  6.13317580683E+01  5.11000600020E-04  0.00000000000E+00  1.
      -12    1    7    7    0    0 -3.53381036661E+01 -6.71746208349E+00 -1.44692455742E+01  3.87719606810E+01  5.05762182131E-07  0.00000000000E+00  1.
       -3    1    5    5    0  703 -1.02504469836E+01  3.33332778940E+01 -8.47992145451E+00  3.58899449205E+01  1.36961046375E-06  0.00000000000E+00  1.
        4    1    5    5  703    0  6.83688077514E+01  3.01446661393E+01  3.36325040856E+01  8.19398566088E+01  1.58148993986E-06  0.00000000000E+00  1.
</event>
<event>
11 116   1.0000000E+00   7.4550000E+01   7.8125000E-03   1.3429423E-01
       -5   -1    0    0    0  502  0.00000000000E+00  0.00000000000E+00  1.18690372652E+03  1.18690372652E+03  0.00000000000E+00  0.00000000000E+00  1.
       21   -1    0    0  502  501  0.00000000000E+00  0.00000000000E+00 -2.83935701398E+02  2.83935701398E+02  0.00000000000E+00  0.00000000000E+00  1.
       25    1    1    2    0    0 -1.23846142798E+02  4.62244929991E+01 -2.02179821423E+02  2.71985755196E+02  1.25000000000E+02  0.00000000000E+00  1.
       -6    2    1    2    0  501  1.95038831790E+02 -1.72518045191E+01  1.03410411747E+03  1.06652760799E+03  1.72545768346E+02  0.00000000000E+00  1.
       24    2    1    2    0    0 -7.11926889920E+01 -2.89726884799E+01  7.10437290763E+01  1.32326064731E+02  8.09639445836E+01  0.00000000000E+00  1.
       -5    1    4    4    0  501  7.71112137039E+01  6.03578883118E+01  3.78478027118E+02  3.90969811458E+02  4.75000000001E+00  0.00000000000E+00  1.
      -24    2    4    4    0    0  1.17927618086E+02 -7.76096928310E+01  6.55626090354E+02  6.75557796535E+02  8.12562525469E+01  0.00000000000E+00  1.
       11    1    7    7    0    0  1.01096448330E+02 -2.92689395813E+01  3.43499116484E+02  3.59261472628E+02  5.10998597706E-04  0.00000000000E+00  1.
      -12    1    7    7    0    0  1.68311697558E+01 -4.83407532497E+01  3.12126973870E+02  3.16296323908E+02  5.39479660939E-06  0.00000000000E+00  1.
       -3    1    5    5    0  703 -4.08027368452E+01 -5.32618668252E+01  6.41282674913E+01  9.28123078217E+01  0.00000000000E+00  0.00000000000E+00  1.
        4    1    5    5  703    0 -3.03899521468E+01  2.42891783453E+01  6.91546158497E+00  3.95137569095E+01  1.59936044991E-06  0.00000000000E+00  1.
</event>
<event>
11 116   1.0000000E+00   7.4550000E+01   7.8125000E-03   1.3429423E-01
       -5   -1    0    0    0  502  0.00000000000E+00  0.00000000000E+00  6.91482064045E+02  6.91482064045E+02  0.00000000000E+00  0.00000000000E+00  1.
       21   -1    0    0  502  501  0.00000000000E+00  0.00000000000E+00 -4.95758727652E+02  4.95758727652E+02  0.00000000000E+00  0.00000000000E+00  1.
       25    1    1    2    0    0 -9.21210480036E+01  9.60563529110E+01  2.22987696453E+02  2.88204134580E+02  1.25000000000E+02  0.00000000000E+00  1.
       -6    2    1    2    0  501  4.36498793032E+02  4.19034481157E+00  1.47328574115E+02  4.91814333761E+02  1.72124591021E+02  0.00000000000E+00  1.
       24    2    1    2    0    0 -3.44377745029E+02 -1.00246697723E+02 -1.74592934174E+02  4.07222323356E+02  8.18651103973E+01  0.00000000000E+00  1.
       -5    1    4    4    0  501  3.63448156161E+02 -2.37556874066E+01  1.29191784399E+02  3.86486706831E+02  4.75000000000E+00  0.00000000000E+00  1.
      -24    2    4    4    0    0  7.30506368706E+01  2.79460322181E+01  1.81367897160E+01  1.05327626930E+02  6.81732322064E+01  0.00000000000E+00  1.
        3    1    7    7  704    0 -7.07169988843E+00 -1.22082800020E+01  1.68324122447E+00  1.42086009494E+01  1.63179621959E-06  0.00000000000E+00  1.
       -4    1    7    7    0  704  8.01223367590E+01  4.01543122202E+01  1.64535484915E+01  9.11190259801E+01  2.27436828951E-06  0.00000000000E+00  1.
      -13    1    5    5    0    0 -2.45111462179E+02 -1.08396368996E+02 -1.20096991918E+02  2.93688100431E+02  1.05659999883E-01  0.00000000000E+00  1.
       14    1    5    5    0    0 -9.92662828496E+01  8.14967127392E+00 -5.44959422561E+01  1.13534222924E+02  2.13248059988E-06  0.00000000000E+00  1.
</event>
<event>
11 116   1.0000000E+00   7.4550000E+01   7.8125000E-03   1.3429423E-01
       -5   -1    0    0    0  502  0.00000000000E+00  0.00000000000E+00  1.17882968278E+02  1.17882968278E+02  0.00000000000E+00  0.00000000000E+00  1.
       21   -1    0    0  502  501  0.00000000000E+00  0.00000000000E+00 -1.15512269307E+03  1.15512269307E+03  0.00000000000E+00  0.00000000000E+00  1.
       25    1    1    2    0    0 -8.52387627368E+00  3.67188792267E+00  3.71948495492E+01  1.30746304195E+02  1.25000000000E+02  0.00000000000E+00  1.
       -6    2    1    2    0  501  1.00721659856E+02  6.95367437249E+01 -8.56217504862E+02  8.81831607656E+02  1.71867266047E+02  0.00000000000E+00  1.
       24    2    1    2    0    0 -9.21977835822E+01 -7.32086316476E+01 -2.18217069477E+02  2.60427749494E+02  7.96491572496E+01  0.00000000000E+00  1.
       -5    1    4    4    0  501  8.83522123394E+01  8.36336457525E+01 -6.33100711427E+02  6.44701305596E+02  4.74999999998E+00  0.00000000000E+00  1.
      -24    2    4    4    0    0  1.23694475164E+01 -1.40969020276E+01 -2.23116793435E+02  2.37130302061E+02  7.80893767699E+01  0.00000000000E+00  1.
        3    1    7    7  704    0  1.54877032756E+01  2.33657523568E+01 -3.28484988167E+01  4.31839230555E+01  9.53674316406E-07  0.00000000000E+00  1.
       -4    1    7    7    0  704 -3.11825575920E+00 -3.74626543844E+01 -1.90268294618E+02  1.93946379005E+02  2.69739830470E-06  0.00000000000E+00  1.
       -1    1    5    5    0  703 -7.10994699464E+01 -6.27150009902E+01 -9.22700943157E+01  1.32295412925E+02  1.34869915235E-06  0.00000000000E+00  1.
        2    1    5    5  703    0 -2.10983136358E+01 -1.04936306574E+01 -1.25946975161E+02  1.28132336570E+02  1.34869915235E-06  0.00000000000E+00  1.
</event>
<event>
11 116   1.0000000E+00   7.4550000E+01   7.8125000E-03   1.3429423E-01
       -5   -1    0    0    0  502  0.00000000000E+00  0.00000000000E+00  1.62768825622E+02  1.62768825622E+02  0.00000000000E+00  0.00000000000E+00  1.
       21   -1    0    0  502  501  0.00000000000E+00  0.00000000000E+00 -7.40669236839E+02  7.40669236839E+02  0.00000000000E+00  0.00000000000E+00  1.
       25    1    1    2    0    0 -4.41293706022E+01  4.47747983555E+01  4.72273646407E+01  1.47673991916E+02  1.25000000000E+02  0.00000000000E+00  1.
       -6    2    1    2    0  501  1.51279076390E+02  5.13810518059E+01 -2.35830810959E+02  3.33532918154E+02  1.73501194973E+02  0.00000000000E+00  1.
       24    2    1    2    0    0 -1.07149705787E+02 -9.61558501614E+01 -3.89296964899E+02  4.22231152390E+02  7.74597456687E+01  0.00000000000E+00  1.
       -5    1    4    4    0  501  5.81887749797E+01 -4.11309626778E+01 -3.19356989539E+01  7.82313299907E+01  4.75000000000E+00  0.00000000000E+00  1.
      -24    2    4    4    0    0  9.30903014100E+01  9.25120144837E+01 -2.03895112005E+02  2.55301588164E+02  7.98837103484E+01  0.00000000000E+00  1.
        1    1    7    7  704    0  6.32504006997E+01  1.20940252009E+01 -6.13699746825E+01  8.89559015848E+01  2.13248059988E-06  0.00000000000E+00  1.
       -2    1    7    7    0  704  2.98399007103E+01  8.04179892827E+01 -1.42525137322E+02  1.66345686579E+02  0.00000000000E+00  0.00000000000E+00  1.
       -1    1    5    5    0  703 -4.45096601015E+01 -5.22807732741E+01 -8.93306546344E+01  1.12669228070E+02  2.33601545599E-06  0.00000000000E+00  1.
        2    1    5    5  703    0 -6.26400456860E+01 -4.38750768872E+01 -2.99966310264E+02  3.09561924320E+02  3.81469726562E-06  0.00000000000E+00  1.
</event>
<event>
11 116   1.0000000E+00   7.4550000E+01   7.8125000E-03   1.3429423E-01
       -5   -1    0    0    0  502  0.00000000000E+00  0.00000000000E+00  2.37032078755E+02  2.37032078755E+02  0.00000000000E+00  0.00000000000E+00  1.
       21   -1    0    0  502  501  0.00000000000E+00  0.00000000000E+00 -1.40062276228E+03  1.40062276228E+03  0.00000000000E+00  0.00000000000E+00  1.
       25    1    1    2    0    0 -4.59716371726E+01 -1.81151826835E+01  5.72662229515E+01  1.46102606271E+02  1.25000000000E+02  0.00000000000E+00  1.
       -6    2    1    2    0  501  2.69633465455E+02 -3.13623158201E+02 -6.08801842766E+02  7.55998183504E+02  1.72719074377E+02  0.00000000000E+00  1.
       24    2    1    2    0    0 -2.23661828283E+02  3.31738340884E+02 -6.12055063716E+02  7.35554051264E+02  7.97083500497E+01  0.00000000000E+00  1.
       -5    1    4    4    0  501  1.79207745585E+02 -1.60022038582E+02 -2.50327897800E+02  3.47000126551E+02  4.75000000000E+00  0.00000000000E+00  1.
      -24    2    4    4    0    0  9.04257198706E+01 -1.53601119619E+02 -3.58473944965E+02  4.08998056953E+02  8.37002186982E+01  0.00000000000E+00  1.
       11    1    7    7    0    0 -8.73977117758E+00 -4.24202403203E+01 -4.81348763289E+01  6.47520401881E+01  5.10986583659E-04  0.00000000000E+00  1.
      -12    1    7    7    0    0  9.91654910482E+01 -1.11180879299E+02 -3.10339068636E+02  3.44246016765E+02  5.39479660939E-06  0.00000000000E+00  1.
      -15    1    5    5    0    0 -8.72949749372E+01  8.55439133013E+01 -2.36793761524E+02  2.66481924841E+02  1.77679999999E+00  0.00000000000E+00  1.
       16    1    5    5    0    0 -1.36366853345E+02  2.46194427583E+02 -3.75261302192E+02  4.69072126423E+02  5.39479660939E-06  0.00000000000E+00  1.
</event>
<event>
11 116   1.0000000E+00   7.4550000E+01   7.8125000E-03   1.3429423E-01
       -5   -1    0    0    0  502  0.00000000000E+00  0.00000000000E+00  6.81708325154E+02  6.81708325154E+02  0.00000000000E+00  0.00000000000E+00  1.
       21   -1    0    0  502  501  0.00000000000E+00  0.00000000000E+00 -1.94667784603E+02  1.94667784603E+02  0.00000000000E+00  0.00000000000E+00  1.
       25    1    1    2    0    0 -9.51271112818E+01 -3.33690771295E+01  4.03749977247E+02  4.34513183616E+02  1.25000000000E+02  0.00000000000E+00  1.
       -6    2    1    2    0  501 -3.01866802748E+01 -1.01204093028E+02 -4.32648780994E+01  2.05819509503E+02  1.71278477058E+02  0.00000000000E+00  1.
       24    2    1    2    0    0  1.25313791557E+02  1.34573170158E+02  1.26555441403E+02  2.36043416638E+02  7.67250305238E+01  0.00000000000E+00  1.
       -5    1    4    4    0  501 -2.45973391859E+01 -7.23780683523E+01  4.03692982196E+01  8.65786152129E+01  4.75000000000E+00  0.00000000000E+00  1.
      -24    2    4    4    0    0 -5.58934108890E+00 -2.88260246761E+01 -8.36341763190E+01  1.19240894290E+02  7.97592313782E+01  0.00000000000E+00  1.
        3    1    7    7  704    0  2.33740041791E+01 -1.48707998946E+01 -8.25478052680E+01  8.70725267546E+01  1.90734863281E-06  0.00000000000E+00  1.
       -2    1    7    7    0  704 -2.89633452680E+01 -1.39552247816E+01 -1.08637105099E+00  3.21683675352E+01  1.75353177587E-06  0.00000000000E+00  1.
       -1    1    5    5    0  703  7.98138276542E+01  3.11984270071E+01  4.55136249682E+01  9.70313299418E+01  6.74349576174E-07  0.00000000000E+00  1.
        2    1    5    5  703    0  4.54999639024E+01  1.03374743151E+02  8.10418164348E+01  1.39012086696E+02  2.33601545599E-06  0.00000000000E+00  1.
</event>
<event>
11 116   1.0000000E+00   7.4550000E+01   7.8125000E-03   1.3429423E-01
       -5   -1    0    0    0  502  0.00000000000E+00  0.00000000000E+00  1.12542540092E+02  1.12542540092E+02  0.00000000000E+00  0.00000000000E+00  1.
       21   -1    0    0  502  501  0.00000000000E+00  0.00000000000E+00 -8.00688091349E+02  8.00688091349E+02  0.00000000000E+00  0.00000000000E+00  1.
       25    1    1    2    0    0 -1.01280296206E+02 -1.34663071623E+02 -1.81189254781E+02  2.77211809465E+02  1.25000000000E+02  0.00000000000E+00  1.
       -6    2    1    2    0  501 -1.33310397632E+01 -2.16230515856E+01 -2.32007944282E+02  2.89844204058E+02  1.71862454989E+02  0.00000000000E+00  1.
       24    2    1    2    0    0  1.14611335969E+02  1.56286123209E+02 -2.74948352194E+02  3.46174617918E+02  8.17261223624E+01  0.00000000000E+00  1.
       -5    1    4    4    0  501  4.33552706996E+01  1.26958422719E+01 -1.16246545906E+01  4.68887940000E+01  4.75000000000E+00  0.00000000000E+00  1.
      -24    2    4    4    0    0 -5.66863104628E+01 -3.43188938575E+01 -2.20383289691E+02  2.42955410058E+02  7.78935981421E+01  0.00000000000E+00  1.
        3    1    7    7  704    0  1.63216285608E+00  1.28043997944E+01 -1.02084774526E+02  1.02897608329E+02  2.69739830470E-06  0.00000000000E+00  1.
       -4    1    7    7    0  704 -5.83184733188E+01 -4.71232936518E+01 -1.18298515165E+02  1.40057801729E+02  2.33601545599E-06  0.00000000000E+00  1.
       -1    1    5    5    0  703  1.19824421150E+02  1.40310645953E+02 -2.12132008419E+02  2.81149352244E+02  4.67203091199E-06  0.00000000000E+00  1.
        2    1    5    5  703    0 -5.21308518097E+00  1.59754772558E+01 -6.28163437754E+01  6.50252656739E+01  3.30362473978E-06  0.00000000000E+00  1.
</event>
<event>
11 116   1.0000000E+00   7.4550000E+01   7.8125000E-03   1.3429423E-01
       -5   -1    0    0    0  502  0.00000000000E+00  0.00000000000E+00  3.83357664260E+02  3.83357664260E+02  0.00000000000E+00  0.00000000000E+00  1.
       21   -1    0    0  502  501  0.00000000000E+00  0.00000000000E+00 -1.76278768689E+02  1.76278768689E+02  0.00000000000E+00  0.00000000000E+00  1.
       25    1    1    2    0    0  1.55452751166E+01  3.11630587320E+01  1.81495910298E+02  2.23111087270E+02  1.25000000000E+02  0.00000000000E+00  1.
       -6    2    1    2    0  501 -5.08334008232E+01 -3.36671201918E+01 -8.35996410014E+01  2.02699267552E+02  1.74300268128E+02  0.00000000000E+00  1.
       24    2    1    2    0    0  3.52881257066E+01  2.50406145979E+00  1.09182626274E+02  1.33826078127E+02  6.88262389432E+01  0.00000000000E+00  1.
       -5    1    4    4    0  501 -4.10288634880E+01  5.16773643171E+01 -2.20707926456E+01  6.97395154119E+01  4.75000000000E+00  0.00000000000E+00  1.
      -24    2    4    4    0    0 -9.80453733521E+00 -8.53444845089E+01 -6.15288483558E+01  1.32959752140E+02  8.07012175914E+01  0.00000000000E+00  1.
        1    1    7    7  704    0  3.13093117453E+00 -4.30009567064E+01  1.40677757407E+01  4.53518171850E+01  1.01152436426E-06  0.00000000000E+00  1.
       -2    1    7    7    0  704 -1.29354685097E+01 -4.23435278025E+01 -7.55966240965E+01  8.76079349552E+01  9.53674316406E-07  0.00000000000E+00  1.
       -3    1    5    5    0  703  5.03340279942E+01 -7.23585201214E+00  4.74753760873E+01  6.95685508193E+01  1.34869915235E-06  0.00000000000E+00  1.
        4    1    5    5  703    0 -1.50459022876E+01  9.73991347192E+00  6.17072501871E+01  6.42575273080E+01  6.74349576174E-07  0.00000000000E+00  1.
</event>
<event>
11 116   1.0000000E+00   7.4550000E+01   7.8125000E-03   1.3429423E-01
       -5   -1    0    0    0  502  0.00000000000E+00  0.00000000000E+00  6.18507264701E+02  6.18507264701E+02  0.00000000000E+00  0.00000000000E+00  1.
       21   -1    0    0  502  501  0.00000000000E+00  0.00000000000E+00 -4.23415723010E+02  4.23415723010E+02  0.00000000000E+00  0.00000000000E+00  1.
       25    1    1    2    0    0  9.28987547195E-01 -7.38330555763E+01  5.86284311361E+01  1.56570993645E+02  1.25000000000E+02  0.00000000000E+00  1.
       -6    2    1    2    0  501  1.28624470227E+02 -3.30551683924E+02 -7.88800880865E+01  4.02422083667E+02  1.72953158516E+02  0.00000000000E+00  1.
       24    2    1    2    0    0 -1.29553457775E+02  4.04384739500E+02  2.15343198642E+02  4.82929910398E+02  8.08547413200E+01  0.00000000000E+00  1.
       -5    1    4    4    0  501  4.29421178777E+01 -1.15657358527E+02  3.96911231267E+01  1.29686536789E+02  4.75000000000E+00  0.00000000000E+00  1.
      -24    2    4    4    0    0  8.56823523497E+01 -2.14894325397E+02 -1.18571211213E+02  2.72735546879E+02  8.24894527237E+01  0.00000000000E+00  1.
        3    1    7    7  704    0 -6.91288294131E+00 -2.67145663948E+01  6.76365617252E+00  2.84113191007E+01  4.07845625748E-06  0.00000000000E+00  1.
       -4    1    7    7    0  704  9.25952352910E+01 -1.88179759002E+02 -1.25334867386E+02  2.44324227778E+02  4.04609745705E-06  0.00000000000E+00  1.
      -13    1    5    5    0    0 -2.37215747648E+01  2.05896535446E+02  9.92004043660E+01  2.29775603162E+02  1.05659999926E-01  0.00000000000E+00  1.
       14    1    5    5    0    0 -1.05831883010E+02  1.98488204053E+02  1.16142794276E+02  2.53154307236E+02  5.72204589844E-06  0.00000000000E+00  1.
</event>
<event>
11 116   1.0000000E+00   7.4550000E+01   7.8125000E-03   1.3429423E-01
       -5   -1    0    0    0  502  0.00000000000E+00  0.00000000000E+00  8.64040900691E+02  8.64040900691E+02  0.00000000000E+00  0.00000000000E+00  1.
       21   -1    0    0  502  501  0.00000000000E+00  0.00000000000E+00 -1.72750792906E+02  1.72750792906E+02  0.00000000000E+00  0.00000000000E+00  1.
       25    1    1    2    0    0  1.51279291904E+02  1.24907646348E+01  8.68355286771E+01  2.14957792138E+02  1.25000000000E+02  0.00000000000E+00  1.
       -6    2    1    2    0  501  6.50356462189E+01  2.35673162116E+01  1.47574506458E+01  1.87241550557E+02  1.73368284968E+02  0.00000000000E+00  1.
       24    2    1    2    0    0 -2.16314938123E+02 -3.60580808463E+01  5.89697128462E+02  6.34592350903E+02  8.29000051823E+01  0.00000000000E+00  1.
       -5    1    4    4    0  501  6.08713755853E+01 -2.93638956888E+01 -3.62482522314E+01  7.68378879557E+01  4.75000000000E+00  0.00000000000E+00  1.
      -24    2    4    4    0    0  4.16427063360E+00  5.29312119003E+01  5.10057028772E+01  1.10403662601E+02  8.22698769085E+01  0.00000000000E+00  1.
        3    1    7    7  704    0 -4.19396812952E+00  6.89618398290E+01  1.58683254181E+01  7.08881405656E+01  5.59141130426E-07  0.00000000000E+00  1.
       -4    1    7    7    0  704  8.35823876312E+00 -1.60306279287E+01  3.51373774592E+01  3.95155220352E+01  0.00000000000E+00  0.00000000000E+00  1.
      -11    1    5    5    0    0 -1.11069665031E+02 -3.47802850821E+01  4.11397012798E+02  4.27543729763E+02  5.10970119505E-04  0.00000000000E+00  1.
       12    1    5    5    0    0 -1.05245273092E+02 -1.27779576427E+00  1.78300115664E+02  2.07048621140E+02  5.04637014592E-06  0.00000000000E+00  1.
</event>
<event>
11 116   1.0000000E+00   7.4550000E+01   7.8125000E-03   1.3429423E-01
       -5   -1    0    0    0  502  0.00000000000E+00  0.00000000000E+00  1.25991771385E+02  1.25991771385E+02  0.00000000000E+00  0.00000000000E+00  1.
       21   -1    0    0  502  501  0.00000000000E+00  0.00000000000E+00 -1.05784504703E+03  1.05784504703E+03  0.00000000000E+00  0.00000000000E+00  1.
       25    1    1    2    0    0  1.04264019641E+02 -2.17586259319E+02 -4.55393280194E+02  5.30304446221E+02  1.25000000000E+02  0.00000000000E+00  1.
       -6    2    1    2    0  501  4.79574842874E+00  4.20705468092E+01 -8.30560977239E+01  1.99990250928E+02  1.76931780597E+02  0.00000000000E+00  1.
       24    2    1    2    0    0 -1.09059768070E+02  1.75515712509E+02 -3.93403897731E+02  4.53542121270E+02  9.07415597560E+01  0.00000000000E+00  1.
       -5    1    4    4    0  501  6.34911876868E+01  3.61067835108E+01 -6.32632228232E+01  9.67451734783E+01  4.75000000000E+00  0.00000000000E+00  1.
      -24    2    4    4    0    0 -5.86954392581E+01  5.96376329848E+00 -1.97928749007E+01  1.03245077450E+02  8.23836577140E+01  0.00000000000E+00  1.
       15    1    7    7    0    0 -2.65092226473E+01 -1.89043710568E+01 -4.48661230086E+01  5.54638633931E+01  1.77680000000E+00  0.00000000000E+00  1.
      -16    1    7    7    0    0 -3.21862166108E+01  2.48681343553E+01  2.50732481079E+01  4.77812140565E+01  4.76837158203E-07  0.00000000000E+00  1.
       -3    1    5    5    0  703 -1.19300841022E+02  1.65837928712E+02 -3.87913847511E+02  4.38419961178E+02  0.00000000000E+00  0.00000000000E+00  1.
        4    1    5    5  703    0  1.02410729523E+01  9.67778379703E+00 -5.49005021982E+00  1.51221600921E+01  3.58867483699E-06  0.00000000000E+00  1.
</event>
<event>
11 116   1.0000000E+00   7.4550000E+01   7.8125000E-03   1.3429423E-01
       -5   -1    0    0    0  502  0.00000000000E+00  0.00000000000E+00  1.25436194551E+02  1.25436194551E+02  0.00000000000E+00  0.00000000000E+00  1.
       21   -1    0    0  502  501  0.00000000000E+00  0.00000000000E+00 -1.97598749659E+03  1.97598749659E+03  0.00000000000E+00  0.00000000000E+00  1.
       25    1    1    2    0    0 -4.29262459767E+00 -1.88162069425E+01 -4.73049850677E+02  4.89666863791E+02  1.25000000000E+02  0.00000000000E+00  1.
       -6    2    1    2    0  501  5.52732722389E+01  2.13249497389E+01 -1.46859503476E+03  1.47995768541E+03  1.73186276465E+02  0.00000000000E+00  1.
       24    2    1    2    0    0 -5.09806476412E+01 -2.50874279636E+00  9.10935833976E+01  1.31799141947E+02  8.04217175724E+01  0.00000000000E+00  1.
       -5    1    4    4    0  501  1.72208470692E+01 -3.53469897296E+01 -9.06924416512E+02  9.07788756828E+02  4.75000000005E+00  0.00000000000E+00  1.
      -24    2    4    4    0    0  3.80524251697E+01  5.66719394685E+01 -5.61670618251E+02  5.72168928578E+02  8.51099502972E+01  0.00000000000E+00  1.
       15    1    7    7    0    0 -1.58355230692E+01 -2.99686389677E-01 -2.59477264659E+02  2.59966269920E+02  1.77680000000E+00  0.00000000000E+00  1.
      -16    1    7    7    0    0  5.38879482389E+01  5.69716258582E+01 -3.02193353592E+02  3.12202658659E+02  8.52992239952E-06  0.00000000000E+00  1.
       -3    1    5    5    0  703 -2.95411519703E+01  3.86864662819E+01  4.30921180874E+01  6.50096375499E+01  2.07848498513E-06  0.00000000000E+00  1.
        4    1    5    5  703    0 -2.14394956709E+01 -4.11952090783E+01  4.80014653102E+01  6.67895043966E+01  2.02304872852E-06  0.00000000000E+00  1.
</event>
<event>
11 116   1.0000000E+00   7.4550000E+01   7.8125000E-03   1.3429423E-01
       -5   -1    0    0    0  502  0.00000000000E+00  0.00000000000E+00  3.30350524114E+02  3.30350524114E+02  0.00000000000E+00  0.00000000000E+00  1.
       21   -1    0    0  502  501  0.00000000000E+00  0.00000000000E+00 -6.61910392077E+02  6.61910392077E+02  0.00000000000E+00  0.00000000000E+00  1.
       25    1    1    2    0    0 -2.46275942446E+02  1.81882738520E+02 -1.36354851783E+01  3.30974465564E+02  1.25000000000E+02  0.00000000000E+00  1.
       -6    2    1    2    0  501 -7.44749293226E+01 -2.81722155310E+01 -2.87516202526E+01  1.95441733168E+02  1.76155120763E+02  0.00000000000E+00  1.
       24    2    1    2    0    0  3.20750871769E+02 -1.53710522989E+02 -2.89172762532E+02  4.65844717460E+02  8.29600360234E+01  0.00000000000E+00  1.
       -5    1    4    4    0  501 -8.41516211636E+01 -2.34927490880E+01 -6.32354603260E+01  1.07956892077E+02  4.75000000000E+00  0.00000000000E+00  1.
      -24    2    4    4    0    0  9.67669184105E+00 -4.67946644306E+00  3.44838400734E+01  8.74848410917E+01  7.96801507495E+01  0.00000000000E+00  1.
        1    1    7    7  704    0 -3.17320802920E+01 -7.08892880518E+00  3.24796315750E+01  4.59576359108E+01  0.00000000000E+00  0.00000000000E+00  1.
       -2    1    7    7    0  704  4.14087721330E+01  2.40946236212E+00  2.00420849839E+00  4.15272051810E+01  7.00196035175E-07  0.00000000000E+00  1.
      -13    1    5    5    0    0 -5.46553355861E-01  1.14077196977E-01 -1.83631426113E+01  1.83719325270E+01  1.05659999969E-01  0.00000000000E+00  1.
       14    1    5    5    0    0  3.21297425125E+02 -1.53824600186E+02 -2.70809619921E+02  4.47472784933E+02  7.62939453125E-06  0.00000000000E+00  1.
</event>
<event>
11 116   1.0000000E+00   7.4550000E+01   7.8125000E-03   1.3429423E-01
       -5   -1    0    0    0  502  0.00000000000E+00  0.00000000000E+00  5.52769539068E+02  5.52769539068E+02  0.00000000000E+00  0.00000000000E+00  1.
       21   -1    0    0  502  501  0.00000000000E+00  0.00000000000E+00 -5.51782859743E+02  5.51782859743E+02  0.00000000000E+00  0.00000000000E+00  1.
       25    1    1    2    0    0  3.21510976219E+02 -1.63392571996E+02 -1.06209001157E+02  3.96196658668E+02  1.25000000000E+02  0.00000000000E+00  1.
       -6    2    1    2    0  501 -3.07396629126E+02 -1.27717017684E+02 -2.98119442887E+01  3.76294258003E+02  1.72928575949E+02  0.00000000000E+00  1.
       24    2    1    2    0    0 -1.41143470928E+01  2.91109589680E+02  1.37007624770E+02  3.32061482140E+02  8.09304063880E+01  0.00000000000E+00  1.
       -5    1    4    4    0  501 -1.08470204613E+02  1.37373338523E+01  3.00698344070E+01  1.13495625781E+02  4.75000000000E+00  0.00000000000E+00  1.
      -24    2    4    4    0    0 -1.98926424514E+02 -1.41454351536E+02 -5.98817786958E+01  2.62798632223E+02  7.67869633470E+01  0.00000000000E+00  1.
       15    1    7    7    0    0 -1.15655805573E+02 -8.83925500660E+01  3.22896003451E+00  1.45612813554E+02  1.77680000000E+00  0.00000000000E+00  1.
      -16    1    7    7    0    0 -8.32706189402E+01 -5.30618014703E+01 -6.31107387303E+01  1.17185818669E+02  6.74349576174E-07  0.00000000000E+00  1.
       -3    1    5    5    0  703  2.92127665724E+01  1.33315973926E+02  4.17584852998E+01  1.42724579976E+02  2.90048719897E-06  0.00000000000E+00  1.
        4    1    5    5  703    0 -4.33271136652E+01  1.57793615754E+02  9.52491394705E+01  1.89336902164E+02  2.33601545599E-06  0.00000000000E+00  1.
</event>
<event>
11 116   1.0000000E+00   7.4550000E+01   7.8125000E-03   1.3429423E-01
       -5   -1    0    0    0  502  0.00000000000E+00  0.00000000000E+00  3.48987130671E+02  3.48987130671E+02  0.00000000000E+00  0.00000000000E+00  1.
       21   -1    0    0  502  501  0.00000000000E+00  0.00000000000E+00 -1.16653320433E+03  1.16653320433E+03  0.00000000000E+00  0.00000000000E+00  1.
       25    1    1    2    0    0 -4.88537700023E+02  2.16916139113E+01 -3.58013891171E+02  6.18820294374E+02  1.25000000000E+02  0.00000000000E+00  1.
       -6    2    1    2    0  501  3.29694198620E+00  1.57094945177E+02 -2.20924236614E+02  3.21468886474E+02  1.72757156206E+02  0.00000000000E+00  1.
       24    2    1    2    0    0  4.85240758037E+02 -1.78786559089E+02 -2.38607945879E+02  5.75231154157E+02  8.08325547355E+01  0.00000000000E+00  1.
       -5    1    4    4    0  501  1.15320178023E+01  1.44908573132E+02 -1.98369446845E+02  2.45976588202E+02  4.75000000000E+00  0.00000000000E+00  1.
      -24    2    4    4    0    0 -8.23507581606E+00  1.21863720453E+01 -2.25547897688E+01  7.54922982717E+01  7.05269056425E+01  0.00000000000E+00  1.
       13    1    7    7    0    0 -1.95077350797E+01  3.60312676200E+01 -2.65397314464E+01  4.88177476286E+01  1.05659999997E-01  0.00000000000E+00  1.
      -14    1    7    7    0    0  1.12726592636E+01 -2.38448955746E+01  3.98494167765E+00  2.66745506431E+01  9.40545430068E-07  0.00000000000E+00  1.
       -3    1    5    5    0  703  3.99438414872E+02 -1.72410473454E+02 -1.78387398703E+02  4.70211104344E+02  3.81469726562E-06  0.00000000000E+00  1.
        4    1    5    5  703    0  8.58023431652E+01 -6.37608563484E+00 -6.02205471758E+01  1.05020049813E+02  3.37174788087E-06  0.00000000000E+00  1.
</event>
<event>
11 116   1.0000000E+00   7.4550000E+01   7.8125000E-03   1.3429423E-01
       -5   -1    0    0    0  502  0.00000000000E+00  0.00000000000E+00  2.27423535820E+02  2.27423535820E+02  0.00000000000E+00  0.00000000000E+00  1.
       21   -1    0    0  502  501  0.00000000000E+00  0.00000000000E+00 -1.61227301508E+03  1.61227301508E+03  0.00000000000E+00  0.00000000000E+00  1.
       25    1    1    2    0    0  5.17220844152E+01  2.33974340782E+02 -6.68444260841E+02  7.21014490847E+02  1.25000000000E+02  0.00000000000E+00  1.
       -6    2    1    2    0  501  2.03458409656E+02  1.59944905403E+02 -5.14519349574E+02  6.02099287328E+02  1.75543993036E+02  0.00000000000E+00  1.
       24    2    1    2    0    0 -2.55180494071E+02 -3.93919246186E+02 -2.01885868843E+02  5.16582772722E+02  7.62259795966E+01  0.00000000000E+00  1.
       -5    1    4    4    0  501  3.96358038772E+01  3.27653608682E+01 -1.28117890561E+01  5.32096820197E+01  4.75000000001E+00  0.00000000000E+00  1.
      -24    2    4    4    0    0  1.63822605778E+02  1.27179544535E+02 -5.01707560517E+02  5.48889605308E+02  8.09743158207E+01  0.00000000000E+00  1.
        1    1    7    7  704    0  9.10918610846E+01  1.13964172831E+02 -2.89683449879E+02  3.24348671924E+02  8.52992239952E-06  0.00000000000E+00  1.
       -2    1    7    7    0  704  7.27307446938E+01  1.32153717036E+01 -2.12024110639E+02  2.24540933384E+02  3.81469726562E-06  0.00000000000E+00  1.
       -3    1    5    5    0  703 -2.04716064163E+02 -2.63582051674E+02 -1.20390337769E+02  3.54792894967E+02  4.04609745705E-06  0.00000000000E+00  1.
        4    1    5    5  703    0 -5.04644299083E+01 -1.30337194511E+02 -8.14955310737E+01  1.61789877755E+02  4.15696997027E-06  0.00000000000E+00  1.
</event>
<event>
11 116   1.0000000E+00   7.4550000E+01   7.8125000E-03   1.3429423E-01
       -5   -1    0    0    0  502  0.00000000000E+00  0.00000000000E+00  1.67610735549E+02  1.67610735549E+02  0.00000000000E+00  0.00000000000E+00  1.
       21   -1    0    0  502  501  0.00000000000E+00  0.00000000000E+00 -8.53636655553E+02  8.53636655553E+02  0.00000000000E+00  0.00000000000E+00  1.
       25    1    1    2    0    0  3.08725458262E+01 -2.55926400487E+02 -3.55708592433E+02  4.56733006562E+02  1.25000000000E+02  0.00000000000E+00  1.
       -6    2    1    2    0  501  4.04052551608E+01  1.34140943177E+02 -3.23053208155E+01  2.25296164156E+02  1.73459939321E+02  0.00000000000E+00  1.
       24    2    1    2    0    0 -7.12778009870E+01  1.21785457310E+02 -2.98012006756E+02  3.39218220384E+02  7.96594146629E+01  0.00000000000E+00  1.
       -5    1    4    4    0  501  4.84270698973E+01  9.62867562792E+01 -7.12087995119E+01  1.29265525805E+02  4.75000000000E+00  0.00000000000E+00  1.
      -24    2    4    4    0    0 -8.02181473650E+00  3.78541868977E+01  3.89034786965E+01  9.60306383512E+01  7.88106202875E+01  0.00000000000E+00  1.
        3    1    7    7  704    0  2.39307588153E+01 -1.30910149636E+01  8.04497955926E+00  2.84390152144E+01  1.15577694354E-06  0.00000000000E+00  1.
       -4    1    7    7    0  704 -3.19525735518E+01  5.09452018612E+01  3.08584991372E+01  6.75916231368E+01  4.76837158203E-07  0.00000000000E+00  1.
      -13    1    5    5    0    0 -2.51689855067E+01  9.08871928872E+01 -1.19232626489E+02  1.52021018435E+02  1.05660000004E-01  0.00000000000E+00  1.
       14    1    5    5    0    0 -4.61088154803E+01  3.08982644227E+01 -1.78779380266E+02  1.87197201950E+02  3.30362473978E-06  0.00000000000E+00  1.
</event>
<event>
11 116   1.0000000E+00   7.4550000E+01   7.8125000E-03   1.3429423E-01
       -5   -1    0    0    0  502  0.00000000000E+00  0.00000000000E+00  4.51208640424E+02  4.51208640424E+02  0.00000000000E+00  0.00000000000E+00  1.
       21   -1    0    0  502  501  0.00000000000E+00  0.00000000000E+00 -1.55720140689E+02  1.55720140689E+02  0.00000000000E+00  0.00000000000E+00  1.
       25    1    1    2    0    0  8.66714859954E+00 -8.06733963832E+01  1.63495937114E+02  2.21222145821E+02  1.25000000000E+02  0.00000000000E+00  1.
       -6    2    1    2    0  501 -1.15151701150E+02  9.55267129592E+00  5.14069291966E+01  2.14395739547E+02  1.73123346085E+02  0.00000000000E+00  1.
       24    2    1    2    0    0  1.06484552551E+02  7.11207250873E+01  8.05856334243E+01  1.71310895745E+02  8.03508632049E+01  0.00000000000E+00  1.
       -5    1    4    4    0  501 -1.10147841765E+02  2.17127595043E+00  5.46429425143E+01  1.23067766500E+02  4.75000000000E+00  0.00000000000E+00  1.
      -24    2    4    4    0    0 -5.00385938550E+00  7.38139534549E+00 -3.23601331765E+00  9.13279730469E+01  9.08339323858E+01  0.00000000000E+00  1.
        3    1    7    7  704    0  3.54333486569E+01 -9.81291147604E+00  1.97523004321E+01  4.17368997535E+01  9.83024984745E-07  0.00000000000E+00  1.
       -4    1    7    7    0  704 -4.04372080424E+01  1.71943068215E+01 -2.29883137497E+01  4.95910732934E+01  7.53945746462E-07  0.00000000000E+00  1.
      -13    1    5    5    0    0  1.49700540664E+01  4.97584979433E+01  5.09522608424E+01  7.27746843711E+01  1.05660000006E-01  0.00000000000E+00  1.
       14    1    5    5    0    0  9.15144984842E+01  2.13622271440E+01  2.96333725819E+01  9.85362113741E+01  1.43051147461E-06  0.00000000000E+00  1.
</event>
</LesHouchesEvents>
