<LesHouchesEvents version="1.0">
<!--
Output from the JHUGenerator v7.5.1 described in arXiv:1001.3396 [hep-ph], arXiv:1208.4018 [hep-ph], arXiv:1309.4819 [hep-ph], arXiv:1606.03107 [hep-ph]
   
   Command line: ./JHUGen Seed=765543533 PDFSet=3 Process=115 VegasNc0=100000 VegasNc2=100 DataFile=compare_to_reference/tWH_115 TopDK=1 DecayMode1=11 DecayMode2=11 ghg2=0.383432074687728,0.918260989345657 ghg3=6294.49296087723,2253.12941717723 ghg4=0.335495485382528,0.17285803562226 ghz1=0.154934976270359,0.453918144016304 ghz2=0.469297059144414,0.745302300947002 ghz3=3947.40921062637,3597.4885961919 ghz4=0.177791270766536,0.920170534486048 ghzgs2=0.0240331049939919,0.232175381101053 ghzgs3=0.331962910170583,0.0450183240308457 ghzgs4=0.808286540247172,0.133184346613754 ghgsgs2=0.530394804029869,0.211218112389125 ghgsgs3=0.914978695198138,0.055650585081425 ghgsgs4=0.694524307167701,0.511424456076726 ghz1_prime=0.143354267833606,0.0910761280837012 ghz1_prime2=7416.7007267243,4861.35525489789 ghz1_prime3=4431.44656075298,4436.48625894176 ghz1_prime4=2441.69123517064,6946.16318931911 ghz1_prime5=78314042.889773,69465359.939181 ghz1_prime6=51233058.8130761,29537873.5850789 ghz1_prime7=47832192.9001564,5955
   
   Input Parameter:
    Collider: P-P, sqrt(s)=13000.00
    Resonance: spin=0, mass= 125.00 width=   0.00407
    DecayMode1:11
    W boson: mass=80.399, width=2.0850
    Top quark mass=173.2000, width=2.0000
    Top quark decay= 1
    Random seed:   765543533
    To reproduce results using this seed, JHUGen should be compiled with the same compiler:
      GNU Fortran (GCC) 6.3.0
    
    WidthScheme:   2
    PDFSet:   3
    Unweighted: T
    
    
    LHE output: compare_to_reference/tWH_115.lhe
    Histogram output: compare_to_reference/tWH_115.dat
    Log file: compare_to_reference/tWH_115.log
    
-->
<init>
2212 2212   6500.0000000000000000    6500.0000000000000000 0 0  263000  263000  3  1
 3.1816380E+01  1.8861787E-01  1.0000000E+00 115
</init>
<event>
11 115   1.0000000E+00   7.4550000E+01   7.8125000E-03   1.3429423E-01
       21   -1    0    0  501  502  0.00000000000E+00  0.00000000000E+00  3.85788218378E+02  3.85788218378E+02  0.00000000000E+00  0.00000000000E+00  1.
        5   -1    0    0  502    0  0.00000000000E+00  0.00000000000E+00 -3.08381947628E+02  3.08381947628E+02  0.00000000000E+00  0.00000000000E+00  1.
       25    1    1    2    0    0 -1.13719476050E+02  4.98781591488E+01  6.49044218308E+01  1.87769896326E+02  1.25000000000E+02  0.00000000000E+00  1.
        6    2    1    2  501    0  6.01749428184E+00  5.77072521897E+01  1.86593054623E+02  2.60801728180E+02  1.72725899029E+02  0.00000000000E+00  1.
      -24    2    1    2    0    0  1.07701981768E+02 -1.07585411339E+02 -1.74091205705E+02  2.45598541500E+02  8.26834812614E+01  0.00000000000E+00  1.
        5    1    4    4  501    0 -9.58751863450E+00  7.15393793615E+01  2.08408546381E+01  7.52775334017E+01  4.75000000000E+00  0.00000000000E+00  1.
       24    2    4    4    0    0  1.56050129163E+01 -1.38321271718E+01  1.65752199985E+02  1.85524194778E+02  8.06882325868E+01  0.00000000000E+00  1.
       -3    1    7    7    0  703  1.66751854399E+01  5.80207383167E+00 -9.35672045231E-01  1.76805359755E+01  7.23205411277E-07  0.00000000000E+00  1.
        4    1    7    7  703    0 -1.07017252357E+00 -1.96342010035E+01  1.66687872031E+02  1.67843658803E+02  1.90734863281E-06  0.00000000000E+00  1.
       11    1    5    5    0    0  9.91474318576E+01 -5.72810394783E+01 -8.38254954586E+01  1.41908577672E+02  5.11006606914E-04  0.00000000000E+00  1.
      -12    1    5    5    0    0  8.55454991029E+00 -5.03043718602E+01 -9.02657102464E+01  1.03689963828E+02  9.53674316406E-07  0.00000000000E+00  1.
</event>
<event>
11 115   1.0000000E+00   7.4550000E+01   7.8125000E-03   1.3429423E-01
       21   -1    0    0  501  502  0.00000000000E+00  0.00000000000E+00  2.10163361460E+02  2.10163361460E+02  0.00000000000E+00  0.00000000000E+00  1.
        5   -1    0    0  502    0  0.00000000000E+00  0.00000000000E+00 -8.74930603256E+02  8.74930603256E+02  0.00000000000E+00  0.00000000000E+00  1.
       25    1    1    2    0    0  5.35303836399E+01 -2.75742888462E+02 -8.63045126266E+01  3.19332289958E+02  1.25000000000E+02  0.00000000000E+00  1.
        6    2    1    2  501    0 -3.27593339843E+01  1.75839294966E+02 -5.85905255061E+02  6.36491361578E+02  1.72753158693E+02  0.00000000000E+00  1.
      -24    2    1    2    0    0 -2.07710496556E+01  9.99035934960E+01  7.44252589111E+00  1.29270313180E+02  7.90142909910E+01  0.00000000000E+00  1.
        5    1    4    4  501    0 -2.97921393056E+01  1.23566450850E+02 -4.65550575677E+02  4.82613862578E+02  4.74999999998E+00  0.00000000000E+00  1.
       24    2    4    4    0    0 -2.96719467872E+00  5.22728441159E+01 -1.20354679384E+02  1.53877498999E+02  8.03229815961E+01  0.00000000000E+00  1.
       -3    1    7    7    0  703 -2.61650325279E+01 -8.82351920146E+00 -5.45199319782E+01  6.11137169643E+01  1.16800772800E-06  0.00000000000E+00  1.
        4    1    7    7  703    0  2.31978378492E+01  6.10963633174E+01 -6.58347474057E+01  9.27637820351E+01  1.34869915235E-06  0.00000000000E+00  1.
       13    1    5    5    0    0 -1.83190582591E+01 -7.81195446659E+00  8.16551368202E+00  2.15244350870E+01  1.05660000009E-01  0.00000000000E+00  1.
      -14    1    5    5    0    0 -2.45199139651E+00  1.07715547963E+02 -7.22987790915E-01  1.07745878093E+02  1.66633363544E-06  0.00000000000E+00  1.
</event>
<event>
11 115   1.0000000E+00   7.4550000E+01   7.8125000E-03   1.3429423E-01
        5   -1    0    0  502    0  0.00000000000E+00  0.00000000000E+00  2.07112575431E+02  2.07112575431E+02  0.00000000000E+00  0.00000000000E+00  1.
       21   -1    0    0  501  502  0.00000000000E+00  0.00000000000E+00 -4.18432634658E+02  4.18432634658E+02  0.00000000000E+00  0.00000000000E+00  1.
       25    1    1    2    0    0  2.35992324310E+01  1.46384024803E+02 -6.86176962193E+01  2.05714838364E+02  1.25000000000E+02  0.00000000000E+00  1.
        6    2    1    2  501    0  5.73585058141E+01 -4.21741451500E+01 -1.83923705145E+02  2.61264710874E+02  1.71355370869E+02  0.00000000000E+00  1.
      -24    2    1    2    0    0 -8.09577382451E+01 -1.04209879653E+02  4.12213421371E+01  1.58565660851E+02  7.76531734992E+01  0.00000000000E+00  1.
        5    1    4    4  501    0 -8.98924318602E+00 -2.98118885215E+01 -1.45536633629E+02  1.48906109405E+02  4.75000000000E+00  0.00000000000E+00  1.
       24    2    4    4    0    0  6.63477490001E+01 -1.23622566285E+01 -3.83870715160E+01  1.12358601469E+02  8.12160013678E+01  0.00000000000E+00  1.
      -11    1    7    7    0    0  1.09604962228E+01 -2.33655227947E+01 -4.85483581459E+01  5.49820262617E+01  5.11002157370E-04  0.00000000000E+00  1.
       12    1    7    7    0    0  5.53872527774E+01  1.10032661662E+01  1.01612866299E+01  5.73765752073E+01  1.58597644516E-06  0.00000000000E+00  1.
        3    1    5    5  704    0 -4.37966942609E+01 -1.01478834275E+02  4.83319363384E+01  1.20632003649E+02  6.74349576174E-07  0.00000000000E+00  1.
       -4    1    5    5    0  704 -3.71610439842E+01 -2.73104537760E+00 -7.11059420137E+00  3.79336572024E+01  1.82938686052E-06  0.00000000000E+00  1.
</event>
<event>
11 115   1.0000000E+00   7.4550000E+01   7.8125000E-03   1.3429423E-01
        5   -1    0    0  502    0  0.00000000000E+00  0.00000000000E+00  1.65388046010E+02  1.65388046010E+02  0.00000000000E+00  0.00000000000E+00  1.
       21   -1    0    0  501  502  0.00000000000E+00  0.00000000000E+00 -1.37522202138E+03  1.37522202138E+03  0.00000000000E+00  0.00000000000E+00  1.
       25    1    1    2    0    0 -5.06653478587E+01  6.15296293237E+01 -4.09654604620E+02  4.35654413320E+02  1.25000000000E+02  0.00000000000E+00  1.
        6    2    1    2  501    0  1.81854749816E+02  2.71785921118E+02 -5.41084621446E+02  6.55734223542E+02  1.74000193708E+02  0.00000000000E+00  1.
      -24    2    1    2    0    0 -1.31189401957E+02 -3.33315550441E+02 -2.59094749300E+02  4.49221430525E+02  7.97489133209E+01  0.00000000000E+00  1.
        5    1    4    4  501    0  1.62586281079E+02  1.41942664906E+02 -2.98775466283E+02  3.68607325847E+02  4.75000000000E+00  0.00000000000E+00  1.
       24    2    4    4    0    0  1.92684687371E+01  1.29843256212E+02 -2.42309155163E+02  2.87126897695E+02  8.06075904164E+01  0.00000000000E+00  1.
      -11    1    7    7    0    0  2.53955285868E+01  6.30894107281E+01 -5.27633423545E+01  8.60765758781E+01  5.10998152747E-04  0.00000000000E+00  1.
       12    1    7    7    0    0 -6.12705984976E+00  6.67538454840E+01 -1.89545812809E+02  2.01050321817E+02  0.00000000000E+00  0.00000000000E+00  1.
        1    1    5    5  704    0 -7.16315922105E+01 -1.34033431888E+02 -6.69746201089E+01  1.66077227834E+02  0.00000000000E+00  0.00000000000E+00  1.
       -2    1    5    5    0  704 -5.95578097468E+01 -1.99282118553E+02 -1.92120129191E+02  2.83144202691E+02  3.81469726562E-06  0.00000000000E+00  1.
</event>
<event>
11 115   1.0000000E+00   7.4550000E+01   7.8125000E-03   1.3429423E-01
       21   -1    0    0  501  502  0.00000000000E+00  0.00000000000E+00  1.29862920051E+02  1.29862920051E+02  0.00000000000E+00  0.00000000000E+00  1.
        5   -1    0    0  502    0  0.00000000000E+00  0.00000000000E+00 -7.89264577712E+02  7.89264577712E+02  0.00000000000E+00  0.00000000000E+00  1.
       25    1    1    2    0    0  1.01104237986E+02 -8.42280748567E+01 -2.84569728319E+01  1.83715091475E+02  1.25000000000E+02  0.00000000000E+00  1.
        6    2    1    2  501    0  2.80618624543E+01  5.61606131156E+01 -1.78965737510E+02  2.57382686709E+02  1.73998935701E+02  0.00000000000E+00  1.
      -24    2    1    2    0    0 -1.29166100440E+02  2.80674617412E+01 -4.51978947320E+02  4.78029719579E+02  8.21935524799E+01  0.00000000000E+00  1.
        5    1    4    4  501    0  2.11008370272E+01  9.40096304937E+01 -7.66033873327E+01  1.23181562742E+02  4.75000000000E+00  0.00000000000E+00  1.
       24    2    4    4    0    0  6.96102542708E+00 -3.78490173781E+01 -1.02362350178E+02  1.34201123967E+02  7.77874472430E+01  0.00000000000E+00  1.
       -3    1    7    7    0  703  3.00416332776E+01  3.34964054293E+00 -1.25482155321E+01  3.27288486628E+01  1.30587233902E-06  0.00000000000E+00  1.
        4    1    7    7  703    0 -2.30806078505E+01 -4.11986579211E+01 -8.98141346456E+01  1.01472275304E+02  9.53674316406E-07  0.00000000000E+00  1.
        3    1    5    5  704    0 -3.24514012086E+01  2.15850612695E+01 -4.43834592406E+01  5.90669092180E+01  3.63148360532E-06  0.00000000000E+00  1.
       -4    1    5    5    0  704 -9.67146992317E+01  6.48240047171E+00 -4.07595488079E+02  4.18962810361E+02  5.39479660939E-06  0.00000000000E+00  1.
</event>
<event>
11 115   1.0000000E+00   7.4550000E+01   7.8125000E-03   1.3429423E-01
       21   -1    0    0  501  502  0.00000000000E+00  0.00000000000E+00  2.03883743713E+02  2.03883743713E+02  0.00000000000E+00  0.00000000000E+00  1.
        5   -1    0    0  502    0  0.00000000000E+00  0.00000000000E+00 -1.02823483191E+03  1.02823483191E+03  0.00000000000E+00  0.00000000000E+00  1.
       25    1    1    2    0    0 -2.59522449017E+02  1.11687065471E+02 -1.61121008479E+02  3.48440642737E+02  1.25000000000E+02  0.00000000000E+00  1.
        6    2    1    2  501    0  5.32266852156E+01 -9.77111645657E+01 -2.43300853887E+01  2.07605934656E+02  1.73573383183E+02  0.00000000000E+00  1.
      -24    2    1    2    0    0  2.06295763801E+02 -1.39759009054E+01 -6.38899994327E+02  6.76071998229E+02  7.82743640667E+01  0.00000000000E+00  1.
        5    1    4    4  501    0 -6.67500178519E+00 -1.02737453513E+02  5.76656871995E+00  1.03224782964E+02  4.75000000000E+00  0.00000000000E+00  1.
       24    2    4    4    0    0  5.99016870008E+01  5.02628894677E+00 -3.00966541086E+01  1.04381151692E+02  7.98507392200E+01  0.00000000000E+00  1.
      -15    1    7    7    0    0  3.55235970129E+01 -1.18083356921E+01 -5.44016793512E+01  6.60610510893E+01  1.77680000000E+00  0.00000000000E+00  1.
       16    1    7    7    0    0  2.43780899879E+01  1.68346246389E+01  2.43050252426E+01  3.83201006031E+01  5.84003863998E-07  0.00000000000E+00  1.
       11    1    5    5    0    0  8.92660153898E+01 -4.52570287895E+00 -1.62946825573E+02  1.85850938805E+02  5.11002157370E-04  0.00000000000E+00  1.
      -12    1    5    5    0    0  1.17029748412E+02 -9.45019802649E+00 -4.75953168753E+02  4.90221059424E+02  7.62939453125E-06  0.00000000000E+00  1.
</event>
<event>
11 115   1.0000000E+00   7.4550000E+01   7.8125000E-03   1.3429423E-01
        5   -1    0    0  502    0  0.00000000000E+00  0.00000000000E+00  4.59685648372E+02  4.59685648372E+02  0.00000000000E+00  0.00000000000E+00  1.
       21   -1    0    0  501  502  0.00000000000E+00  0.00000000000E+00 -1.79063103207E+02  1.79063103207E+02  0.00000000000E+00  0.00000000000E+00  1.
       25    1    1    2    0    0 -6.95117510639E+00 -1.10883407581E+02  2.02010623826E+02  2.62253200268E+02  1.25000000000E+02  0.00000000000E+00  1.
        6    2    1    2  501    0  1.03480960784E+02  3.21019748593E+01  9.56681022044E+01  2.25096124983E+02  1.72560232001E+02  0.00000000000E+00  1.
      -24    2    1    2    0    0 -9.65297856778E+01  7.87814327221E+01 -1.70561808658E+01  1.51399426328E+02  8.42992249194E+01  0.00000000000E+00  1.
        5    1    4    4  501    0  1.19376880480E+02  1.28534501402E+01  4.81706968563E+01  1.29456669620E+02  4.75000000000E+00  0.00000000000E+00  1.
       24    2    4    4    0    0 -1.58959196955E+01  1.92485247191E+01  4.74974053481E+01  9.56394553624E+01  7.91689076619E+01  0.00000000000E+00  1.
       -1    1    7    7    0  703  9.42559470570E+00 -1.73861236314E+01 -1.05990188317E+01  2.24378771429E+01  6.84805231874E-07  0.00000000000E+00  1.
        2    1    7    7  703    0 -2.53215144012E+01  3.66346483505E+01  5.80964241798E+01  7.32015782195E+01  1.16800772800E-06  0.00000000000E+00  1.
        1    1    5    5  704    0 -1.79773241996E+00  4.99394085956E+01  4.09881542778E+00  5.01395718036E+01  6.95103632789E-07  0.00000000000E+00  1.
       -2    1    5    5    0  704 -9.47320532579E+01  2.88420241265E+01 -2.11549962935E+01  1.01259854525E+02  1.41050333574E-06  0.00000000000E+00  1.
</event>
<event>
11 115   1.0000000E+00   7.4550000E+01   7.8125000E-03   1.3429423E-01
       21   -1    0    0  501  502  0.00000000000E+00  0.00000000000E+00  6.23988998966E+02  6.23988998966E+02  0.00000000000E+00  0.00000000000E+00  1.
        5   -1    0    0  502    0  0.00000000000E+00  0.00000000000E+00 -8.93913332951E+01  8.93913332951E+01  0.00000000000E+00  0.00000000000E+00  1.
       25    1    1    2    0    0 -4.40354850966E+00  1.27226438838E+01  5.40035623468E+01  1.36830704350E+02  1.25000000000E+02  0.00000000000E+00  1.
        6    2    1    2  501    0 -8.05273518098E+01  2.17481769929E-01  3.63855929272E+02  4.11028254046E+02  1.73402383692E+02  0.00000000000E+00  1.
      -24    2    1    2    0    0  8.49309003194E+01 -1.29401256538E+01  1.16738174052E+02  1.65521373864E+02  7.99300897280E+01  0.00000000000E+00  1.
        5    1    4    4  501    0 -1.89551500245E+00  1.50442493539E+01  2.53890748957E+02  2.54387494428E+02  4.75000000000E+00  0.00000000000E+00  1.
       24    2    4    4    0    0 -7.86318368073E+01 -1.48267675840E+01  1.09965180315E+02  1.56640759618E+02  7.77250789334E+01  0.00000000000E+00  1.
       -3    1    7    7    0  703 -2.00474184787E+01  1.07168039411E+01 -6.62910630119E+00  2.36789764290E+01  9.75770088657E-07  0.00000000000E+00  1.
        4    1    7    7  703    0 -5.85844183286E+01 -2.55435715251E+01  1.16594286616E+02  1.32961783189E+02  1.90734863281E-06  0.00000000000E+00  1.
       15    1    5    5    0    0 -1.15025287622E+01 -1.65627702534E+01  2.69772618512E+01  3.37277808583E+01  1.77680000000E+00  0.00000000000E+00  1.
      -16    1    5    5    0    0  9.64334290816E+01  3.62264459967E+00  8.97609122007E+01  1.31793593006E+02  1.34869915235E-06  0.00000000000E+00  1.
</event>
<event>
11 115   1.0000000E+00   7.4550000E+01   7.8125000E-03   1.3429423E-01
       21   -1    0    0  501  502  0.00000000000E+00  0.00000000000E+00  2.58612435355E+02  2.58612435355E+02  0.00000000000E+00  0.00000000000E+00  1.
        5   -1    0    0  502    0  0.00000000000E+00  0.00000000000E+00 -1.18612107808E+03  1.18612107808E+03  0.00000000000E+00  0.00000000000E+00  1.
       25    1    1    2    0    0 -9.84674474874E+01  3.41738631050E+02 -5.04277087108E+02  6.29604249310E+02  1.25000000000E+02  0.00000000000E+00  1.
        6    2    1    2  501    0 -1.58387570762E+02 -2.32084001382E+02 -4.08629275653E+02  5.25328066871E+02  1.73326531877E+02  0.00000000000E+00  1.
      -24    2    1    2    0    0  2.56855018249E+02 -1.09654629668E+02 -1.46022799688E+01  2.89801197259E+02  7.59793994769E+01  0.00000000000E+00  1.
        5    1    4    4  501    0 -8.65775191303E+01 -2.13022545360E+01 -7.60308520051E+01  1.17271931099E+02  4.75000000000E+00  0.00000000000E+00  1.
       24    2    4    4    0    0 -7.18100516317E+01 -2.10781746846E+02 -3.32598423647E+02  4.08056135772E+02  7.93880986639E+01  0.00000000000E+00  1.
      -15    1    7    7    0    0 -2.45562928684E+01 -1.58138010461E+02 -1.86668777788E+02  2.45884183084E+02  1.77680000001E+00  0.00000000000E+00  1.
       16    1    7    7    0    0 -4.72537587634E+01 -5.26437363858E+01 -1.45929645859E+02  1.62171952688E+02  0.00000000000E+00  0.00000000000E+00  1.
        3    1    5    5  704    0  4.39213079195E+00 -1.88162166005E+01 -9.29335175251E+00  2.14407837274E+01  4.63998328591E-06  0.00000000000E+00  1.
       -4    1    5    5    0  704  2.52462887457E+02 -9.08384130676E+01 -5.30892821629E+00  2.68360413532E+02  4.62771628947E-06  0.00000000000E+00  1.
</event>
<event>
11 115   1.0000000E+00   7.4550000E+01   7.8125000E-03   1.3429423E-01
       21   -1    0    0  501  502  0.00000000000E+00  0.00000000000E+00  1.43758589543E+03  1.43758589543E+03  0.00000000000E+00  0.00000000000E+00  1.
        5   -1    0    0  502    0  0.00000000000E+00  0.00000000000E+00 -1.17527626831E+02  1.17527626831E+02  0.00000000000E+00  0.00000000000E+00  1.
       25    1    1    2    0    0  2.12302747054E+02  1.80112436387E+01  3.34245783230E+02  4.15622551013E+02  1.25000000000E+02  0.00000000000E+00  1.
        6    2    1    2  501    0  7.85974745824E+00 -9.52253088509E+01  8.15604491758E+02  8.39413830479E+02  1.73997864206E+02  0.00000000000E+00  1.
      -24    2    1    2    0    0 -2.20162494512E+02  7.72140652122E+01  1.70207993608E+02  3.00077140765E+02  8.14984261537E+01  0.00000000000E+00  1.
        5    1    4    4  501    0  1.89549242272E+01 -4.78587985714E+01  6.30440495151E+02  6.32556348620E+02  4.74999999999E+00  0.00000000000E+00  1.
       24    2    4    4    0    0 -1.10951767690E+01 -4.73665102795E+01  1.85163996606E+02  2.06857481859E+02  7.83429825711E+01  0.00000000000E+00  1.
      -15    1    7    7    0    0 -9.23133142745E+00 -6.74094834038E+01  1.64429266449E+02  1.77958974530E+02  1.77680000000E+00  0.00000000000E+00  1.
       16    1    7    7    0    0 -1.86384534153E+00  2.00429731244E+01  2.07347301579E+01  2.88985073289E+01  2.27436828951E-06  0.00000000000E+00  1.
        1    1    5    5  704    0 -4.34609522414E+01  5.32798948751E+01  4.43743116430E+01  8.18332518077E+01  1.43051147461E-06  0.00000000000E+00  1.
       -2    1    5    5    0  704 -1.76701542270E+02  2.39341703372E+01  1.25833681965E+02  2.18243888957E+02  4.47312904341E-06  0.00000000000E+00  1.
</event>
<event>
11 115   1.0000000E+00   7.4550000E+01   7.8125000E-03   1.3429423E-01
       21   -1    0    0  501  502  0.00000000000E+00  0.00000000000E+00  1.94871198927E+03  1.94871198927E+03  0.00000000000E+00  0.00000000000E+00  1.
        5   -1    0    0  502    0  0.00000000000E+00  0.00000000000E+00 -9.56546502240E+01  9.56546502240E+01  0.00000000000E+00  0.00000000000E+00  1.
       25    1    1    2    0    0  8.28350077964E+01 -7.95857352667E+01  8.59787256229E+01  1.90296791971E+02  1.25000000000E+02  0.00000000000E+00  1.
        6    2    1    2  501    0  1.42410508654E+02  7.25325225064E+01  1.36856426252E+03  1.38886503148E+03  1.74459781079E+02  0.00000000000E+00  1.
      -24    2    1    2    0    0 -2.25245516450E+02  7.05321276032E+00  3.98514350904E+02  4.65204816048E+02  8.25623552652E+01  0.00000000000E+00  1.
        5    1    4    4  501    0  1.20386491182E+02  7.88194585518E+01  6.72477113276E+02  6.87716107624E+02  4.74999999999E+00  0.00000000000E+00  1.
       24    2    4    4    0    0  2.20240174716E+01 -6.28693604541E+00  6.96087149247E+02  7.01148923855E+02  8.09191643916E+01  0.00000000000E+00  1.
       -1    1    7    7    0  703  2.75488664058E+01 -3.43324256650E+01  2.29271626625E+02  2.33459063366E+02  5.39479660939E-06  0.00000000000E+00  1.
        2    1    7    7  703    0 -5.52484893416E+00  2.80454896196E+01  4.66815522622E+02  4.67689860490E+02  5.39479660939E-06  0.00000000000E+00  1.
        3    1    5    5  704    0 -1.97459034179E+02 -1.87613226734E+01  2.99997935710E+02  3.59639846009E+02  3.81469726562E-06  0.00000000000E+00  1.
       -4    1    5    5    0  704 -2.77864822716E+01  2.58145354337E+01  9.85164151945E+01  1.05564970040E+02  2.69739830470E-06  0.00000000000E+00  1.
</event>
<event>
11 115   1.0000000E+00   7.4550000E+01   7.8125000E-03   1.3429423E-01
        5   -1    0    0  502    0  0.00000000000E+00  0.00000000000E+00  5.68410201895E+02  5.68410201895E+02  0.00000000000E+00  0.00000000000E+00  1.
       21   -1    0    0  501  502  0.00000000000E+00  0.00000000000E+00 -4.19266113125E+02  4.19266113125E+02  0.00000000000E+00  0.00000000000E+00  1.
       25    1    1    2    0    0  1.77501685888E+02  2.29802186091E+02  1.56834479927E+02  3.52899344458E+02  1.25000000000E+02  0.00000000000E+00  1.
        6    2    1    2  501    0  7.10701639770E+01 -6.50994080790E+01 -1.90779029430E+02  2.75363171983E+02  1.73606846853E+02  0.00000000000E+00  1.
      -24    2    1    2    0    0 -2.48571849865E+02 -1.64702778012E+02  1.83088638273E+02  3.59413798579E+02  8.21088272614E+01  0.00000000000E+00  1.
        5    1    4    4  501    0  1.37503185852E+01  2.59726559375E+00  2.37429540228E+01  2.79661834272E+01  4.75000000000E+00  0.00000000000E+00  1.
       24    2    4    4    0    0  5.73198453918E+01 -6.76966736728E+01 -2.14521983453E+02  2.47396988556E+02  8.55405416141E+01  0.00000000000E+00  1.
       -3    1    7    7    0  703  2.34761620126E+00  1.00273353270E+01  2.33852638008E+00  1.05606562873E+01  2.42774627857E-06  0.00000000000E+00  1.
        2    1    7    7  703    0  5.49722291906E+01 -7.77240089998E+01 -2.16860509833E+02  2.36836332268E+02  2.69739830470E-06  0.00000000000E+00  1.
       15    1    5    5    0    0 -2.14319169173E+02 -1.42802096216E+02  1.87432527625E+02  3.18526693369E+02  1.77679999999E+00  0.00000000000E+00  1.
      -16    1    5    5    0    0 -3.42526806925E+01 -2.19006817957E+01 -4.34388935213E+00  4.08871052099E+01  4.87775804104E-06  0.00000000000E+00  1.
</event>
<event>
11 115   1.0000000E+00   7.4550000E+01   7.8125000E-03   1.3429423E-01
        5   -1    0    0  502    0  0.00000000000E+00  0.00000000000E+00  1.02286360312E+02  1.02286360312E+02  0.00000000000E+00  0.00000000000E+00  1.
       21   -1    0    0  501  502  0.00000000000E+00  0.00000000000E+00 -7.40013804453E+02  7.40013804453E+02  0.00000000000E+00  0.00000000000E+00  1.
       25    1    1    2    0    0 -6.10227073149E+01  1.13353742963E+02 -2.93482553423E+02  3.43991062406E+02  1.25000000000E+02  0.00000000000E+00  1.
        6    2    1    2  501    0 -1.62215272892E+01  1.84433610548E+01 -1.30163485707E+02  2.23580324186E+02  1.80117552829E+02  0.00000000000E+00  1.
      -24    2    1    2    0    0  7.72442346041E+01 -1.31797104018E+02 -2.14081405011E+02  2.74728778173E+02  7.94223216605E+01  0.00000000000E+00  1.
        5    1    4    4  501    0  4.79788038225E+01 -5.26983613507E+00 -1.04510457783E+02  1.15216036537E+02  4.75000000000E+00  0.00000000000E+00  1.
       24    2    4    4    0    0 -6.42003311118E+01  2.37131971899E+01 -2.56530279236E+01  1.08364287649E+02  8.00046421170E+01  0.00000000000E+00  1.
       -3    1    7    7    0  703  4.30215482310E+00  2.48938183853E+01  1.43240937831E+01  2.90411844220E+01  6.30796268240E-07  0.00000000000E+00  1.
        4    1    7    7  703    0 -6.85024859349E+01 -1.18062119547E+00 -3.99771217067E+01  7.93231032274E+01  1.34869915235E-06  0.00000000000E+00  1.
       11    1    5    5    0    0  3.29700899004E+01 -2.63933929099E+01 -1.43722401407E+01  4.46116498716E+01  5.10982078318E-04  0.00000000000E+00  1.
      -12    1    5    5    0    0  4.42741447037E+01 -1.05403711108E+02 -1.99709164870E+02  2.30117128301E+02  0.00000000000E+00  0.00000000000E+00  1.
</event>
<event>
11 115   1.0000000E+00   7.4550000E+01   7.8125000E-03   1.3429423E-01
        5   -1    0    0  502    0  0.00000000000E+00  0.00000000000E+00  1.08693151744E+03  1.08693151744E+03  0.00000000000E+00  0.00000000000E+00  1.
       21   -1    0    0  501  502  0.00000000000E+00  0.00000000000E+00 -6.41388175149E+02  6.41388175149E+02  0.00000000000E+00  0.00000000000E+00  1.
       25    1    1    2    0    0 -4.73855311187E+02  2.48890887491E+02  7.85202502164E+02  9.58464135595E+02  1.25000000000E+02  0.00000000000E+00  1.
        6    2    1    2  501    0  2.31907180876E+02 -6.12331735281E+01 -3.43669209767E+02  4.53732065470E+02  1.73878749168E+02  0.00000000000E+00  1.
      -24    2    1    2    0    0  2.41948130311E+02 -1.87657713963E+02  4.01004989290E+00  3.16123491524E+02  7.85090187323E+01  0.00000000000E+00  1.
        5    1    4    4  501    0 -1.46871400481E+01 -2.61698066697E+01 -6.43553146885E+01  7.11669859737E+01  4.75000000000E+00  0.00000000000E+00  1.
       24    2    4    4    0    0  2.46594320924E+02 -3.50633668584E+01 -2.79313895078E+02  3.82565079496E+02  7.93825500922E+01  0.00000000000E+00  1.
      -15    1    7    7    0    0  9.66087647499E+01 -4.21865969327E+01 -7.67148343103E+01  1.30388976562E+02  1.77680000000E+00  0.00000000000E+00  1.
       16    1    7    7    0    0  1.49985556174E+02  7.12323007425E+00 -2.02599060768E+02  2.52176102935E+02  2.69739830470E-06  0.00000000000E+00  1.
        1    1    5    5  704    0  1.92007910235E+02 -1.13746439559E+02 -1.90707216618E+01  2.23984335456E+02  4.08802704799E-06  0.00000000000E+00  1.
       -2    1    5    5    0  704  4.99402200763E+01 -7.39112744045E+01  2.30807715547E+01  9.21391560680E+01  2.05095416714E-06  0.00000000000E+00  1.
</event>
<event>
11 115   1.0000000E+00   7.4550000E+01   7.8125000E-03   1.3429423E-01
        5   -1    0    0  502    0  0.00000000000E+00  0.00000000000E+00  4.56953772317E+02  4.56953772317E+02  0.00000000000E+00  0.00000000000E+00  1.
       21   -1    0    0  501  502  0.00000000000E+00  0.00000000000E+00 -6.68487890888E+02  6.68487890888E+02  0.00000000000E+00  0.00000000000E+00  1.
       25    1    1    2    0    0 -1.73963937005E+02  9.55015280945E+01 -2.38185931203E+02  3.34277625739E+02  1.25000000000E+02  0.00000000000E+00  1.
        6    2    1    2  501    0 -9.64458810522E+01 -4.22520510007E+01 -2.94827684615E+02  3.58526694994E+02  1.74731175301E+02  0.00000000000E+00  1.
      -24    2    1    2    0    0  2.70409818057E+02 -5.32494770938E+01  3.21479497247E+02  4.32637342473E+02  8.87075331589E+01  0.00000000000E+00  1.
        5    1    4    4  501    0 -7.76241957122E+01  3.33110631503E+01 -8.02979007769E+01  1.16642436777E+02  4.75000000000E+00  0.00000000000E+00  1.
       24    2    4    4    0    0 -1.88216853401E+01 -7.55631141509E+01 -2.14529783838E+02  2.41884258216E+02  8.01306817644E+01  0.00000000000E+00  1.
       -3    1    7    7    0  703 -2.36458580881E+00  9.63669870396E+00  5.71923480798E-01  9.93903035643E+00  3.69913635877E-06  0.00000000000E+00  1.
        4    1    7    7  703    0 -1.64570995313E+01 -8.51998128549E+01 -2.15101707319E+02  2.31945227860E+02  3.81469726562E-06  0.00000000000E+00  1.
        1    1    5    5  704    0  1.90512004940E+02 -3.23248673816E+01  1.58496024610E+02  2.49921409436E+02  3.81469726562E-06  0.00000000000E+00  1.
       -2    1    5    5    0  704  7.98978131178E+01 -2.09246097122E+01  1.62983472638E+02  1.82715933037E+02  2.69739830470E-06  0.00000000000E+00  1.
</event>
<event>
11 115   1.0000000E+00   7.4550000E+01   7.8125000E-03   1.3429423E-01
        5   -1    0    0  502    0  0.00000000000E+00  0.00000000000E+00  1.96984187638E+02  1.96984187638E+02  0.00000000000E+00  0.00000000000E+00  1.
       21   -1    0    0  501  502  0.00000000000E+00  0.00000000000E+00 -9.17430553866E+02  9.17430553866E+02  0.00000000000E+00  0.00000000000E+00  1.
       25    1    1    2    0    0  5.54782620109E+00 -2.20094648312E+02  1.66238801695E+01  2.53719896703E+02  1.25000000000E+02  0.00000000000E+00  1.
        6    2    1    2  501    0 -1.53438295441E+01  1.66124701792E+02 -1.92267042651E+02  3.07377475398E+02  1.72283043397E+02  0.00000000000E+00  1.
      -24    2    1    2    0    0  9.79600334304E+00  5.39699465208E+01 -5.44803203747E+02  5.53317369402E+02  7.96295401212E+01  0.00000000000E+00  1.
        5    1    4    4  501    0  5.27186864796E+01  1.36711710413E+01 -4.48610857851E+01  7.07194481002E+01  4.75000000000E+00  0.00000000000E+00  1.
       24    2    4    4    0    0 -6.80625160237E+01  1.52453530750E+02 -1.47405956866E+02  2.36658027298E+02  8.00245002444E+01  0.00000000000E+00  1.
       -3    1    7    7    0  703 -8.23244302064E+00  2.47595889827E+01  7.53019444663E+00  2.71572125426E+01  1.94058663799E-06  0.00000000000E+00  1.
        4    1    7    7  703    0 -5.98300730031E+01  1.27693941768E+02 -1.54936151312E+02  2.09500814755E+02  1.90734863281E-06  0.00000000000E+00  1.
        1    1    5    5  704    0 -3.46544100006E+00 -2.32294357665E-01  1.77338008035E+00  3.89975882624E+00  8.03082734020E-06  0.00000000000E+00  1.
       -2    1    5    5    0  704  1.32614443431E+01  5.42022408785E+01 -5.46576583828E+02  5.49417610576E+02  7.62939453125E-06  0.00000000000E+00  1.
</event>
<event>
11 115   1.0000000E+00   7.4550000E+01   7.8125000E-03   1.3429423E-01
       21   -1    0    0  501  502  0.00000000000E+00  0.00000000000E+00  1.22130970094E+03  1.22130970094E+03  0.00000000000E+00  0.00000000000E+00  1.
        5   -1    0    0  502    0  0.00000000000E+00  0.00000000000E+00 -2.38014816693E+02  2.38014816693E+02  0.00000000000E+00  0.00000000000E+00  1.
       25    1    1    2    0    0  1.57046005887E+02 -1.66210292440E+02 -1.36005617648E+00  2.60607288905E+02  1.25000000000E+02  0.00000000000E+00  1.
        6    2    1    2  501    0  1.69828966440E+02 -3.55998127808E+01  6.04789532685E+02  6.52977152563E+02  1.74641227698E+02  0.00000000000E+00  1.
      -24    2    1    2    0    0 -3.26874972326E+02  2.01810105220E+02  3.79865407736E+02  5.45740076162E+02  7.72006258542E+01  0.00000000000E+00  1.
        5    1    4    4  501    0  8.87412982281E+01 -7.62119700001E+01  3.78281116405E+02  3.95982888407E+02  4.75000000001E+00  0.00000000000E+00  1.
       24    2    4    4    0    0  8.10876682116E+01  4.06121572193E+01  2.26508416280E+02  2.56994264156E+02  8.07182254104E+01  0.00000000000E+00  1.
       -3    1    7    7    0  703  9.22567301584E+01  4.41047222874E+01  2.22062975195E+02  2.44475961477E+02  0.00000000000E+00  0.00000000000E+00  1.
        4    1    7    7  703    0 -1.11690619468E+01 -3.49256506811E+00  4.44544108498E+00  1.25183026791E+01  7.49218767284E-07  0.00000000000E+00  1.
        3    1    5    5  704    0 -1.44188992606E+02  7.43332863288E+01  1.10918396596E+02  1.96516650054E+02  3.56832255056E-06  0.00000000000E+00  1.
       -4    1    5    5    0  704 -1.82685979721E+02  1.27476818892E+02  2.68947011140E+02  3.49223426108E+02  3.81469726562E-06  0.00000000000E+00  1.
</event>
<event>
11 115   1.0000000E+00   7.4550000E+01   7.8125000E-03   1.3429423E-01
       21   -1    0    0  501  502  0.00000000000E+00  0.00000000000E+00  5.99139278613E+02  5.99139278613E+02  0.00000000000E+00  0.00000000000E+00  1.
        5   -1    0    0  502    0  0.00000000000E+00  0.00000000000E+00 -9.38930900870E+01  9.38930900870E+01  0.00000000000E+00  0.00000000000E+00  1.
       25    1    1    2    0    0 -5.36366414256E+01 -3.17364532949E+01  2.71827357163E+02  3.05612833293E+02  1.25000000000E+02  0.00000000000E+00  1.
        6    2    1    2  501    0  3.32480406542E+01  3.99685585456E+01  2.46491056365E+02  3.04425144200E+02  1.70920770164E+02  0.00000000000E+00  1.
      -24    2    1    2    0    0  2.03886007714E+01 -8.23210525061E+00 -1.30722250025E+01  8.29943912071E+01  7.89539315490E+01  0.00000000000E+00  1.
        5    1    4    4  501    0  2.88357372291E+01 -2.26763157931E+01  1.77208513376E+02  1.81027994389E+02  4.75000000000E+00  0.00000000000E+00  1.
       24    2    4    4    0    0  4.41230342513E+00  6.26448743386E+01  6.92825429891E+01  1.23397149811E+02  8.05166884316E+01  0.00000000000E+00  1.
       -3    1    7    7    0  703  3.20697448514E+01  4.81902152520E+01  7.16374452429E+01  9.21015143295E+01  1.34869915235E-06  0.00000000000E+00  1.
        4    1    7    7  703    0 -2.76574414262E+01  1.44546590867E+01 -2.35490225374E+00  3.12956354814E+01  9.07870901330E-07  0.00000000000E+00  1.
        3    1    5    5  704    0  1.71097381015E+01 -4.24568566646E+01  1.14572494598E+00  4.57890871430E+01  7.00988381287E-07  0.00000000000E+00  1.
       -4    1    5    5    0  704  3.27886266989E+00  3.42247514140E+01 -1.42179499485E+01  3.72053040640E+01  9.83024984745E-07  0.00000000000E+00  1.
</event>
<event>
11 115   1.0000000E+00   7.4550000E+01   7.8125000E-03   1.3429423E-01
        5   -1    0    0  502    0  0.00000000000E+00  0.00000000000E+00  1.17939473670E+03  1.17939473670E+03  0.00000000000E+00  0.00000000000E+00  1.
       21   -1    0    0  501  502  0.00000000000E+00  0.00000000000E+00 -2.67406795572E+02  2.67406795572E+02  0.00000000000E+00  0.00000000000E+00  1.
       25    1    1    2    0    0  3.87215010133E+02 -2.45685477514E+02  5.25432258011E+02  7.08520201330E+02  1.25000000000E+02  0.00000000000E+00  1.
        6    2    1    2  501    0 -2.84507200786E+02  4.91900715419E+01  6.95548333285E+01  3.43271755199E+02  1.72144162377E+02  0.00000000000E+00  1.
      -24    2    1    2    0    0 -1.02707809347E+02  1.96495405973E+02  3.17000849786E+02  3.95009575742E+02  7.98979817859E+01  0.00000000000E+00  1.
        5    1    4    4  501    0 -2.12284576324E+02 -2.44425213790E+00  1.99961384839E+01  2.13291171331E+02  4.75000000000E+00  0.00000000000E+00  1.
       24    2    4    4    0    0 -7.22226244615E+01  5.16343236798E+01  4.95586948446E+01  1.29980583867E+02  8.09733109227E+01  0.00000000000E+00  1.
       -3    1    7    7    0  703 -3.09940090711E+01 -9.78327108443E+00 -1.10718423932E+01  3.43355018223E+01  5.59141130426E-07  0.00000000000E+00  1.
        4    1    7    7  703    0 -4.12286153904E+01  6.14175947642E+01  6.06305372378E+01  9.56450820450E+01  1.16800772800E-06  0.00000000000E+00  1.
       15    1    5    5    0    0 -1.52034014531E+01  1.09763466288E+02  1.73496667305E+02  2.05872320946E+02  1.77680000000E+00  0.00000000000E+00  1.
      -16    1    5    5    0    0 -8.75044078942E+01  8.67319396845E+01  1.43504182481E+02  1.89137254796E+02  3.81469726562E-06  0.00000000000E+00  1.
</event>
<event>
11 115   1.0000000E+00   7.4550000E+01   7.8125000E-03   1.3429423E-01
        5   -1    0    0  502    0  0.00000000000E+00  0.00000000000E+00  2.74170629678E+02  2.74170629678E+02  0.00000000000E+00  0.00000000000E+00  1.
       21   -1    0    0  501  502  0.00000000000E+00  0.00000000000E+00 -4.67841139477E+02  4.67841139477E+02  0.00000000000E+00  0.00000000000E+00  1.
       25    1    1    2    0    0 -6.70126792777E+01 -1.06548819882E+02  1.10222371834E+02  2.08847603421E+02  1.25000000000E+02  0.00000000000E+00  1.
        6    2    1    2  501    0 -9.34663938003E+01  1.43362744924E+02 -2.33029332492E+02  3.37038773368E+02  1.73215534954E+02  0.00000000000E+00  1.
      -24    2    1    2    0    0  1.60479073078E+02 -3.68139250422E+01 -7.08635491402E+01  1.96125392365E+02  7.95910105521E+01  0.00000000000E+00  1.
        5    1    4    4  501    0 -1.38429997722E+01  4.34210678797E+00  2.14445000276E+01  2.63232143836E+01  4.75000000000E+00  0.00000000000E+00  1.
       24    2    4    4    0    0 -7.96233940281E+01  1.39020638136E+02 -2.54473832520E+02  3.10715558985E+02  7.82342920547E+01  0.00000000000E+00  1.
       -3    1    7    7    0  703 -2.57871734912E+01  2.29182474210E+00 -7.14848132186E+01  7.60283453602E+01  0.00000000000E+00  0.00000000000E+00  1.
        4    1    7    7  703    0 -5.38362205370E+01  1.36728813394E+02 -1.82989019301E+02  2.34687213624E+02  0.00000000000E+00  0.00000000000E+00  1.
        3    1    5    5  704    0 -4.91775942221E+00 -8.22406489607E+00  6.21784627638E+00  1.14228373650E+01  1.20395480852E-06  0.00000000000E+00  1.
       -4    1    5    5    0  704  1.65396832500E+02 -2.85898601461E+01 -7.70813954166E+01  1.84702555000E+02  1.90734863281E-06  0.00000000000E+00  1.
</event>
<event>
11 115   1.0000000E+00   7.4550000E+01   7.8125000E-03   1.3429423E-01
       21   -1    0    0  501  502  0.00000000000E+00  0.00000000000E+00  4.03825427482E+02  4.03825427482E+02  0.00000000000E+00  0.00000000000E+00  1.
        5   -1    0    0  502    0  0.00000000000E+00  0.00000000000E+00 -1.57012178866E+02  1.57012178866E+02  0.00000000000E+00  0.00000000000E+00  1.
       25    1    1    2    0    0 -6.72837587932E+01  4.65137057738E+01 -4.01288898392E+01  1.54680175918E+02  1.25000000000E+02  0.00000000000E+00  1.
        6    2    1    2  501    0  7.55756067593E+01  1.20405746658E+01  1.91909223473E+02  2.69496333107E+02  1.73038942811E+02  0.00000000000E+00  1.
      -24    2    1    2    0    0 -8.29184796611E+00 -5.85542804396E+01  9.50329149820E+01  1.36661097322E+02  7.84069007859E+01  0.00000000000E+00  1.
        5    1    4    4  501    0  8.55684357429E+01  2.83348100062E+01  4.73683667237E+01  1.01936957575E+02  4.75000000000E+00  0.00000000000E+00  1.
       24    2    4    4    0    0 -9.99282898355E+00 -1.62942353404E+01  1.44540856749E+02  1.67559375532E+02  8.25755794565E+01  0.00000000000E+00  1.
       -1    1    7    7    0  703  2.02285741573E+01  2.29425135220E+01  3.03420001521E+01  4.30835364423E+01  5.84003863998E-07  0.00000000000E+00  1.
        2    1    7    7  703    0 -3.02214031408E+01 -3.92367488624E+01  1.14198856597E+02  1.24475839090E+02  1.90734863281E-06  0.00000000000E+00  1.
       15    1    5    5    0    0 -3.32790781421E+01 -2.61752891925E+01  8.43389301817E+01  9.43867308934E+01  1.77680000000E+00  0.00000000000E+00  1.
      -16    1    5    5    0    0  2.49872301760E+01 -3.23789912471E+01  1.06939848003E+01  4.22743664289E+01  1.39530896076E-06  0.00000000000E+00  1.
</event>
<event>
11 115   1.0000000E+00   7.4550000E+01   7.8125000E-03   1.3429423E-01
        5   -1    0    0  502    0  0.00000000000E+00  0.00000000000E+00  9.51699495424E+02  9.51699495424E+02  0.00000000000E+00  0.00000000000E+00  1.
       21   -1    0    0  501  502  0.00000000000E+00  0.00000000000E+00 -8.73484271958E+02  8.73484271958E+02  0.00000000000E+00  0.00000000000E+00  1.
       25    1    1    2    0    0  4.01896807325E+02 -7.05620699044E+02  2.87728434241E+02  8.70536769200E+02  1.25000000000E+02  0.00000000000E+00  1.
        6    2    1    2  501    0 -1.87080450196E+02  5.61097330366E+02 -2.76951968113E+02  6.75579954329E+02  1.72848410638E+02  0.00000000000E+00  1.
      -24    2    1    2    0    0 -2.14816357129E+02  1.44523368678E+02  6.74387573371E+01  2.79067043853E+02  7.93558919637E+01  0.00000000000E+00  1.
        5    1    4    4  501    0 -1.33445643749E+02  3.11606058923E+02 -2.12786203376E+02  4.00258174983E+02  4.74999999999E+00  0.00000000000E+00  1.
       24    2    4    4    0    0 -5.36348064466E+01  2.49491271443E+02 -6.41657647375E+01  2.75321779346E+02  8.10077146292E+01  0.00000000000E+00  1.
       -3    1    7    7    0  703 -5.24325892783E+01  1.69351032293E+02 -7.85280754056E+01  1.93895866857E+02  9.53674316406E-07  0.00000000000E+00  1.
        4    1    7    7  703    0 -1.20221716831E+00  8.01402391492E+01  1.43623106681E+01  8.14259124894E+01  2.51189559766E-06  0.00000000000E+00  1.
       11    1    5    5    0    0 -1.19691640856E+02  1.25853684678E+02  3.84594170977E+01  1.77888632581E+02  5.11006384438E-04  0.00000000000E+00  1.
      -12    1    5    5    0    0 -9.51247162736E+01  1.86696839997E+01  2.89793402394E+01  1.01178411272E+02  4.76837158203E-07  0.00000000000E+00  1.
</event>
<event>
11 115   1.0000000E+00   7.4550000E+01   7.8125000E-03   1.3429423E-01
       21   -1    0    0  501  502  0.00000000000E+00  0.00000000000E+00  5.51479363997E+02  5.51479363997E+02  0.00000000000E+00  0.00000000000E+00  1.
        5   -1    0    0  502    0  0.00000000000E+00  0.00000000000E+00 -1.14838197619E+02  1.14838197619E+02  0.00000000000E+00  0.00000000000E+00  1.
       25    1    1    2    0    0  5.59983173304E+01  5.14259630239E+01  3.13784338564E+01  1.49633042234E+02  1.25000000000E+02  0.00000000000E+00  1.
        6    2    1    2  501    0 -7.13542265216E+01  2.28798205937E+01  1.60559654283E+02  2.48062270182E+02  1.73610412912E+02  0.00000000000E+00  1.
      -24    2    1    2    0    0  1.53559091912E+01 -7.43057836176E+01  2.44703078239E+02  2.68622249200E+02  8.07537171874E+01  0.00000000000E+00  1.
        5    1    4    4  501    0  6.50556500458E+00 -5.09857943062E+01  6.43294841387E+01  8.24785949602E+01  4.75000000000E+00  0.00000000000E+00  1.
       24    2    4    4    0    0 -7.78597915262E+01  7.38656148999E+01  9.62301701445E+01  1.65583675222E+02  8.14827076932E+01  0.00000000000E+00  1.
       -3    1    7    7    0  703 -1.23877652924E+01  5.47830561182E+01  1.24015460326E+01  5.75190256401E+01  1.72750672653E-06  0.00000000000E+00  1.
        4    1    7    7  703    0 -6.54720262338E+01  1.90825587817E+01  8.38286241119E+01  1.08064649582E+02  2.52318507296E-06  0.00000000000E+00  1.
       13    1    5    5    0    0  3.84701351772E+00  1.51008682599E+01  7.35348091691E+01  7.51679124280E+01  1.05660000000E-01  0.00000000000E+00  1.
      -14    1    5    5    0    0  1.15088956735E+01 -8.94066518775E+01  1.71168269070E+02  1.93454336772E+02  1.90734863281E-06  0.00000000000E+00  1.
</event>
<event>
11 115   1.0000000E+00   7.4550000E+01   7.8125000E-03   1.3429423E-01
        5   -1    0    0  502    0  0.00000000000E+00  0.00000000000E+00  8.21389979667E+02  8.21389979667E+02  0.00000000000E+00  0.00000000000E+00  1.
       21   -1    0    0  501  502  0.00000000000E+00  0.00000000000E+00 -1.13381020321E+02  1.13381020321E+02  0.00000000000E+00  0.00000000000E+00  1.
       25    1    1    2    0    0  2.14776541692E+01 -7.73448643910E+01  5.12490865360E+02  5.33587298156E+02  1.25000000000E+02  0.00000000000E+00  1.
        6    2    1    2  501    0  5.01111074991E+01 -2.86117852215E+00  2.35775218478E+01  1.83051025337E+02  1.74449043858E+02  0.00000000000E+00  1.
      -24    2    1    2    0    0 -7.15887616683E+01  8.02060429131E+01  1.71940572138E+02  2.18132676495E+02  8.03762657190E+01  0.00000000000E+00  1.
        5    1    4    4  501    0  8.04964089154E+01  2.00196340280E+01  3.11659883365E+01  8.87374719264E+01  4.75000000000E+00  0.00000000000E+00  1.
       24    2    4    4    0    0 -3.03853014163E+01 -2.28808125502E+01 -7.58846648874E+00  9.43135534104E+01  8.59689677042E+01  0.00000000000E+00  1.
      -13    1    7    7    0    0 -2.95303266253E+00  2.56811567658E+01  1.94309031280E+01  3.23390379439E+01  1.05660000003E-01  0.00000000000E+00  1.
       14    1    7    7    0    0 -2.74322687538E+01 -4.85619693159E+01 -2.70193696167E+01  6.19745154665E+01  4.76837158203E-07  0.00000000000E+00  1.
        3    1    5    5  704    0 -2.08810500639E+01 -1.29765927089E+01  5.49866892467E+01  6.02324348206E+01  9.53674316406E-07  0.00000000000E+00  1.
       -4    1    5    5    0  704 -5.07077116044E+01  9.31826356220E+01  1.16953882891E+02  1.57900241674E+02  1.90734863281E-06  0.00000000000E+00  1.
</event>
<event>
11 115   1.0000000E+00   7.4550000E+01   7.8125000E-03   1.3429423E-01
       21   -1    0    0  501  502  0.00000000000E+00  0.00000000000E+00  7.93576145742E+02  7.93576145742E+02  0.00000000000E+00  0.00000000000E+00  1.
        5   -1    0    0  502    0  0.00000000000E+00  0.00000000000E+00 -1.54520252673E+02  1.54520252673E+02  0.00000000000E+00  0.00000000000E+00  1.
       25    1    1    2    0    0  1.79382304867E+02  1.49480142119E+02  4.56668317647E+02  5.27914080632E+02  1.25000000000E+02  0.00000000000E+00  1.
        6    2    1    2  501    0 -1.61298422018E+02 -8.14498885184E+01  5.05769939572E+01  2.55015249718E+02  1.72694759579E+02  0.00000000000E+00  1.
      -24    2    1    2    0    0 -1.80838828494E+01 -6.80302536003E+01  1.31810581465E+02  1.65167068064E+02  7.03632628773E+01  0.00000000000E+00  1.
        5    1    4    4  501    0 -6.70242572737E+01 -4.39036708508E+00  8.34316461696E+01  1.07214404204E+02  4.75000000000E+00  0.00000000000E+00  1.
       24    2    4    4    0    0 -9.42741647443E+01 -7.70595214333E+01 -3.28546522125E+01  1.47800845514E+02  7.70705766231E+01  0.00000000000E+00  1.
      -11    1    7    7    0    0  7.40644693495E+00  6.10659249438E+00  5.36052808622E+00  1.09945982062E+01  5.11001768033E-04  0.00000000000E+00  1.
       12    1    7    7    0    0 -1.01680611679E+02 -8.31661139277E+01 -3.82151802987E+01  1.36806247308E+02  1.26159253648E-06  0.00000000000E+00  1.
       11    1    5    5    0    0  2.64203209524E+01 -1.84743673551E+01  3.42309654379E+01  4.70222777359E+01  5.11000155062E-04  0.00000000000E+00  1.
      -12    1    5    5    0    0 -4.45042038018E+01 -4.95558862452E+01  9.75796160274E+01  1.18144790328E+02  1.90734863281E-06  0.00000000000E+00  1.
</event>
<event>
11 115   1.0000000E+00   7.4550000E+01   7.8125000E-03   1.3429423E-01
        5   -1    0    0  502    0  0.00000000000E+00  0.00000000000E+00  1.39685750775E+03  1.39685750775E+03  0.00000000000E+00  0.00000000000E+00  1.
       21   -1    0    0  501  502  0.00000000000E+00  0.00000000000E+00 -4.36409253362E+02  4.36409253362E+02  0.00000000000E+00  0.00000000000E+00  1.
       25    1    1    2    0    0  2.44357956968E+01 -2.88437688204E+01  9.96318199379E+01  1.64257634998E+02  1.25000000000E+02  0.00000000000E+00  1.
        6    2    1    2  501    0  1.39402395423E+02 -1.43429736533E+02 -3.46468749223E+02  4.35880827391E+02  1.73050236426E+02  0.00000000000E+00  1.
      -24    2    1    2    0    0 -1.63838191120E+02  1.72273505353E+02  1.20728518367E+03  1.23312829872E+03  8.09121306011E+01  0.00000000000E+00  1.
        5    1    4    4  501    0 -2.34797099346E+01 -3.36324594769E+01 -1.02681649207E+02  1.10673044112E+02  4.75000000000E+00  0.00000000000E+00  1.
       24    2    4    4    0    0  1.62882105358E+02 -1.09797277056E+02 -2.43787100016E+02  3.25207783279E+02  8.79882371478E+01  0.00000000000E+00  1.
       -3    1    7    7    0  703  4.12975703701E+01 -5.82423097041E+00 -1.06580309949E+02  1.14449873105E+02  1.34869915235E-06  0.00000000000E+00  1.
        4    1    7    7  703    0  1.21584534988E+02 -1.03973046086E+02 -1.37206790066E+02  2.10757910174E+02  1.90734863281E-06  0.00000000000E+00  1.
       11    1    5    5    0    0 -1.27477539212E+02  1.42486413507E+02  1.09231732909E+03  1.10892292269E+03  5.10884675378E-04  0.00000000000E+00  1.
      -12    1    5    5    0    0 -3.63606519077E+01  2.97870918460E+01  1.14967854574E+02  1.24205376024E+02  5.87884331033E-06  0.00000000000E+00  1.
</event>
<event>
11 115   1.0000000E+00   7.4550000E+01   7.8125000E-03   1.3429423E-01
       21   -1    0    0  501  502  0.00000000000E+00  0.00000000000E+00  1.60264094443E+03  1.60264094443E+03  0.00000000000E+00  0.00000000000E+00  1.
        5   -1    0    0  502    0  0.00000000000E+00  0.00000000000E+00 -4.86165355944E+01  4.86165355944E+01  0.00000000000E+00  0.00000000000E+00  1.
       25    1    1    2    0    0  1.36363673053E+02 -7.55479627204E+01  3.45248021872E+02  3.98903174475E+02  1.25000000000E+02  0.00000000000E+00  1.
        6    2    1    2  501    0 -1.55090578638E+02  5.95871363006E+01  9.75001105486E+02  1.00404469189E+03  1.72843493428E+02  0.00000000000E+00  1.
      -24    2    1    2    0    0  1.87269055857E+01  1.59608264198E+01  2.33775281475E+02  2.48309613656E+02  8.00083560166E+01  0.00000000000E+00  1.
        5    1    4    4  501    0 -1.17992729117E+02  3.78308472809E+01  7.59139367956E+02  7.69199973747E+02  4.74999999999E+00  0.00000000000E+00  1.
       24    2    4    4    0    0 -3.70978495211E+01  2.17562890198E+01  2.15861737530E+02  2.34844718145E+02  8.18911799890E+01  0.00000000000E+00  1.
       -1    1    7    7    0  703  2.17385634395E+01 -1.17711966747E+01  6.14613741077E+01  6.62467110034E+01  1.16800772800E-06  0.00000000000E+00  1.
        2    1    7    7  703    0 -5.88364129606E+01  3.35274856945E+01  1.54400363422E+02  1.68598007141E+02  2.69739830470E-06  0.00000000000E+00  1.
        1    1    5    5  704    0  6.37397396462E-01 -1.93516720972E+01  1.14975915863E+01  2.25186167578E+01  2.96349594466E-06  0.00000000000E+00  1.
       -2    1    5    5    0  704  1.80895081892E+01  3.53124985170E+01  2.22277689889E+02  2.25790996899E+02  3.81469726562E-06  0.00000000000E+00  1.
</event>
<event>
11 115   1.0000000E+00   7.4550000E+01   7.8125000E-03   1.3429423E-01
        5   -1    0    0  502    0  0.00000000000E+00  0.00000000000E+00  5.64378211144E+02  5.64378211144E+02  0.00000000000E+00  0.00000000000E+00  1.
       21   -1    0    0  501  502  0.00000000000E+00  0.00000000000E+00 -6.77380657914E+02  6.77380657914E+02  0.00000000000E+00  0.00000000000E+00  1.
       25    1    1    2    0    0  2.40499677551E+02 -1.94727564373E+02  3.21603615007E+02  4.63479022626E+02  1.25000000000E+02  0.00000000000E+00  1.
        6    2    1    2  501    0 -4.32939761319E+01 -9.70561270661E+01  1.00318266664E+01  2.05680487368E+02  1.75811163375E+02  0.00000000000E+00  1.
      -24    2    1    2    0    0 -1.97205701419E+02  2.91783691439E+02 -4.44637888444E+02  5.72599359065E+02  7.83540866834E+01  0.00000000000E+00  1.
        5    1    4    4  501    0 -4.18653483695E+01  2.33980612981E+01 -2.48034614563E+01  5.42028676993E+01  4.75000000000E+00  0.00000000000E+00  1.
       24    2    4    4    0    0 -1.42862776240E+00 -1.20454188364E+02  3.48352881227E+01  1.51477619668E+02  8.49748167990E+01  0.00000000000E+00  1.
       -1    1    7    7    0  703  1.07350568682E+01 -1.09709709026E+02 -3.03579131748E+00  1.10275462953E+02  1.51318338809E-06  0.00000000000E+00  1.
        2    1    7    7  703    0 -1.21636846306E+01 -1.07444793381E+01  3.78710794402E+01  4.12021567154E+01  9.53674316406E-07  0.00000000000E+00  1.
        1    1    5    5  704    0 -3.04789638976E+01  6.93296292509E+01 -1.46769845254E+02  1.65157355901E+02  6.03156597170E-06  0.00000000000E+00  1.
       -4    1    5    5    0  704 -1.66726737521E+02  2.22454062189E+02 -2.97868043189E+02  4.07442003164E+02  0.00000000000E+00  0.00000000000E+00  1.
</event>
<event>
11 115   1.0000000E+00   7.4550000E+01   7.8125000E-03   1.3429423E-01
       21   -1    0    0  501  502  0.00000000000E+00  0.00000000000E+00  3.73087211233E+02  3.73087211233E+02  0.00000000000E+00  0.00000000000E+00  1.
        5   -1    0    0  502    0  0.00000000000E+00  0.00000000000E+00 -3.31846422160E+02  3.31846422160E+02  0.00000000000E+00  0.00000000000E+00  1.
       25    1    1    2    0    0  1.36318033036E+02 -1.28113950721E+02  1.38738029098E+02  2.64327507495E+02  1.25000000000E+02  0.00000000000E+00  1.
        6    2    1    2  501    0  4.33489528059E+01  1.10662272139E+01  2.64047563953E+01  1.80346090147E+02  1.72701789154E+02  0.00000000000E+00  1.
      -24    2    1    2    0    0 -1.79666985842E+02  1.17047723507E+02 -1.23901996421E+02  2.60260035752E+02  8.00199107277E+01  0.00000000000E+00  1.
        5    1    4    4  501    0  2.26712500299E+01  5.82614581321E+01  5.17586931712E+01  8.13013400897E+01  4.75000000000E+00  0.00000000000E+00  1.
       24    2    4    4    0    0  2.06777027759E+01 -4.71952309182E+01 -2.53539367758E+01  9.90447500571E+01  8.06974794546E+01  0.00000000000E+00  1.
      -15    1    7    7    0    0  3.40664406990E+01  1.88227328094E+00 -3.31214245721E+01  4.75841477651E+01  1.77680000000E+00  0.00000000000E+00  1.
       16    1    7    7    0    0 -1.33887379230E+01 -4.90775041992E+01  7.76748779631E+00  5.14606022920E+01  1.14030399738E-06  0.00000000000E+00  1.
        1    1    5    5  704    0 -7.49860132103E+01  9.25302705220E+01 -4.68331692420E+01  1.27976946679E+02  0.00000000000E+00  0.00000000000E+00  1.
       -2    1    5    5    0  704 -1.04680972632E+02  2.45174529852E+01 -7.70688271786E+01  1.32283089073E+02  1.90734863281E-06  0.00000000000E+00  1.
</event>
<event>
11 115   1.0000000E+00   7.4550000E+01   7.8125000E-03   1.3429423E-01
        5   -1    0    0  502    0  0.00000000000E+00  0.00000000000E+00  4.68081301359E+02  4.68081301359E+02  0.00000000000E+00  0.00000000000E+00  1.
       21   -1    0    0  501  502  0.00000000000E+00  0.00000000000E+00 -8.96045392624E+02  8.96045392624E+02  0.00000000000E+00  0.00000000000E+00  1.
       25    1    1    2    0    0  3.58569390614E+02 -2.58489704656E+02 -1.31366485315E+02  4.77777237593E+02  1.25000000000E+02  0.00000000000E+00  1.
        6    2    1    2  501    0  2.67561169852E+01 -8.83877452849E+01 -3.02410668862E+02  3.61621088367E+02  1.75468845091E+02  0.00000000000E+00  1.
      -24    2    1    2    0    0 -3.85325507599E+02  3.46877449941E+02  5.81306291198E+00  5.24728368023E+02  8.06619887154E+01  0.00000000000E+00  1.
        5    1    4    4  501    0  7.91278491744E+01 -5.97037270712E+01 -1.35759380120E+02  1.68163382850E+02  4.75000000000E+00  0.00000000000E+00  1.
       24    2    4    4    0    0 -5.23717321893E+01 -2.86840182137E+01 -1.66651288742E+02  1.93457705517E+02  7.80234615418E+01  0.00000000000E+00  1.
       -3    1    7    7    0  703 -4.89465213339E+01  9.53025974804E+00 -4.98228901127E+01  7.04904829090E+01  6.74349576174E-07  0.00000000000E+00  1.
        4    1    7    7  703    0 -3.42521085536E+00 -3.82142779617E+01 -1.16828398629E+02  1.22967222608E+02  1.34869915235E-06  0.00000000000E+00  1.
        1    1    5    5  704    0 -2.67943049311E+02  1.98601472473E+02 -1.86295392245E+01  3.34040539866E+02  3.20759392907E-06  0.00000000000E+00  1.
       -2    1    5    5    0  704 -1.17382458288E+02  1.48275977468E+02  2.44426021365E+01  1.90687828156E+02  2.61174467805E-06  0.00000000000E+00  1.
</event>
<event>
11 115   1.0000000E+00   7.4550000E+01   7.8125000E-03   1.3429423E-01
       21   -1    0    0  501  502  0.00000000000E+00  0.00000000000E+00  1.37187197034E+03  1.37187197034E+03  0.00000000000E+00  0.00000000000E+00  1.
        5   -1    0    0  502    0  0.00000000000E+00  0.00000000000E+00 -1.06584103145E+03  1.06584103145E+03  0.00000000000E+00  0.00000000000E+00  1.
       25    1    1    2    0    0  5.77801856381E+01 -1.60973932514E+02  8.33021376788E+02  8.59535206368E+02  1.25000000000E+02  0.00000000000E+00  1.
        6    2    1    2  501    0 -1.20789747403E+01  2.55498440940E+02  4.75505121152E+02  5.66983562639E+02  1.73031456991E+02  0.00000000000E+00  1.
      -24    2    1    2    0    0 -4.57012108978E+01 -9.45245084256E+01 -1.00249555905E+03  1.01119423279E+03  8.05788256263E+01  0.00000000000E+00  1.
        5    1    4    4  501    0  6.04793607288E+01  7.72902474498E+01  1.52843972430E+02  1.81701342409E+02  4.75000000000E+00  0.00000000000E+00  1.
       24    2    4    4    0    0 -7.25583354691E+01  1.78208193490E+02  3.22661148722E+02  3.85282220231E+02  8.54944446056E+01  0.00000000000E+00  1.
       -1    1    7    7    0  703 -6.50596327660E+01  9.56504096983E+01  1.21760724888E+02  1.67950679714E+02  3.56832255056E-06  0.00000000000E+00  1.
        4    1    7    7  703    0 -7.49870270309E+00  8.25577837914E+01  2.00900423834E+02  2.17331540517E+02  0.00000000000E+00  0.00000000000E+00  1.
        1    1    5    5  704    0 -5.95958672950E+01 -5.49183657275E+01 -4.60563736071E+02  4.67639443671E+02  0.00000000000E+00  0.00000000000E+00  1.
       -2    1    5    5    0  704  1.38946563971E+01 -3.96061426981E+01 -5.41931822980E+02  5.43554789119E+02  7.62939453125E-06  0.00000000000E+00  1.
</event>
<event>
11 115   1.0000000E+00   7.4550000E+01   7.8125000E-03   1.3429423E-01
       21   -1    0    0  501  502  0.00000000000E+00  0.00000000000E+00  1.79384254945E+03  1.79384254945E+03  0.00000000000E+00  0.00000000000E+00  1.
        5   -1    0    0  502    0  0.00000000000E+00  0.00000000000E+00 -8.71350542217E+01  8.71350542217E+01  0.00000000000E+00  0.00000000000E+00  1.
       25    1    1    2    0    0  3.90662965804E+01  3.35408619200E+01  1.83098848256E+02  2.27599106280E+02  1.25000000000E+02  0.00000000000E+00  1.
        6    2    1    2  501    0  3.55050777581E+01  6.19091513135E+01  1.49250968942E+03  1.50442853450E+03  1.75004825204E+02  0.00000000000E+00  1.
      -24    2    1    2    0    0 -7.45713743386E+01 -9.54500132335E+01  3.10989575449E+01  1.48949962883E+02  8.09157054321E+01  0.00000000000E+00  1.
        5    1    4    4  501    0  3.22666190987E+01  3.36041690247E+01  1.12179194356E+02  1.21561132893E+02  4.75000000000E+00  0.00000000000E+00  1.
       24    2    4    4    0    0  3.23845865945E+00  2.83049822887E+01  1.38033049507E+03  1.38286740161E+03  7.87293794509E+01  0.00000000000E+00  1.
       -1    1    7    7    0  703 -2.93858881929E-01 -1.07613453656E+01  1.07171387390E+03  1.07176794149E+03  1.52587890625E-05  0.00000000000E+00  1.
        2    1    7    7  703    0  3.53231754138E+00  3.90663276543E+01  3.08616621168E+02  3.11099460116E+02  8.52992239952E-06  0.00000000000E+00  1.
        1    1    5    5  704    0 -7.24092886876E+01 -1.07845321483E+02  3.69811617238E+01  1.35060448602E+02  2.43140197448E-06  0.00000000000E+00  1.
       -2    1    5    5    0  704 -2.16208565096E+00  1.23953082499E+01 -5.88220417893E+00  1.38895142815E+01  1.44287567579E-06  0.00000000000E+00  1.
</event>
<event>
11 115   1.0000000E+00   7.4550000E+01   7.8125000E-03   1.3429423E-01
       21   -1    0    0  501  502  0.00000000000E+00  0.00000000000E+00  1.06662648083E+03  1.06662648083E+03  0.00000000000E+00  0.00000000000E+00  1.
        5   -1    0    0  502    0  0.00000000000E+00  0.00000000000E+00 -7.22407187128E+01  7.22407187128E+01  0.00000000000E+00  0.00000000000E+00  1.
       25    1    1    2    0    0  3.48290726697E+01  5.06449040952E+01  1.94272830255E+02  2.39050001442E+02  1.25000000000E+02  0.00000000000E+00  1.
        6    2    1    2  501    0  1.23806743875E+02 -8.98040698392E+01  4.47672160300E+02  5.03217203221E+02  1.71535155933E+02  0.00000000000E+00  1.
      -24    2    1    2    0    0 -1.58635816545E+02  3.91591657441E+01  3.52440771566E+02  3.96599994884E+02  7.98642343456E+01  0.00000000000E+00  1.
        5    1    4    4  501    0  1.07588533810E+02 -1.59075573127E+01  1.44377541790E+02  1.80819744664E+02  4.75000000000E+00  0.00000000000E+00  1.
       24    2    4    4    0    0  1.62182100654E+01 -7.38965125265E+01  3.03294618510E+02  3.22397458557E+02  7.89225618272E+01  0.00000000000E+00  1.
       -1    1    7    7    0  703 -2.00286388218E+01  5.29988952189E+00  3.96159104739E+01  4.47063257792E+01  1.16800772800E-06  0.00000000000E+00  1.
        2    1    7    7  703    0  3.62468488871E+01 -7.91964020484E+01  2.63678708037E+02  2.77691132778E+02  3.81469726562E-06  0.00000000000E+00  1.
       13    1    5    5    0    0 -4.96766272016E+01 -8.57050357544E+00  1.81306400650E+02  1.88184066547E+02  1.05659999952E-01  0.00000000000E+00  1.
      -14    1    5    5    0    0 -1.08959189343E+02  4.77296693195E+01  1.71134370916E+02  2.08415928337E+02  3.30362473978E-06  0.00000000000E+00  1.
</event>
<event>
11 115   1.0000000E+00   7.4550000E+01   7.8125000E-03   1.3429423E-01
       21   -1    0    0  501  502  0.00000000000E+00  0.00000000000E+00  2.22733365510E+02  2.22733365510E+02  0.00000000000E+00  0.00000000000E+00  1.
        5   -1    0    0  502    0  0.00000000000E+00  0.00000000000E+00 -8.90197142063E+02  8.90197142063E+02  0.00000000000E+00  0.00000000000E+00  1.
       25    1    1    2    0    0 -1.55180553360E+01  3.20970055842E+02 -4.13145675588E+02  5.38123532328E+02  1.25000000000E+02  0.00000000000E+00  1.
        6    2    1    2  501    0  4.74554004611E+01 -1.03307326679E+02  2.72655791509E+01  2.08336703890E+02  1.72442313841E+02  0.00000000000E+00  1.
      -24    2    1    2    0    0 -3.19373451250E+01 -2.17662729163E+02 -2.81583680116E+02  3.66470271355E+02  8.13267065555E+01  0.00000000000E+00  1.
        5    1    4    4  501    0 -3.35597175635E+01 -1.46908101978E+01 -3.47916021534E+01  5.07453705042E+01  4.75000000000E+00  0.00000000000E+00  1.
       24    2    4    4    0    0  8.10151180246E+01 -8.86165164817E+01  6.20571813043E+01  1.57591333386E+02  8.10407197955E+01  0.00000000000E+00  1.
       -3    1    7    7    0  703  3.24615259554E+01 -7.52728092289E+01  5.93142071575E+00  8.21883703955E+01  1.67105743514E-06  0.00000000000E+00  1.
        4    1    7    7  703    0  4.85535920692E+01 -1.33437072528E+01  5.61257605885E+01  7.54029629902E+01  1.16800772800E-06  0.00000000000E+00  1.
       11    1    5    5    0    0  2.21397933929E+01 -1.07831498918E+02 -1.09359916667E+02  1.55168920806E+02  5.11005717009E-04  0.00000000000E+00  1.
      -12    1    5    5    0    0 -5.40771385180E+01 -1.09831230245E+02 -1.72223763449E+02  2.11301350549E+02  4.26496119976E-06  0.00000000000E+00  1.
</event>
<event>
11 115   1.0000000E+00   7.4550000E+01   7.8125000E-03   1.3429423E-01
       21   -1    0    0  501  502  0.00000000000E+00  0.00000000000E+00  2.32686637498E+02  2.32686637498E+02  0.00000000000E+00  0.00000000000E+00  1.
        5   -1    0    0  502    0  0.00000000000E+00  0.00000000000E+00 -4.50921039522E+02  4.50921039522E+02  0.00000000000E+00  0.00000000000E+00  1.
       25    1    1    2    0    0  3.54756346985E+01  1.73629188765E+01 -3.04622206336E+02  3.31631844373E+02  1.25000000000E+02  0.00000000000E+00  1.
        6    2    1    2  501    0 -7.33598721168E+01 -6.74502733433E+01 -2.44348679091E+01  2.00662931362E+02  1.72445176917E+02  0.00000000000E+00  1.
      -24    2    1    2    0    0  3.78842374183E+01  5.00873544668E+01  1.10822672222E+02  1.51312901285E+02  8.16698897672E+01  0.00000000000E+00  1.
        5    1    4    4  501    0  9.59452042515E+00 -1.18683440598E+01 -6.46377032116E+01  6.65845897290E+01  4.75000000000E+00  0.00000000000E+00  1.
       24    2    4    4    0    0 -8.29543925419E+01 -5.55819292835E+01  4.02028353024E+01  1.34078341633E+02  7.99371729787E+01  0.00000000000E+00  1.
       -3    1    7    7    0  703 -5.39726233254E+01 -7.54213284633E+01  2.75951702157E+01  9.67621531128E+01  1.75201159199E-06  0.00000000000E+00  1.
        4    1    7    7  703    0 -2.89817692165E+01  1.98393991798E+01  1.26076650868E+01  3.73161885202E+01  8.25906184945E-07  0.00000000000E+00  1.
       11    1    5    5    0    0  4.79616535624E+01 -3.86663508047E+00  5.02975966478E+01  6.96068912399E+01  5.10999932583E-04  0.00000000000E+00  1.
      -12    1    5    5    0    0 -1.00774161441E+01  5.39539895472E+01  6.05250755739E+01  8.17060100448E+01  1.16800772800E-06  0.00000000000E+00  1.
</event>
<event>
11 115   1.0000000E+00   7.4550000E+01   7.8125000E-03   1.3429423E-01
       21   -1    0    0  501  502  0.00000000000E+00  0.00000000000E+00  1.23137989009E+03  1.23137989009E+03  0.00000000000E+00  0.00000000000E+00  1.
        5   -1    0    0  502    0  0.00000000000E+00  0.00000000000E+00 -1.44459820207E+02  1.44459820207E+02  0.00000000000E+00  0.00000000000E+00  1.
       25    1    1    2    0    0 -1.43478376673E+02 -1.62036117551E+01  4.15005885430E+01  1.95437715030E+02  1.25000000000E+02  0.00000000000E+00  1.
        6    2    1    2  501    0 -7.40304139297E+01 -1.44005731540E+02  6.73817431184E+02  7.14727699663E+02  1.74893113631E+02  0.00000000000E+00  1.
      -24    2    1    2    0    0  2.17508790602E+02  1.60209343296E+02  3.71602050156E+02  4.65674295604E+02  7.60746885444E+01  0.00000000000E+00  1.
        5    1    4    4  501    0 -9.96672731616E+01 -5.70442797866E+01  3.66980289336E+02  3.84557811592E+02  4.75000000000E+00  0.00000000000E+00  1.
       24    2    4    4    0    0  2.56368592319E+01 -8.69614517538E+01  3.06837141848E+02  3.30169888071E+02  8.15081635713E+01  0.00000000000E+00  1.
      -11    1    7    7    0    0  3.17505699428E+01 -8.20811517116E+01  1.55865570727E+02  1.78995782901E+02  5.11005717009E-04  0.00000000000E+00  1.
       12    1    7    7    0    0 -6.11371071097E+00 -4.88030004224E+00  1.50971571121E+02  1.51174105169E+02  0.00000000000E+00  0.00000000000E+00  1.
        1    1    5    5  704    0  2.40637348377E+01 -2.58765507295E+00  5.79969302099E+01  6.28442774395E+01  3.75461953831E-06  0.00000000000E+00  1.
       -2    1    5    5    0  704  1.93445055765E+02  1.62796998369E+02  3.13605119946E+02  4.02830018164E+02  7.62939453125E-06  0.00000000000E+00  1.
</event>
<event>
11 115   1.0000000E+00   7.4550000E+01   7.8125000E-03   1.3429423E-01
       21   -1    0    0  501  502  0.00000000000E+00  0.00000000000E+00  5.18051916620E+02  5.18051916620E+02  0.00000000000E+00  0.00000000000E+00  1.
        5   -1    0    0  502    0  0.00000000000E+00  0.00000000000E+00 -5.30714328280E+02  5.30714328280E+02  0.00000000000E+00  0.00000000000E+00  1.
       25    1    1    2    0    0  5.45292329413E+01 -4.32389809455E+01  2.45795357516E+01  1.45162668397E+02  1.25000000000E+02  0.00000000000E+00  1.
        6    2    1    2  501    0  2.51640675486E+02  3.35796401057E+02  7.12437362730E+01  4.59158800954E+02  1.72246573297E+02  0.00000000000E+00  1.
      -24    2    1    2    0    0 -3.06169908428E+02 -2.92557420112E+02 -1.08485683684E+02  4.44444775550E+02  8.02007360298E+01  0.00000000000E+00  1.
        5    1    4    4  501    0  3.91609963307E+01  3.70485656039E+01  6.42498717537E+01  8.40046925314E+01  4.75000000000E+00  0.00000000000E+00  1.
       24    2    4    4    0    0  2.12479679156E+02  2.98747835453E+02  6.99386451931E+00  3.75154108422E+02  7.93335218111E+01  0.00000000000E+00  1.
      -15    1    7    7    0    0  7.87255592168E+01  1.14822535833E+02 -3.57680192234E+01  1.43751301304E+02  1.77680000000E+00  0.00000000000E+00  1.
       16    1    7    7    0    0  1.33754119939E+02  1.83925299620E+02  4.27618837427E+01  2.31402807118E+02  1.65181236989E-06  0.00000000000E+00  1.
        3    1    5    5  704    0 -2.34884483745E+01 -7.39452448215E+00 -2.34592819231E+01  3.40106469757E+01  3.47142691101E-06  0.00000000000E+00  1.
       -4    1    5    5    0  704 -2.82681460053E+02 -2.85162895630E+02 -8.50264017611E+01  4.10434128574E+02  5.47844185499E-06  0.00000000000E+00  1.
</event>
<event>
11 115   1.0000000E+00   7.4550000E+01   7.8125000E-03   1.3429423E-01
        5   -1    0    0  502    0  0.00000000000E+00  0.00000000000E+00  1.71711617149E+03  1.71711617149E+03  0.00000000000E+00  0.00000000000E+00  1.
       21   -1    0    0  501  502  0.00000000000E+00  0.00000000000E+00 -1.02963769985E+03  1.02963769985E+03  0.00000000000E+00  0.00000000000E+00  1.
       25    1    1    2    0    0 -2.42840095430E+02  6.65286575286E+02  5.19285828211E+02  8.87051470088E+02  1.25000000000E+02  0.00000000000E+00  1.
        6    2    1    2  501    0 -6.51387501497E+01  4.93789248752E+01 -6.79510323133E+02  7.05935587177E+02  1.73001268800E+02  0.00000000000E+00  1.
      -24    2    1    2    0    0  3.07978845580E+02 -7.14665500161E+02  8.47702966560E+02  1.15376681407E+03  8.35451691396E+01  0.00000000000E+00  1.
        5    1    4    4  501    0  1.27115559097E+00 -4.72547875107E+01 -2.09920831524E+02  2.15229990445E+02  4.75000000000E+00  0.00000000000E+00  1.
       24    2    4    4    0    0 -6.64099057407E+01  9.66337123859E+01 -4.69589491609E+02  4.90705596732E+02  8.08043444682E+01  0.00000000000E+00  1.
       -3    1    7    7    0  703 -2.28200059287E+00 -1.04493412415E+01 -1.00815724142E+02  1.01381489895E+02  1.34869915235E-06  0.00000000000E+00  1.
        4    1    7    7  703    0 -6.41279051478E+01  1.07083053627E+02 -3.68773767467E+02  3.89324106837E+02  0.00000000000E+00  0.00000000000E+00  1.
        1    1    5    5  704    0  3.03542066297E+02 -7.10565834550E+02  8.48579916505E+02  1.14766260980E+03  0.00000000000E+00  0.00000000000E+00  1.
       -2    1    5    5    0  704  4.43677928279E+00 -4.09966561179E+00 -8.76949944856E-01  6.10420426743E+00  2.52483456589E-06  0.00000000000E+00  1.
</event>
<event>
11 115   1.0000000E+00   7.4550000E+01   7.8125000E-03   1.3429423E-01
       21   -1    0    0  501  502  0.00000000000E+00  0.00000000000E+00  5.61397584384E+02  5.61397584384E+02  0.00000000000E+00  0.00000000000E+00  1.
        5   -1    0    0  502    0  0.00000000000E+00  0.00000000000E+00 -1.14112427683E+03  1.14112427683E+03  0.00000000000E+00  0.00000000000E+00  1.
       25    1    1    2    0    0 -4.63404812375E+02 -1.71064793827E+02 -7.01650782886E+02  8.67148202410E+02  1.25000000000E+02  0.00000000000E+00  1.
        6    2    1    2  501    0  1.29426950211E+02  4.22304206279E+01 -2.37182593836E+02  3.21902269964E+02  1.69796185828E+02  0.00000000000E+00  1.
      -24    2    1    2    0    0  3.33977862164E+02  1.28834373199E+02  3.59106684275E+02  5.13471388841E+02  8.09675758189E+01  0.00000000000E+00  1.
        5    1    4    4  501    0  1.28249105766E+02  2.68687626133E+01 -1.14041245815E+02  1.73774945781E+02  4.75000000000E+00  0.00000000000E+00  1.
       24    2    4    4    0    0  1.17784444501E+00  1.53616580146E+01 -1.23141348021E+02  1.48127324183E+02  8.08736342859E+01  0.00000000000E+00  1.
      -15    1    7    7    0    0  3.47807436130E+01  1.18405834813E+01 -1.01609526727E+02  1.08062724764E+02  1.77680000000E+00  0.00000000000E+00  1.
       16    1    7    7    0    0 -3.36028991679E+01  3.52107453329E+00 -2.15318212939E+01  4.00645994189E+01  1.58148993986E-06  0.00000000000E+00  1.
       11    1    5    5    0    0  2.51036368823E+02  5.80548148700E+01  2.42560910397E+02  3.53872032314E+02  5.11019955316E-04  0.00000000000E+00  1.
      -12    1    5    5    0    0  8.29414933413E+01  7.07795583288E+01  1.16545773878E+02  1.59599356527E+02  1.90734863281E-06  0.00000000000E+00  1.
</event>
<event>
11 115   1.0000000E+00   7.4550000E+01   7.8125000E-03   1.3429423E-01
        5   -1    0    0  502    0  0.00000000000E+00  0.00000000000E+00  1.47339558662E+03  1.47339558662E+03  0.00000000000E+00  0.00000000000E+00  1.
       21   -1    0    0  501  502  0.00000000000E+00  0.00000000000E+00 -1.19056843652E+02  1.19056843652E+02  0.00000000000E+00  0.00000000000E+00  1.
       25    1    1    2    0    0 -1.18954235921E+02  8.57246974019E+01  8.23982150718E+02  8.46209441386E+02  1.25000000000E+02  0.00000000000E+00  1.
        6    2    1    2  501    0  1.80208498779E+02 -3.99139414006E-01  6.01983383718E+01  2.57955827215E+02  1.74476664650E+02  0.00000000000E+00  1.
      -24    2    1    2    0    0 -6.12542628571E+01 -8.53255579879E+01  4.70158253878E+02  4.88287161671E+02  7.96431604060E+01  0.00000000000E+00  1.
        5    1    4    4  501    0  5.43591003490E+01 -6.48343140422E+01  4.02691029457E+01  9.38219762109E+01  4.75000000000E+00  0.00000000000E+00  1.
       24    2    4    4    0    0  1.25849398430E+02  6.44351746282E+01  1.99292354261E+01  1.64133851005E+02  8.09492668679E+01  0.00000000000E+00  1.
      -13    1    7    7    0    0  4.37127642891E+01  6.40576487725E+01  2.59454458412E+01  8.17763135143E+01  1.05660000000E-01  0.00000000000E+00  1.
       14    1    7    7    0    0  8.21366341405E+01  3.77525855750E-01 -6.01621041507E+00  8.23575374903E+01  3.86282247210E-07  0.00000000000E+00  1.
        1    1    5    5  704    0 -6.97780407705E-01 -3.07449131637E+01  3.99129459259E+01  5.03863060308E+01  5.24520874023E-06  0.00000000000E+00  1.
       -2    1    5    5    0  704 -6.05564824494E+01 -5.45806448242E+01  4.30245307952E+02  4.37900855640E+02  5.39479660939E-06  0.00000000000E+00  1.
</event>
<event>
11 115   1.0000000E+00   7.4550000E+01   7.8125000E-03   1.3429423E-01
        5   -1    0    0  502    0  0.00000000000E+00  0.00000000000E+00  2.47658605800E+02  2.47658605800E+02  0.00000000000E+00  0.00000000000E+00  1.
       21   -1    0    0  501  502  0.00000000000E+00  0.00000000000E+00 -6.80988051297E+02  6.80988051297E+02  0.00000000000E+00  0.00000000000E+00  1.
       25    1    1    2    0    0 -6.58320220952E+01 -5.21701792605E+01 -1.94800909880E+02  2.46227490803E+02  1.25000000000E+02  0.00000000000E+00  1.
        6    2    1    2  501    0 -6.36865091883E+00 -1.90697485608E+01 -4.24925798376E+02  4.59586471069E+02  1.73935549098E+02  0.00000000000E+00  1.
      -24    2    1    2    0    0  7.22006730141E+01  7.12399278212E+01  1.86397262759E+02  2.22832695224E+02  6.79882783800E+01  0.00000000000E+00  1.
        5    1    4    4  501    0 -5.88748660844E+01  1.16364852723E+01 -8.02606309591E+01  1.00329402609E+02  4.75000000000E+00  0.00000000000E+00  1.
       24    2    4    4    0    0  5.25062151656E+01 -3.07062338331E+01 -3.44665167417E+02  3.59257068460E+02  8.10665663574E+01  0.00000000000E+00  1.
       -3    1    7    7    0  703  4.80630241985E+01 -1.02251115776E+01 -3.30095023334E+02  3.33732425203E+02  3.81469726562E-06  0.00000000000E+00  1.
        4    1    7    7  703    0  4.44319096712E+00 -2.04811222555E+01 -1.45701440822E+01  2.55246432568E+01  5.08284702428E-06  0.00000000000E+00  1.
       11    1    5    5    0    0  5.29286254776E+00  4.99576643560E+01  6.00979037667E+01  7.83296920667E+01  5.11001712413E-04  0.00000000000E+00  1.
      -12    1    5    5    0    0  6.69078104663E+01  2.12822634652E+01  1.26299358992E+02  1.44503003157E+02  1.90734863281E-06  0.00000000000E+00  1.
</event>
<event>
11 115   1.0000000E+00   7.4550000E+01   7.8125000E-03   1.3429423E-01
        5   -1    0    0  502    0  0.00000000000E+00  0.00000000000E+00  3.07958399730E+02  3.07958399730E+02  0.00000000000E+00  0.00000000000E+00  1.
       21   -1    0    0  501  502  0.00000000000E+00  0.00000000000E+00 -4.78258232271E+02  4.78258232271E+02  0.00000000000E+00  0.00000000000E+00  1.
       25    1    1    2    0    0 -1.89312852095E+02  6.51543791354E+01  1.54984943949E+02  2.82364625864E+02  1.25000000000E+02  0.00000000000E+00  1.
        6    2    1    2  501    0  1.57574984514E+02  4.45795133289E+01 -1.54089848198E+02  2.83869055869E+02  1.73264972828E+02  0.00000000000E+00  1.
      -24    2    1    2    0    0  3.17378675811E+01 -1.09733892464E+02 -1.71194928291E+02  2.19982950268E+02  7.76915409935E+01  0.00000000000E+00  1.
        5    1    4    4  501    0  1.49260670892E+02  1.64033140341E+01 -1.06281759570E+02  1.84027692220E+02  4.75000000000E+00  0.00000000000E+00  1.
       24    2    4    4    0    0  8.31431362179E+00  2.81761992948E+01 -4.78080886279E+01  9.98413636491E+01  8.25812238911E+01  0.00000000000E+00  1.
       -3    1    7    7    0  703  3.39688223042E+01  2.07583584646E+01 -5.87616207580E+01  7.09768864419E+01  6.74349576174E-07  0.00000000000E+00  1.
        4    1    7    7  703    0 -2.56545086824E+01  7.41784083025E+00  1.09535321301E+01  2.88644772072E+01  9.31054315079E-07  0.00000000000E+00  1.
        3    1    5    5  704    0  2.74938096497E+01  7.08362957401E-01 -3.78812592869E+01  4.68124038295E+01  2.52318507296E-06  0.00000000000E+00  1.
       -4    1    5    5    0  704  4.24405793136E+00 -1.10442255422E+02 -1.33313669004E+02  1.73170546438E+02  2.69739830470E-06  0.00000000000E+00  1.
</event>
<event>
11 115   1.0000000E+00   7.4550000E+01   7.8125000E-03   1.3429423E-01
        5   -1    0    0  502    0  0.00000000000E+00  0.00000000000E+00  1.14604312922E+03  1.14604312922E+03  0.00000000000E+00  0.00000000000E+00  1.
       21   -1    0    0  501  502  0.00000000000E+00  0.00000000000E+00 -6.05838084017E+01  6.05838084017E+01  0.00000000000E+00  0.00000000000E+00  1.
       25    1    1    2    0    0 -4.92480453971E+01 -6.45800207876E+01  1.42620040295E+02  2.06304204887E+02  1.25000000000E+02  0.00000000000E+00  1.
        6    2    1    2  501    0  7.89098938620E+01  6.89377921432E+00  3.54334892642E+02  4.02320385185E+02  1.73303723708E+02  0.00000000000E+00  1.
      -24    2    1    2    0    0 -2.96618484649E+01  5.76862415733E+01  5.88504387886E+02  5.98002347554E+02  8.40349058277E+01  0.00000000000E+00  1.
        5    1    4    4  501    0  1.00760299659E+02  2.15572266975E+01  2.23259171436E+02  2.45936113942E+02  4.75000000000E+00  0.00000000000E+00  1.
       24    2    4    4    0    0 -2.18504057967E+01 -1.46634474832E+01  1.31075721205E+02  1.56384271244E+02  8.11340783970E+01  0.00000000000E+00  1.
       -1    1    7    7    0  703 -2.17468879482E+01 -7.12660932397E-01 -2.66204377325E+00  2.19208005804E+01  1.06123052923E-06  0.00000000000E+00  1.
        2    1    7    7  703    0 -1.03517848540E-01 -1.39507865508E+01  1.33737764979E+02  1.34463470663E+02  3.30362473978E-06  0.00000000000E+00  1.
        1    1    5    5  704    0 -2.41496817997E+01 -6.34713064496E+00  3.53109552759E+02  3.53991312673E+02  3.81469726562E-06  0.00000000000E+00  1.
       -2    1    5    5    0  704 -5.51216666516E+00  6.40333722183E+01  2.35394835127E+02  2.44011034881E+02  4.67203091199E-06  0.00000000000E+00  1.
</event>
<event>
11 115   1.0000000E+00   7.4550000E+01   7.8125000E-03   1.3429423E-01
       21   -1    0    0  501  502  0.00000000000E+00  0.00000000000E+00  4.69174041187E+02  4.69174041187E+02  0.00000000000E+00  0.00000000000E+00  1.
        5   -1    0    0  502    0  0.00000000000E+00  0.00000000000E+00 -9.84581465672E+02  9.84581465672E+02  0.00000000000E+00  0.00000000000E+00  1.
       25    1    1    2    0    0 -2.36205639395E+02  3.34152443304E+02 -4.90768942449E+02  6.51099158594E+02  1.25000000000E+02  0.00000000000E+00  1.
        6    2    1    2  501    0 -1.33641335369E+02  3.92270445482E+01  1.19009827125E+02  2.51898145224E+02  1.72888892274E+02  0.00000000000E+00  1.
      -24    2    1    2    0    0  3.69846974764E+02 -3.73379487853E+02 -1.43648309162E+02  5.50758203041E+02  8.06271343935E+01  0.00000000000E+00  1.
        5    1    4    4  501    0 -5.61285652012E+01  7.17903761724E+01  1.26745216735E+01  9.21275200045E+01  4.75000000000E+00  0.00000000000E+00  1.
       24    2    4    4    0    0 -7.75127701681E+01 -3.25633316242E+01  1.06335305452E+02  1.59770625220E+02  8.45627305144E+01  0.00000000000E+00  1.
       -1    1    7    7    0  703 -5.08169414685E+01  2.00311843262E+01  7.55795815331E+01  9.32517186461E+01  2.13248059988E-06  0.00000000000E+00  1.
        2    1    7    7  703    0 -2.66958286996E+01 -5.25945159505E+01  3.07557239185E+01  6.65189065738E+01  6.74349576174E-07  0.00000000000E+00  1.
        1    1    5    5  704    0  1.63659578988E+02 -1.11018053065E+02 -4.53503039655E+01  2.02894346818E+02  1.78416127528E-06  0.00000000000E+00  1.
       -2    1    5    5    0  704  2.06187395776E+02 -2.62361434788E+02 -9.82980051960E+01  3.47863856223E+02  8.31393994053E-06  0.00000000000E+00  1.
</event>
<event>
11 115   1.0000000E+00   7.4550000E+01   7.8125000E-03   1.3429423E-01
       21   -1    0    0  501  502  0.00000000000E+00  0.00000000000E+00  6.58340501587E+02  6.58340501587E+02  0.00000000000E+00  0.00000000000E+00  1.
        5   -1    0    0  502    0  0.00000000000E+00  0.00000000000E+00 -1.51871024657E+02  1.51871024657E+02  0.00000000000E+00  0.00000000000E+00  1.
       25    1    1    2    0    0 -7.46708769288E+01 -4.42297213392E+01  7.27702445932E+01  1.68678737869E+02  1.25000000000E+02  0.00000000000E+00  1.
        6    2    1    2  501    0 -1.38031511168E+02 -3.88423592746E+01  1.57088437176E+02  2.73776807970E+02  1.72381949572E+02  0.00000000000E+00  1.
      -24    2    1    2    0    0  2.12702388097E+02  8.30720806138E+01  2.76610795160E+02  3.67755980405E+02  8.11643557547E+01  0.00000000000E+00  1.
        5    1    4    4  501    0 -8.90645046374E+01 -7.56905516182E+01  5.18589581738E+01  1.27958820069E+02  4.75000000000E+00  0.00000000000E+00  1.
       24    2    4    4    0    0 -4.89670065306E+01  3.68481923436E+01  1.05229479002E+02  1.45817987901E+02  8.02127504625E+01  0.00000000000E+00  1.
      -13    1    7    7    0    0 -6.27525244499E+01  2.98851111894E+01  4.30690841992E+01  8.17676976161E+01  1.05660000004E-01  0.00000000000E+00  1.
       14    1    7    7    0    0  1.37855179193E+01  6.96308115421E+00  6.21603948031E+01  6.40502902846E+01  0.00000000000E+00  0.00000000000E+00  1.
        1    1    5    5  704    0  1.57606058324E+02  5.41849534983E+01  2.49155895521E+02  2.99757133491E+02  2.69739830470E-06  0.00000000000E+00  1.
       -2    1    5    5    0  704  5.50963297731E+01  2.88871271154E+01  2.74548996392E+01  6.79988469141E+01  2.15897205785E-06  0.00000000000E+00  1.
</event>
<event>
11 115   1.0000000E+00   7.4550000E+01   7.8125000E-03   1.3429423E-01
        5   -1    0    0  502    0  0.00000000000E+00  0.00000000000E+00  8.39336792732E+02  8.39336792732E+02  0.00000000000E+00  0.00000000000E+00  1.
       21   -1    0    0  501  502  0.00000000000E+00  0.00000000000E+00 -7.87973164692E+02  7.87973164692E+02  0.00000000000E+00  0.00000000000E+00  1.
       25    1    1    2    0    0 -5.69503645317E+01  1.23883553108E+02 -1.09092175174E+02  2.14747715786E+02  1.25000000000E+02  0.00000000000E+00  1.
        6    2    1    2  501    0  6.57258707837E+02 -8.25580609688E+01 -1.91530238254E+02  7.10806622728E+02  1.72503276173E+02  0.00000000000E+00  1.
      -24    2    1    2    0    0 -6.00308343305E+02 -4.13254921393E+01  3.51986041468E+02  7.01755618910E+02  8.05535346351E+01  0.00000000000E+00  1.
        5    1    4    4  501    0  9.93579735845E+01  3.76854269964E+01 -4.88411535941E+01  1.17047935083E+02  4.75000000000E+00  0.00000000000E+00  1.
       24    2    4    4    0    0  5.57900734252E+02 -1.20243487965E+02 -1.42689084660E+02  5.93758687645E+02  8.04827844703E+01  0.00000000000E+00  1.
       -3    1    7    7    0  703  1.51300750223E+02 -2.10017670240E-01 -5.38857698372E+01  1.60610203028E+02  6.32595975944E-06  0.00000000000E+00  1.
        4    1    7    7  703    0  4.06599984029E+02 -1.20033470295E+02 -8.88033148229E+01  4.33148484618E+02  7.62939453125E-06  0.00000000000E+00  1.
       15    1    5    5    0    0 -5.11803527130E+02 -6.34182967922E+01  3.04701302069E+02  5.99008156248E+02  1.77680000000E+00  0.00000000000E+00  1.
      -16    1    5    5    0    0 -8.85048161747E+01  2.20928046529E+01  4.72847393990E+01  1.02747462663E+02  7.04041626941E-06  0.00000000000E+00  1.
</event>
<event>
11 115   1.0000000E+00   7.4550000E+01   7.8125000E-03   1.3429423E-01
       21   -1    0    0  501  502  0.00000000000E+00  0.00000000000E+00  1.74810268547E+03  1.74810268547E+03  0.00000000000E+00  0.00000000000E+00  1.
        5   -1    0    0  502    0  0.00000000000E+00  0.00000000000E+00 -1.63815905574E+02  1.63815905574E+02  0.00000000000E+00  0.00000000000E+00  1.
       25    1    1    2    0    0 -1.18831019165E+02  7.40341513775E+01 -4.25218090223E+01  1.92444721747E+02  1.25000000000E+02  0.00000000000E+00  1.
        6    2    1    2  501    0  2.56565715473E+02 -1.82842119915E+02  9.92435557354E+02  1.05621280813E+03  1.77200319961E+02  0.00000000000E+00  1.
      -24    2    1    2    0    0 -1.37734696308E+02  1.08807968538E+02  6.34373031565E+02  6.63261061164E+02  8.17072303725E+01  0.00000000000E+00  1.
        5    1    4    4  501    0  9.99959298674E+01  6.55074938510E+00  3.36669544765E+02  3.51299079389E+02  4.74999999999E+00  0.00000000000E+00  1.
       24    2    4    4    0    0  1.56569785605E+02 -1.89392869300E+02  6.55766012590E+02  7.04913728745E+02  8.05639187185E+01  0.00000000000E+00  1.
       -3    1    7    7    0  703  1.50111522302E+02 -1.48319559473E+02  5.94750128017E+02  6.31078343493E+02  0.00000000000E+00  0.00000000000E+00  1.
        4    1    7    7  703    0  6.45826330302E+00 -4.10733098277E+01  6.10158845726E+01  7.38353852517E+01  3.50402318399E-06  0.00000000000E+00  1.
        3    1    5    5  704    0 -2.79681464046E+01  5.87063310543E+01  1.39828023191E+02  1.54209359601E+02  7.86419987796E-06  0.00000000000E+00  1.
       -4    1    5    5    0  704 -1.09766549903E+02  5.01016374836E+01  4.94545008374E+02  5.09051701563E+02  5.39479660939E-06  0.00000000000E+00  1.
</event>
<event>
11 115   1.0000000E+00   7.4550000E+01   7.8125000E-03   1.3429423E-01
        5   -1    0    0  502    0  0.00000000000E+00  0.00000000000E+00  8.65747654385E+01  8.65747654385E+01  0.00000000000E+00  0.00000000000E+00  1.
       21   -1    0    0  501  502  0.00000000000E+00  0.00000000000E+00 -1.29962905319E+03  1.29962905319E+03  0.00000000000E+00  0.00000000000E+00  1.
       25    1    1    2    0    0  6.03715229369E+01 -1.75575566691E+02 -4.15142741960E+02  4.71635448840E+02  1.25000000000E+02  0.00000000000E+00  1.
        6    2    1    2  501    0 -1.19181966360E+02  1.17399327126E+02 -7.54821184379E+02  7.92397197371E+02  1.73641455011E+02  0.00000000000E+00  1.
      -24    2    1    2    0    0  5.88104434234E+01  5.81762395652E+01 -4.30903614143E+01  1.22171172420E+02  7.89042015229E+01  0.00000000000E+00  1.
        5    1    4    4  501    0 -7.79552208453E+01  9.84127555145E+00 -1.19828500497E+02  1.43371193734E+02  4.75000000000E+00  0.00000000000E+00  1.
       24    2    4    4    0    0 -4.12267455151E+01  1.07558051574E+02 -6.34992683882E+02  6.49026003636E+02  6.89250738684E+01  0.00000000000E+00  1.
       -3    1    7    7    0  703  6.73492171070E+00 -6.14616732071E+00 -7.77199868446E+01  7.82529929032E+01  7.68876814680E-06  0.00000000000E+00  1.
        4    1    7    7  703    0 -4.79616672258E+01  1.13704218895E+02 -5.57272697038E+02  5.70773010733E+02  0.00000000000E+00  0.00000000000E+00  1.
        3    1    5    5  704    0  8.56460877649E+00 -1.97537442475E+01 -9.75139483492E+00  2.36358337385E+01  1.49368811681E-06  0.00000000000E+00  1.
       -4    1    5    5    0  704  5.02458346470E+01  7.79299838127E+01 -3.33389665794E+01  9.85353386811E+01  2.02304872852E-06  0.00000000000E+00  1.
</event>
<event>
11 115   1.0000000E+00   7.4550000E+01   7.8125000E-03   1.3429423E-01
        5   -1    0    0  502    0  0.00000000000E+00  0.00000000000E+00  1.12308841488E+03  1.12308841488E+03  0.00000000000E+00  0.00000000000E+00  1.
       21   -1    0    0  501  502  0.00000000000E+00  0.00000000000E+00 -3.13511996703E+02  3.13511996703E+02  0.00000000000E+00  0.00000000000E+00  1.
       25    1    1    2    0    0  2.20923684599E+02  1.02482983594E+02  7.57754768921E+01  2.84036897676E+02  1.25000000000E+02  0.00000000000E+00  1.
        6    2    1    2  501    0 -8.52758812684E+01 -2.09889486254E+02 -1.01290791740E+02  2.96031275667E+02  1.61397395629E+02  0.00000000000E+00  1.
      -24    2    1    2    0    0 -1.35647803330E+02  1.07406502660E+02  8.35091733029E+02  8.56532238242E+02  7.95788239048E+01  0.00000000000E+00  1.
        5    1    4    4  501    0 -9.46697759894E+01 -1.38439063993E+02 -7.05719819509E+01  1.82018427808E+02  4.75000000000E+00  0.00000000000E+00  1.
       24    2    4    4    0    0  9.39389472098E+00 -7.14504222604E+01 -3.07188097893E+01  1.14012847859E+02  8.28364418774E+01  0.00000000000E+00  1.
       -1    1    7    7    0  703 -3.34165014583E+01 -4.25192457769E+01 -3.51483994928E-01  5.40802401266E+01  8.51316458602E-07  0.00000000000E+00  1.
        2    1    7    7  703    0  4.28103961793E+01 -2.89311764835E+01 -3.03673257944E+01  5.99326077328E+01  1.58148993986E-06  0.00000000000E+00  1.
        3    1    5    5  704    0 -3.59364847379E+01  6.31961633838E+01  4.66844741108E+02  4.72471372997E+02  9.34406182397E-06  0.00000000000E+00  1.
       -4    1    5    5    0  704 -9.97113185925E+01  4.42103392760E+01  3.68246991921E+02  3.84060865245E+02  5.39479660939E-06  0.00000000000E+00  1.
</event>
<event>
11 115   1.0000000E+00   7.4550000E+01   7.8125000E-03   1.3429423E-01
        5   -1    0    0  502    0  0.00000000000E+00  0.00000000000E+00  2.63559725683E+02  2.63559725683E+02  0.00000000000E+00  0.00000000000E+00  1.
       21   -1    0    0  501  502  0.00000000000E+00  0.00000000000E+00 -8.84537222565E+02  8.84537222565E+02  0.00000000000E+00  0.00000000000E+00  1.
       25    1    1    2    0    0  1.02709299900E+02 -5.94155308529E+01 -1.10009751276E+02  2.04466503292E+02  1.25000000000E+02  0.00000000000E+00  1.
        6    2    1    2  501    0  1.72439975914E+02  2.82402069973E+02 -4.32790278846E+02  5.71284534304E+02  1.71965459476E+02  0.00000000000E+00  1.
      -24    2    1    2    0    0 -2.75149275814E+02 -2.22986539120E+02 -7.81774667591E+01  3.72345910653E+02  8.42593630510E+01  0.00000000000E+00  1.
        5    1    4    4  501    0  1.57793939561E+02  1.61140575033E+02 -2.96505923956E+02  3.72563468049E+02  4.75000000000E+00  0.00000000000E+00  1.
       24    2    4    4    0    0  1.46460363531E+01  1.21261494940E+02 -1.36284354890E+02  1.98721066254E+02  7.74453371707E+01  0.00000000000E+00  1.
       -3    1    7    7    0  703  4.46749183384E+01  6.12250605761E+01 -8.73686069570E+01  1.15661704348E+02  1.65181236989E-06  0.00000000000E+00  1.
        4    1    7    7  703    0 -3.00288819852E+01  6.00364343641E+01 -4.89157479332E+01  8.30593619064E+01  1.16800772800E-06  0.00000000000E+00  1.
        3    1    5    5  704    0 -9.11015131059E+01 -6.27227952395E+01  1.39678729412E+01  1.11484241969E+02  2.52881091065E-06  0.00000000000E+00  1.
       -4    1    5    5    0  704 -1.84047762708E+02 -1.60263743880E+02 -9.21453397004E+01  2.60861668684E+02  4.04609745705E-06  0.00000000000E+00  1.
</event>
<event>
11 115   1.0000000E+00   7.4550000E+01   7.8125000E-03   1.3429423E-01
        5   -1    0    0  502    0  0.00000000000E+00  0.00000000000E+00  1.77363546870E+02  1.77363546870E+02  0.00000000000E+00  0.00000000000E+00  1.
       21   -1    0    0  501  502  0.00000000000E+00  0.00000000000E+00 -7.13534562070E+02  7.13534562070E+02  0.00000000000E+00  0.00000000000E+00  1.
       25    1    1    2    0    0  5.95740743431E+01  4.65366604195E+01 -8.40706485735E+01  1.68545557783E+02  1.25000000000E+02  0.00000000000E+00  1.
        6    2    1    2  501    0 -1.86715807309E+02  7.80522066455E+01 -4.31741551679E+01  2.69437618383E+02  1.72562113062E+02  0.00000000000E+00  1.
      -24    2    1    2    0    0  1.27141732965E+02 -1.24588867065E+02 -4.08926211458E+02  4.52914932774E+02  7.88915955879E+01  0.00000000000E+00  1.
        5    1    4    4  501    0 -1.35264694268E+02  2.41178409921E+01  1.79048513698E+01  1.38641097703E+02  4.75000000000E+00  0.00000000000E+00  1.
       24    2    4    4    0    0 -5.14511130404E+01  5.39343656535E+01 -6.10790065377E+01  1.30796520680E+02  8.84361461786E+01  0.00000000000E+00  1.
       -1    1    7    7    0  703  3.13178704279E+00  4.72699144633E+01  1.61923695561E+00  4.74012112901E+01  8.42409969872E-07  0.00000000000E+00  1.
        2    1    7    7  703    0 -5.45829000832E+01  6.66445119014E+00 -6.26982434933E+01  8.33953093903E+01  9.53674316406E-07  0.00000000000E+00  1.
       13    1    5    5    0    0  9.83919114051E+01 -1.31243694289E+02 -3.26968557619E+02  3.65806402836E+02  1.05659999952E-01  0.00000000000E+00  1.
      -14    1    5    5    0    0  2.87498215604E+01  6.65482722391E+00 -8.19576538393E+01  8.71085299381E+01  2.86102294922E-06  0.00000000000E+00  1.
</event>
<event>
11 115   1.0000000E+00   7.4550000E+01   7.8125000E-03   1.3429423E-01
        5   -1    0    0  502    0  0.00000000000E+00  0.00000000000E+00  1.32841272212E+03  1.32841272212E+03  0.00000000000E+00  0.00000000000E+00  1.
       21   -1    0    0  501  502  0.00000000000E+00  0.00000000000E+00 -9.91534156606E+02  9.91534156606E+02  0.00000000000E+00  0.00000000000E+00  1.
       25    1    1    2    0    0  1.25160739262E+00  1.84184740332E+01  5.75876262526E+02  5.89575505298E+02  1.25000000000E+02  0.00000000000E+00  1.
        6    2    1    2  501    0  2.94116519664E+01  1.96204099949E+02 -9.48270670332E+02  9.84203491466E+02  1.73430546020E+02  0.00000000000E+00  1.
      -24    2    1    2    0    0 -3.06632593590E+01 -2.14622573982E+02  7.09272973319E+02  7.46167881961E+02  8.18246457423E+01  0.00000000000E+00  1.
        5    1    4    4  501    0 -3.13981441512E+01  5.77875033820E+01 -5.02939468023E+02  5.07243442539E+02  4.74999999999E+00  0.00000000000E+00  1.
       24    2    4    4    0    0  6.08097961176E+01  1.38416596567E+02 -4.45331202309E+02  4.76960048927E+02  7.94608269095E+01  0.00000000000E+00  1.
       -1    1    7    7    0  703 -1.18950451686E+00  2.39668739891E+01 -1.73197390547E+01  2.95939069866E+01  3.96090691706E-06  0.00000000000E+00  1.
        2    1    7    7  703    0  6.19993006345E+01  1.14449722578E+02 -4.28011463255E+02  4.47366141941E+02  7.62939453125E-06  0.00000000000E+00  1.
       15    1    5    5    0    0 -2.67745275600E+01 -1.85993516749E+01  1.50361926411E+02  1.53865776380E+02  1.77680000001E+00  0.00000000000E+00  1.
      -16    1    5    5    0    0 -3.88873179895E+00 -1.96023222307E+02  5.58911046908E+02  5.92302105580E+02  7.62939453125E-06  0.00000000000E+00  1.
</event>
<event>
11 115   1.0000000E+00   7.4550000E+01   7.8125000E-03   1.3429423E-01
        5   -1    0    0  502    0  0.00000000000E+00  0.00000000000E+00  4.15169238906E+02  4.15169238906E+02  0.00000000000E+00  0.00000000000E+00  1.
       21   -1    0    0  501  502  0.00000000000E+00  0.00000000000E+00 -4.19644540574E+02  4.19644540574E+02  0.00000000000E+00  0.00000000000E+00  1.
       25    1    1    2    0    0  8.63621276801E+01  7.49973210183E+01  2.62236094392E+02  3.12211121613E+02  1.25000000000E+02  0.00000000000E+00  1.
        6    2    1    2  501    0  1.01399459331E+02 -7.33792947294E+01 -3.99518729174E+01  2.18281409248E+02  1.74310786316E+02  0.00000000000E+00  1.
      -24    2    1    2    0    0 -1.87761587011E+02 -1.61802628886E+00 -2.26759523142E+02  3.04321248618E+02  7.70357673990E+01  0.00000000000E+00  1.
        5    1    4    4  501    0  7.96799893587E+01 -9.38003054987E+01 -4.05887513277E+00  1.23233254372E+02  4.75000000000E+00  0.00000000000E+00  1.
       24    2    4    4    0    0  2.17194699723E+01  2.04210107692E+01 -3.58929977846E+01  9.50481548755E+01  8.28075564098E+01  0.00000000000E+00  1.
       -3    1    7    7    0  703  5.13188786162E+01 -7.99659815122E-01 -1.73445400789E+01  5.41765616184E+01  6.74349576174E-07  0.00000000000E+00  1.
        4    1    7    7  703    0 -2.95994086438E+01  2.12206705844E+01 -1.85484577057E+01  4.08715932571E+01  1.19209289551E-06  0.00000000000E+00  1.
       15    1    5    5    0    0 -2.36427097557E+01  1.65170848920E+01 -7.51924480903E+00  2.98577942698E+01  1.77680000000E+00  0.00000000000E+00  1.
      -16    1    5    5    0    0 -1.64118877255E+02 -1.81351111809E+01 -2.19240278333E+02  2.74463454348E+02  6.03156597170E-06  0.00000000000E+00  1.
</event>
<event>
11 115   1.0000000E+00   7.4550000E+01   7.8125000E-03   1.3429423E-01
        5   -1    0    0  502    0  0.00000000000E+00  0.00000000000E+00  6.71757859756E+02  6.71757859756E+02  0.00000000000E+00  0.00000000000E+00  1.
       21   -1    0    0  501  502  0.00000000000E+00  0.00000000000E+00 -4.66548274457E+02  4.66548274457E+02  0.00000000000E+00  0.00000000000E+00  1.
       25    1    1    2    0    0 -3.78700499458E+01 -1.71353222628E+02 -3.34066768872E+02  3.97519400348E+02  1.25000000000E+02  0.00000000000E+00  1.
        6    2    1    2  501    0 -4.87696672740E+01  9.30021924405E+01  2.16283421362E+01  2.04071155449E+02  1.73635719419E+02  0.00000000000E+00  1.
      -24    2    1    2    0    0  8.66397172198E+01  7.83510301874E+01  5.17648012035E+02  5.36715578416E+02  8.03668042111E+01  0.00000000000E+00  1.
        5    1    4    4  501    0 -3.33409555967E+01 -3.14835195466E+01 -1.83942246672E+01  4.96360889298E+01  4.75000000000E+00  0.00000000000E+00  1.
       24    2    4    4    0    0 -1.54287116773E+01  1.24485711987E+02  4.00225668035E+01  1.54435066519E+02  8.07071637735E+01  0.00000000000E+00  1.
      -15    1    7    7    0    0 -3.95081952850E+01  7.45483521740E+01  5.00224022616E+01  9.81007240177E+01  1.77680000000E+00  0.00000000000E+00  1.
       16    1    7    7    0    0  2.40794836077E+01  4.99373598131E+01 -9.99983545811E+00  5.63343425017E+01  9.00010399255E-07  0.00000000000E+00  1.
        3    1    5    5  704    0  3.50835942617E+01  5.39311870995E+00  5.45668437443E+01  6.50959657118E+01  7.71828368008E-06  0.00000000000E+00  1.
       -4    1    5    5    0  704  5.15561229582E+01  7.29579114774E+01  4.63081168291E+02  4.71619612704E+02  5.39479660939E-06  0.00000000000E+00  1.
</event>
<event>
11 115   1.0000000E+00   7.4550000E+01   7.8125000E-03   1.3429423E-01
       21   -1    0    0  501  502  0.00000000000E+00  0.00000000000E+00  1.76638556435E+02  1.76638556435E+02  0.00000000000E+00  0.00000000000E+00  1.
        5   -1    0    0  502    0  0.00000000000E+00  0.00000000000E+00 -6.35564824748E+02  6.35564824748E+02  0.00000000000E+00  0.00000000000E+00  1.
       25    1    1    2    0    0  1.84599090456E+02 -2.09659274957E+00 -1.69580331627E+02  2.80113742564E+02  1.25000000000E+02  0.00000000000E+00  1.
        6    2    1    2  501    0  3.51682639970E+01 -2.23574205490E+01 -2.76449131755E+01  1.80248029681E+02  1.73171735377E+02  0.00000000000E+00  1.
      -24    2    1    2    0    0 -2.19767354453E+02  2.44540132985E+01 -2.61701023511E+02  3.51841608937E+02  8.00587485721E+01  0.00000000000E+00  1.
        5    1    4    4  501    0  1.13893121779E+01  3.02105701597E+01  4.63475039780E+01  5.66837596340E+01  4.75000000000E+00  0.00000000000E+00  1.
       24    2    4    4    0    0  2.37789518190E+01 -5.25679907087E+01 -7.39924171534E+01  1.23564270047E+02  8.04016096815E+01  0.00000000000E+00  1.
      -11    1    7    7    0    0  2.65499321368E+01 -2.43301185662E+00  7.63235652756E+00  2.77321349627E+01  5.10999202573E-04  0.00000000000E+00  1.
       12    1    7    7    0    0 -2.77098031781E+00 -5.01349788520E+01 -8.16247736810E+01  9.58321350847E+01  9.53674316406E-07  0.00000000000E+00  1.
        1    1    5    5  704    0 -9.14738763444E+01 -2.34526200424E+01 -1.38521394408E+02  1.67647463891E+02  1.90734863281E-06  0.00000000000E+00  1.
       -2    1    5    5    0  704 -1.28293478109E+02  4.79066333409E+01 -1.23179629103E+02  1.84194145046E+02  2.33601545599E-06  0.00000000000E+00  1.
</event>
<event>
11 115   1.0000000E+00   7.4550000E+01   7.8125000E-03   1.3429423E-01
        5   -1    0    0  502    0  0.00000000000E+00  0.00000000000E+00  1.27648271466E+03  1.27648271466E+03  0.00000000000E+00  0.00000000000E+00  1.
       21   -1    0    0  501  502  0.00000000000E+00  0.00000000000E+00 -8.69821079190E+02  8.69821079190E+02  0.00000000000E+00  0.00000000000E+00  1.
       25    1    1    2    0    0 -3.93953282861E+02  1.40852296269E+02  1.12541561084E+03  1.20715527401E+03  1.25000000000E+02  0.00000000000E+00  1.
        6    2    1    2  501    0  4.07968646321E+02 -7.88761540184E+01 -7.00055050429E+02  8.32272388536E+02  1.73032918932E+02  0.00000000000E+00  1.
      -24    2    1    2    0    0 -1.40153634595E+01 -6.19761422503E+01 -1.86989249379E+01  1.06876131309E+02  8.38772020794E+01  0.00000000000E+00  1.
        5    1    4    4  501    0  2.92468822282E+02 -9.12120521708E+01 -5.03260276647E+02  5.89195314831E+02  4.74999999999E+00  0.00000000000E+00  1.
       24    2    4    4    0    0  1.15499824039E+02  1.23358981525E+01 -1.96794773783E+02  2.43077073705E+02  8.28607086420E+01  0.00000000000E+00  1.
      -11    1    7    7    0    0  1.06485323326E+02  2.35627476958E+01 -2.00471210367E+02  2.28217075060E+02  5.11019955316E-04  0.00000000000E+00  1.
       12    1    7    7    0    0  9.01450071338E+00 -1.12268495433E+01  3.67643658409E+00  1.48599986453E+01  1.54742657968E-06  0.00000000000E+00  1.
        3    1    5    5  704    0 -3.47904785397E+00  6.75550046201E+00  2.40702882780E+01  2.52412229944E+01  1.50789149292E-06  0.00000000000E+00  1.
       -4    1    5    5    0  704 -1.05363156055E+01 -6.87316427123E+01 -4.27692132159E+01  8.16349083149E+01  2.13248059988E-06  0.00000000000E+00  1.
</event>
<event>
11 115   1.0000000E+00   7.4550000E+01   7.8125000E-03   1.3429423E-01
       21   -1    0    0  501  502  0.00000000000E+00  0.00000000000E+00  3.26309926604E+02  3.26309926604E+02  0.00000000000E+00  0.00000000000E+00  1.
        5   -1    0    0  502    0  0.00000000000E+00  0.00000000000E+00 -3.90978900056E+02  3.90978900056E+02  0.00000000000E+00  0.00000000000E+00  1.
       25    1    1    2    0    0 -1.36287115569E+02 -4.57348981080E+01 -1.09059131290E+01  1.90813515549E+02  1.25000000000E+02  0.00000000000E+00  1.
        6    2    1    2  501    0 -1.81842175911E+01 -6.46515748020E+01  1.49482894890E+02  2.37002497998E+02  1.71214941810E+02  0.00000000000E+00  1.
      -24    2    1    2    0    0  1.54471333160E+02  1.10386472910E+02 -2.03245955213E+02  2.89472813112E+02  8.02435358817E+01  0.00000000000E+00  1.
        5    1    4    4  501    0 -2.23028987250E+01 -9.91198703793E+00  1.35565785591E+02  1.37827107282E+02  4.75000000000E+00  0.00000000000E+00  1.
       24    2    4    4    0    0  4.11868113393E+00 -5.47395877640E+01  1.39171092981E+01  9.91753907168E+01  8.14167439152E+01  0.00000000000E+00  1.
      -13    1    7    7    0    0 -2.66519199679E+01 -4.57627420574E+01 -1.60075152657E+01  5.53245434468E+01  1.05659999999E-01  0.00000000000E+00  1.
       14    1    7    7    0    0  3.07706011018E+01 -8.97684570665E+00  2.99246245638E+01  4.38508472700E+01  8.25906184945E-07  0.00000000000E+00  1.
        3    1    5    5  704    0  5.54663126748E+01  4.29975294933E+01 -2.45403100429E+01  7.43473348633E+01  3.75461953831E-06  0.00000000000E+00  1.
       -4    1    5    5    0  704  9.90050204854E+01  6.73889434166E+01 -1.78705645170E+02  2.15125478249E+02  3.81469726562E-06  0.00000000000E+00  1.
</event>
<event>
11 115   1.0000000E+00   7.4550000E+01   7.8125000E-03   1.3429423E-01
       21   -1    0    0  501  502  0.00000000000E+00  0.00000000000E+00  1.17439383079E+02  1.17439383079E+02  0.00000000000E+00  0.00000000000E+00  1.
        5   -1    0    0  502    0  0.00000000000E+00  0.00000000000E+00 -5.89773623974E+02  5.89773623974E+02  0.00000000000E+00  0.00000000000E+00  1.
       25    1    1    2    0    0 -1.02909018736E+02  1.37257568700E+01 -1.55085241675E+02  2.24622115394E+02  1.25000000000E+02  0.00000000000E+00  1.
        6    2    1    2  501    0  1.10622987959E+02 -9.66745533130E+01 -2.84626069578E+02  3.63704229890E+02  1.72294377835E+02  0.00000000000E+00  1.
      -24    2    1    2    0    0 -7.71396922234E+00  8.29487964430E+01 -3.26229296427E+01  1.18886661768E+02  7.82928774248E+01  0.00000000000E+00  1.
        5    1    4    4  501    0  7.00466625664E+01 -7.14251758221E+01 -5.19734986079E+01  1.12835711260E+02  4.75000000000E+00  0.00000000000E+00  1.
       24    2    4    4    0    0  4.05763253921E+01 -2.52493774908E+01 -2.32652570970E+02  2.50868518631E+02  8.07702025196E+01  0.00000000000E+00  1.
      -11    1    7    7    0    0 -1.52498162148E+01  1.21302917756E+01 -2.02891200538E+01  2.81309307696E+01  5.11002435467E-04  0.00000000000E+00  1.
       12    1    7    7    0    0  5.58261416069E+01 -3.73796692665E+01 -2.12363450916E+02  2.22737587861E+02  4.67203091199E-06  0.00000000000E+00  1.
        1    1    5    5  704    0 -2.03680574705E+01 -3.77842246901E-01 -2.78023004349E+01  3.44669180427E+01  1.21570098724E-06  0.00000000000E+00  1.
       -2    1    5    5    0  704  1.26540882482E+01  8.33266386899E+01 -4.82062920772E+00  8.44197437256E+01  1.31535986011E-06  0.00000000000E+00  1.
</event>
<event>
11 115   1.0000000E+00   7.4550000E+01   7.8125000E-03   1.3429423E-01
       21   -1    0    0  501  502  0.00000000000E+00  0.00000000000E+00  3.38268712883E+02  3.38268712883E+02  0.00000000000E+00  0.00000000000E+00  1.
        5   -1    0    0  502    0  0.00000000000E+00  0.00000000000E+00 -5.07575062116E+02  5.07575062116E+02  0.00000000000E+00  0.00000000000E+00  1.
       25    1    1    2    0    0 -2.09521336417E+02 -2.08896554888E+02 -2.31853830402E+02  3.96128968557E+02  1.25000000000E+02  0.00000000000E+00  1.
        6    2    1    2  501    0  1.08493511386E+02  9.73370378837E+01  1.35202882167E+02  2.65540518658E+02  1.76030130223E+02  0.00000000000E+00  1.
      -24    2    1    2    0    0  1.01027825031E+02  1.11559517004E+02 -7.26554009973E+01  1.84174287784E+02  7.73900104791E+01  0.00000000000E+00  1.
        5    1    4    4  501    0  2.58825547596E+01 -2.90517035363E+01 -1.09289049390E+01  4.06928935124E+01  4.75000000000E+00  0.00000000000E+00  1.
       24    2    4    4    0    0  8.26109566265E+01  1.26388741420E+02  1.46131787106E+02  2.24847625146E+02  8.00204425052E+01  0.00000000000E+00  1.
       -1    1    7    7    0  703 -1.54608190290E+01  2.61043039915E+01  3.10548403784E+01  4.34151439345E+01  7.53945746462E-07  0.00000000000E+00  1.
        2    1    7    7  703    0  9.80717756555E+01  1.00284437428E+02  1.15076946727E+02  1.81432481212E+02  1.90734863281E-06  0.00000000000E+00  1.
        3    1    5    5  704    0  3.71276203254E+01  5.22715915043E+01 -7.27968422841E+01  9.70059777330E+01  9.53674316406E-07  0.00000000000E+00  1.
       -4    1    5    5    0  704  6.39002047056E+01  5.92879254996E+01  1.41441286733E-01  8.71683100508E+01  8.61152644796E-07  0.00000000000E+00  1.
</event>
<event>
11 115   1.0000000E+00   7.4550000E+01   7.8125000E-03   1.3429423E-01
        5   -1    0    0  502    0  0.00000000000E+00  0.00000000000E+00  6.62924280199E+02  6.62924280199E+02  0.00000000000E+00  0.00000000000E+00  1.
       21   -1    0    0  501  502  0.00000000000E+00  0.00000000000E+00 -1.77503445569E+02  1.77503445569E+02  0.00000000000E+00  0.00000000000E+00  1.
       25    1    1    2    0    0  1.67857442655E+02 -7.90224731868E+01  2.74739729309E+02  3.54298731559E+02  1.25000000000E+02  0.00000000000E+00  1.
        6    2    1    2  501    0 -7.90614043675E+01  1.95322364608E+02  1.62954126162E+02  3.15976112366E+02  1.69956831508E+02  0.00000000000E+00  1.
      -24    2    1    2    0    0 -8.87960382879E+01 -1.16299891421E+02  4.77269791595E+01  1.70152881843E+02  7.25516195520E+01  0.00000000000E+00  1.
        5    1    4    4  501    0 -2.64427031065E+01  1.51349132772E+02  5.34578094310E+01  1.62745434429E+02  4.75000000000E+00  0.00000000000E+00  1.
       24    2    4    4    0    0 -5.26187012610E+01  4.39732318362E+01  1.09496316731E+02  1.53230677937E+02  8.23882542779E+01  0.00000000000E+00  1.
      -13    1    7    7    0    0 -1.84701773985E+01  1.36394585590E+01 -1.01934796616E+01  2.51217132091E+01  1.05660000027E-01  0.00000000000E+00  1.
       14    1    7    7    0    0 -3.41485238625E+01  3.03337732772E+01  1.19689796393E+02  1.28108964728E+02  2.33601545599E-06  0.00000000000E+00  1.
        3    1    5    5  704    0  3.05006172223E+00 -1.59837106898E+01  2.84605339030E+01  3.27838965647E+01  3.37174788087E-07  0.00000000000E+00  1.
       -4    1    5    5    0  704 -9.18461000101E+01 -1.00316180731E+02  1.92664452566E+01  1.37368985278E+02  1.19209289551E-06  0.00000000000E+00  1.
</event>
<event>
11 115   1.0000000E+00   7.4550000E+01   7.8125000E-03   1.3429423E-01
        5   -1    0    0  502    0  0.00000000000E+00  0.00000000000E+00  3.46175233880E+02  3.46175233880E+02  0.00000000000E+00  0.00000000000E+00  1.
       21   -1    0    0  501  502  0.00000000000E+00  0.00000000000E+00 -2.90472975214E+02  2.90472975214E+02  0.00000000000E+00  0.00000000000E+00  1.
       25    1    1    2    0    0 -1.18783047570E+02 -1.81367167702E+01 -2.15881878868E+01  1.74726651492E+02  1.25000000000E+02  0.00000000000E+00  1.
        6    2    1    2  501    0 -9.77710328651E+00 -3.08606865288E+01 -1.17788505481E+02  2.11850209537E+02  1.73084966233E+02  0.00000000000E+00  1.
      -24    2    1    2    0    0  1.28560150857E+02  4.89974032990E+01  1.95078952034E+02  2.50071348066E+02  7.45078766197E+01  0.00000000000E+00  1.
        5    1    4    4  501    0  1.97003644697E+01 -5.69935039052E+01  9.15912751194E+00  6.11785580445E+01  4.75000000000E+00  0.00000000000E+00  1.
       24    2    4    4    0    0 -2.94774677562E+01  2.61328173764E+01 -1.26947632993E+02  1.50671651493E+02  7.09535044353E+01  0.00000000000E+00  1.
      -15    1    7    7    0    0 -2.30841671822E+00 -1.65127527383E+01 -7.97786245211E+01  8.15216887672E+01  1.77680000000E+00  0.00000000000E+00  1.
       16    1    7    7    0    0 -2.71690510380E+01  4.26455701147E+01 -4.71690084722E+01  6.91499627257E+01  1.78416127528E-06  0.00000000000E+00  1.
        3    1    5    5  704    0  1.20247601328E+02  6.48601246888E+01  1.83379960200E+02  2.28679975518E+02  2.69739830470E-06  0.00000000000E+00  1.
       -4    1    5    5    0  704  8.31254952846E+00 -1.58627213899E+01  1.16989918342E+01  2.13913725481E+01  2.45466950917E-06  0.00000000000E+00  1.
</event>
<event>
11 115   1.0000000E+00   7.4550000E+01   7.8125000E-03   1.3429423E-01
       21   -1    0    0  501  502  0.00000000000E+00  0.00000000000E+00  1.03831022015E+03  1.03831022015E+03  0.00000000000E+00  0.00000000000E+00  1.
        5   -1    0    0  502    0  0.00000000000E+00  0.00000000000E+00 -3.80109314389E+02  3.80109314389E+02  0.00000000000E+00  0.00000000000E+00  1.
       25    1    1    2    0    0  2.04084640798E+02 -1.74050576841E+02  3.97769295008E+02  4.95771677247E+02  1.25000000000E+02  0.00000000000E+00  1.
        6    2    1    2  501    0 -5.39152807451E+01  4.23107353743E+02  3.81345212068E+02  5.97553841186E+02  1.72394118404E+02  0.00000000000E+00  1.
      -24    2    1    2    0    0 -1.50169360053E+02 -2.49056776902E+02 -1.20913601311E+02  3.25094016110E+02  8.05351197242E+01  0.00000000000E+00  1.
        5    1    4    4  501    0 -6.12478615519E+01  3.37426085391E+02  2.95884178096E+02  4.52965421411E+02  4.75000000000E+00  0.00000000000E+00  1.
       24    2    4    4    0    0  7.33258080683E+00  8.56812683525E+01  8.54610339713E+01  1.44588419775E+02  7.87856352247E+01  0.00000000000E+00  1.
      -11    1    7    7    0    0 -6.88811815103E+00  5.12378133186E+01  3.74840349738E-01  5.17000985578E+01  5.10995590392E-04  0.00000000000E+00  1.
       12    1    7    7    0    0  1.42206989579E+01  3.44434550338E+01  8.50861936215E+01  9.28883212170E+01  2.33601545599E-06  0.00000000000E+00  1.
       11    1    5    5    0    0 -1.15608394282E+02 -1.62037381329E+02 -4.38424020278E+01  2.03822398162E+02  5.11005939485E-04  0.00000000000E+00  1.
      -12    1    5    5    0    0 -3.45609657705E+01 -8.70193955725E+01 -7.70711992828E+01  1.21271617948E+02  1.65181236989E-06  0.00000000000E+00  1.
</event>
<event>
11 115   1.0000000E+00   7.4550000E+01   7.8125000E-03   1.3429423E-01
        5   -1    0    0  502    0  0.00000000000E+00  0.00000000000E+00  1.85761071572E+02  1.85761071572E+02  0.00000000000E+00  0.00000000000E+00  1.
       21   -1    0    0  501  502  0.00000000000E+00  0.00000000000E+00 -1.36197461366E+03  1.36197461366E+03  0.00000000000E+00  0.00000000000E+00  1.
       25    1    1    2    0    0  8.04136916542E+01  4.36678776367E+02 -4.87467918543E+02  6.71121961453E+02  1.25000000000E+02  0.00000000000E+00  1.
        6    2    1    2  501    0 -1.11618317272E+02 -3.87149430300E+02 -5.98110184698E+02  7.41336083791E+02  1.71755832387E+02  0.00000000000E+00  1.
      -24    2    1    2    0    0  3.12046256180E+01 -4.95293460674E+01 -9.06354388429E+01  1.35277639985E+02  8.15988500161E+01  0.00000000000E+00  1.
        5    1    4    4  501    0 -8.75471658876E+01 -9.83604719466E+01 -2.46559050250E+02  2.79558967763E+02  4.75000000000E+00  0.00000000000E+00  1.
       24    2    4    4    0    0 -2.40711513846E+01 -2.88788958353E+02 -3.51551134449E+02  4.61777116029E+02  7.53088438351E+01  0.00000000000E+00  1.
       -3    1    7    7    0  703  1.13921445713E+01 -6.97592001768E+01 -1.31429200939E+02  1.49230565993E+02  2.69739830470E-06  0.00000000000E+00  1.
        4    1    7    7  703    0 -3.54632959559E+01 -2.19029758176E+02 -2.20121933510E+02  3.12546550035E+02  2.69739830470E-06  0.00000000000E+00  1.
        3    1    5    5  704    0  4.11056731652E+01 -6.70499380398E+01 -6.13578031466E+01  9.97504414250E+01  9.53674316406E-07  0.00000000000E+00  1.
       -4    1    5    5    0  704 -9.90104754716E+00  1.75205919723E+01 -2.92776356963E+01  3.55271985605E+01  9.53674316406E-07  0.00000000000E+00  1.
</event>
<event>
11 115   1.0000000E+00   7.4550000E+01   7.8125000E-03   1.3429423E-01
        5   -1    0    0  502    0  0.00000000000E+00  0.00000000000E+00  2.88865848284E+01  2.88865848284E+01  0.00000000000E+00  0.00000000000E+00  1.
       21   -1    0    0  501  502  0.00000000000E+00  0.00000000000E+00 -2.18529122204E+03  2.18529122204E+03  0.00000000000E+00  0.00000000000E+00  1.
       25    1    1    2    0    0  4.12432805093E+00  6.63352338802E+01 -3.34503523239E+02  3.63228551184E+02  1.25000000000E+02  0.00000000000E+00  1.
        6    2    1    2  501    0  6.29933797970E+01 -1.08142865111E+02 -1.14564807637E+03  1.16553901597E+03  1.74093761142E+02  0.00000000000E+00  1.
      -24    2    1    2    0    0 -6.71177078480E+01  4.18076312305E+01 -6.76253037594E+02  6.85410239714E+02  7.88439034596E+01  0.00000000000E+00  1.
        5    1    4    4  501    0  9.25164480561E+01 -8.18687714804E+01 -7.37563623651E+02  7.47853227805E+02  4.75000000001E+00  0.00000000000E+00  1.
       24    2    4    4    0    0 -2.95230682591E+01 -2.62740936303E+01 -4.08084452722E+02  4.17685788161E+02  7.97907107553E+01  0.00000000000E+00  1.
       -3    1    7    7    0  703  2.21413160160E+00 -3.99326247650E+01 -1.00479199956E+02  1.08146135036E+02  3.30362473978E-06  0.00000000000E+00  1.
        4    1    7    7  703    0 -3.17371998607E+01  1.36585311347E+01 -3.07605252766E+02  3.09539653125E+02  3.81469726562E-06  0.00000000000E+00  1.
        3    1    5    5  704    0 -2.13732746763E+01  5.81871470472E+01 -3.30930278331E+02  3.36685921993E+02  7.62939453125E-06  0.00000000000E+00  1.
       -4    1    5    5    0  704 -4.57444331717E+01 -1.63795158167E+01 -3.45322759263E+02  3.48724317721E+02  5.39479660939E-06  0.00000000000E+00  1.
</event>
<event>
11 115   1.0000000E+00   7.4550000E+01   7.8125000E-03   1.3429423E-01
       21   -1    0    0  501  502  0.00000000000E+00  0.00000000000E+00  1.94507514394E+03  1.94507514394E+03  0.00000000000E+00  0.00000000000E+00  1.
        5   -1    0    0  502    0  0.00000000000E+00  0.00000000000E+00 -1.24183194196E+02  1.24183194196E+02  0.00000000000E+00  0.00000000000E+00  1.
       25    1    1    2    0    0  9.80751346885E+00  9.89649602609E+01  2.75814908365E+01  1.62098702390E+02  1.25000000000E+02  0.00000000000E+00  1.
        6    2    1    2  501    0 -2.76656374755E+02  5.14311408691E+01  9.70962919395E+02  1.02590894605E+03  1.74746281220E+02  0.00000000000E+00  1.
      -24    2    1    2    0    0  2.66848861286E+02 -1.50396101130E+02  8.22347539512E+02  8.81250689695E+02  8.07465190712E+01  0.00000000000E+00  1.
        5    1    4    4  501    0 -2.13065866835E+02  7.40030512327E+01  6.39308070782E+02  6.77946079766E+02  4.75000000001E+00  0.00000000000E+00  1.
       24    2    4    4    0    0 -6.35905079202E+01 -2.25719103636E+01  3.31654848612E+02  3.47962866284E+02  8.08082537192E+01  0.00000000000E+00  1.
       -1    1    7    7    0  703 -9.34468252282E+00  1.10185976027E+01  5.23661944593E+00  1.53673279331E+01  6.05654759195E-06  0.00000000000E+00  1.
        2    1    7    7  703    0 -5.42458253974E+01 -3.35905079662E+01  3.26418229166E+02  3.32595538351E+02  3.81469726562E-06  0.00000000000E+00  1.
        1    1    5    5  704    0  2.44724956648E+02 -1.06851807381E+02  7.17634411262E+02  7.65706707149E+02  1.07895932188E-05  0.00000000000E+00  1.
       -2    1    5    5    0  704  2.21239046382E+01 -4.35442937493E+01  1.04713128251E+02  1.15543982546E+02  4.04609745705E-06  0.00000000000E+00  1.
</event>
<event>
11 115   1.0000000E+00   7.4550000E+01   7.8125000E-03   1.3429423E-01
       21   -1    0    0  501  502  0.00000000000E+00  0.00000000000E+00  4.87396063404E+02  4.87396063404E+02  0.00000000000E+00  0.00000000000E+00  1.
        5   -1    0    0  502    0  0.00000000000E+00  0.00000000000E+00 -4.83930842678E+02  4.83930842678E+02  0.00000000000E+00  0.00000000000E+00  1.
       25    1    1    2    0    0  2.56292532870E+02 -3.08775227292E+02 -6.47249945957E+01  4.25255603513E+02  1.25000000000E+02  0.00000000000E+00  1.
        6    2    1    2  501    0  1.60772540837E+00  1.36010306337E+02  4.37235190613E+01  2.24500372983E+02  1.73168366452E+02  0.00000000000E+00  1.
      -24    2    1    2    0    0 -2.57900258278E+02  1.72764920955E+02  2.44666962599E+01  3.21570929586E+02  8.03055564461E+01  0.00000000000E+00  1.
        5    1    4    4  501    0 -3.31160789532E+01 -2.09774909037E+01  1.74524419707E+01  4.31726770145E+01  4.75000000000E+00  0.00000000000E+00  1.
       24    2    4    4    0    0  3.47238043616E+01  1.56987797240E+02  2.62710770905E+01  1.81327695968E+02  7.96156565130E+01  0.00000000000E+00  1.
       -3    1    7    7    0  703 -1.75823369985E+00  1.09125029870E+02 -1.23256754494E+01  1.09832990513E+02  2.11239399274E-06  0.00000000000E+00  1.
        4    1    7    7  703    0  3.64820380615E+01  4.78627673708E+01  3.85967525399E+01  7.14947054553E+01  8.25906184945E-07  0.00000000000E+00  1.
        1    1    5    5  704    0 -4.67138376572E+01  7.22839341746E+01 -2.82981801921E+00  8.61113095850E+01  2.74634505117E-06  0.00000000000E+00  1.
       -2    1    5    5    0  704 -2.11186420621E+02  1.00480986781E+02  2.72965142791E+01  2.35459620001E+02  7.53945746462E-07  0.00000000000E+00  1.
</event>
<event>
11 115   1.0000000E+00   7.4550000E+01   7.8125000E-03   1.3429423E-01
        5   -1    0    0  502    0  0.00000000000E+00  0.00000000000E+00  2.36161163056E+02  2.36161163056E+02  0.00000000000E+00  0.00000000000E+00  1.
       21   -1    0    0  501  502  0.00000000000E+00  0.00000000000E+00 -1.49426135457E+03  1.49426135457E+03  0.00000000000E+00  0.00000000000E+00  1.
       25    1    1    2    0    0  2.50270248349E+02 -1.13198267360E+02 -2.59621597512E+02  3.98092224035E+02  1.25000000000E+02  0.00000000000E+00  1.
        6    2    1    2  501    0  1.12090408560E+02 -2.21898081860E+02 -6.68082443597E+02  7.34267012403E+02  1.76099050641E+02  0.00000000000E+00  1.
      -24    2    1    2    0    0 -3.62360656909E+02  3.35096349220E+02 -3.30396150407E+02  5.98063281191E+02  7.01659687334E+01  0.00000000000E+00  1.
        5    1    4    4  501    0  9.10271962943E+01 -3.97499591102E+01 -2.40859347444E+02  2.60579733413E+02  4.75000000000E+00  0.00000000000E+00  1.
       24    2    4    4    0    0  2.10632122655E+01 -1.82148122750E+02 -4.27223096153E+02  4.73687278990E+02  9.07660005634E+01  0.00000000000E+00  1.
       -3    1    7    7    0  703 -3.51931983914E+01 -5.56607181602E+01 -1.25756908372E+02  1.41955897244E+02  4.04609745705E-06  0.00000000000E+00  1.
        4    1    7    7  703    0  5.62564106569E+01 -1.26487404590E+02 -3.01466187781E+02  3.31731381746E+02  7.62939453125E-06  0.00000000000E+00  1.
        3    1    5    5  704    0 -2.54604822063E+02  2.48929382984E+02 -2.72751589436E+02  4.48534148834E+02  0.00000000000E+00  0.00000000000E+00  1.
       -4    1    5    5    0  704 -1.07755834846E+02  8.61669662361E+01 -5.76445609715E+01  1.49529132357E+02  2.52318507296E-06  0.00000000000E+00  1.
</event>
<event>
11 115   1.0000000E+00   7.4550000E+01   7.8125000E-03   1.3429423E-01
       21   -1    0    0  501  502  0.00000000000E+00  0.00000000000E+00  7.49552428431E+02  7.49552428431E+02  0.00000000000E+00  0.00000000000E+00  1.
        5   -1    0    0  502    0  0.00000000000E+00  0.00000000000E+00 -2.37512526052E+02  2.37512526052E+02  0.00000000000E+00  0.00000000000E+00  1.
       25    1    1    2    0    0  1.60022113629E+01  8.98493519788E+01 -7.43085992327E+01  1.71685016060E+02  1.25000000000E+02  0.00000000000E+00  1.
        6    2    1    2  501    0  1.89100037260E+02 -1.59211677676E+02  1.90753511043E+02  3.57439797254E+02  1.73980241077E+02  0.00000000000E+00  1.
      -24    2    1    2    0    0 -2.05102248623E+02  6.93623256975E+01  3.95594990570E+02  4.57940141169E+02  7.95971840835E+01  0.00000000000E+00  1.
        5    1    4    4  501    0  1.00556676640E+02 -1.43452431204E+02  7.52843687207E+01  1.90736844654E+02  4.75000000000E+00  0.00000000000E+00  1.
       24    2    4    4    0    0  8.85433606207E+01 -1.57592464726E+01  1.15469142322E+02  1.66702952599E+02  7.98027005637E+01  0.00000000000E+00  1.
       -3    1    7    7    0  703  3.39617949464E+01 -3.01794320226E+01  9.73202135588E+01  1.07403098653E+02  2.33601545599E-06  0.00000000000E+00  1.
        4    1    7    7  703    0  5.45815656743E+01  1.44201855500E+01  1.81489287636E+01  5.92998539461E+01  2.10565587671E-06  0.00000000000E+00  1.
       11    1    5    5    0    0 -9.11297442341E+01 -4.23537164077E-01  2.12895583028E+02  2.31580091850E+02  5.11005717009E-04  0.00000000000E+00  1.
      -12    1    5    5    0    0 -1.13972504389E+02  6.97858628616E+01  1.82699407541E+02  2.26360049320E+02  2.69739830470E-06  0.00000000000E+00  1.
</event>
<event>
11 115   1.0000000E+00   7.4550000E+01   7.8125000E-03   1.3429423E-01
        5   -1    0    0  502    0  0.00000000000E+00  0.00000000000E+00  8.24749887517E+01  8.24749887517E+01  0.00000000000E+00  0.00000000000E+00  1.
       21   -1    0    0  501  502  0.00000000000E+00  0.00000000000E+00 -1.06666880078E+03  1.06666880078E+03  0.00000000000E+00  0.00000000000E+00  1.
       25    1    1    2    0    0 -7.01913964591E+01 -2.05522441848E+01 -3.83635669149E+02  4.10061646001E+02  1.25000000000E+02  0.00000000000E+00  1.
        6    2    1    2  501    0  1.31643345034E+02 -1.07892907589E+02 -2.32136147287E+02  3.35563877216E+02  1.72467605697E+02  0.00000000000E+00  1.
      -24    2    1    2    0    0 -6.14519485751E+01  1.28445151773E+02 -3.68421995596E+02  4.03518266318E+02  8.25695186852E+01  0.00000000000E+00  1.
        5    1    4    4  501    0  1.20076593923E+02 -2.25260800947E+01 -1.40644758861E+02  1.86358051577E+02  4.75000000000E+00  0.00000000000E+00  1.
       24    2    4    4    0    0  1.15667511113E+01 -8.53668274940E+01 -9.14913884261E+01  1.49205825639E+02  8.04389164564E+01  0.00000000000E+00  1.
       -3    1    7    7    0  703  3.99760812211E+01 -7.62777850165E+01 -7.90109198831E+01  1.16872208063E+02  2.13248059988E-06  0.00000000000E+00  1.
        4    1    7    7  703    0 -2.84093301099E+01 -9.08904247752E+00 -1.24804685430E+01  3.23336175752E+01  2.92001931999E-07  0.00000000000E+00  1.
       13    1    5    5    0    0 -7.91375130298E+01  1.21868109348E+02 -3.16139082895E+02  3.47934638894E+02  1.05660000090E-01  0.00000000000E+00  1.
      -14    1    5    5    0    0  1.76855644546E+01  6.57704242500E+00 -5.22829127005E+01  5.55836274238E+01  4.42200588965E-06  0.00000000000E+00  1.
</event>
<event>
11 115   1.0000000E+00   7.4550000E+01   7.8125000E-03   1.3429423E-01
       21   -1    0    0  501  502  0.00000000000E+00  0.00000000000E+00  6.00745315673E+02  6.00745315673E+02  0.00000000000E+00  0.00000000000E+00  1.
        5   -1    0    0  502    0  0.00000000000E+00  0.00000000000E+00 -7.83251550543E+02  7.83251550543E+02  0.00000000000E+00  0.00000000000E+00  1.
       25    1    1    2    0    0 -2.02161879509E+01 -1.49860977434E+02 -9.97572142022E+01  2.20098860965E+02  1.25000000000E+02  0.00000000000E+00  1.
        6    2    1    2  501    0  4.52646609036E+02 -2.56803797954E+02  4.60064743826E+01  5.51325031592E+02  1.76083932996E+02  0.00000000000E+00  1.
      -24    2    1    2    0    0 -4.32430421085E+02  4.06664775388E+02 -1.28755495050E+02  6.12572973659E+02  7.93433168623E+01  0.00000000000E+00  1.
        5    1    4    4  501    0  3.27857680958E+02 -2.18952594621E+02  5.49443792365E+01  3.98085851249E+02  4.75000000000E+00  0.00000000000E+00  1.
       24    2    4    4    0    0  1.24788928078E+02 -3.78512033329E+01 -8.93790485386E+00  1.53239180343E+02  7.99835613399E+01  0.00000000000E+00  1.
       -1    1    7    7    0  703  7.63801824104E+01  1.26758970073E+01 -2.51578888965E+01  8.14096431863E+01  1.58148993986E-06  0.00000000000E+00  1.
        2    1    7    7  703    0  4.84087456672E+01 -5.05271003402E+01  1.62199840426E+01  7.18295371571E+01  3.37174788087E-07  0.00000000000E+00  1.
       11    1    5    5    0    0 -1.58860331216E+02  1.42596205627E+02 -8.52499135829E+01  2.29864809093E+02  5.10979909066E-04  0.00000000000E+00  1.
      -12    1    5    5    0    0 -2.73570089870E+02  2.64068569761E+02 -4.35055814675E+01  3.82708164567E+02  4.62310777418E-06  0.00000000000E+00  1.
</event>
<event>
11 115   1.0000000E+00   7.4550000E+01   7.8125000E-03   1.3429423E-01
       21   -1    0    0  501  502  0.00000000000E+00  0.00000000000E+00  1.05349309930E+03  1.05349309930E+03  0.00000000000E+00  0.00000000000E+00  1.
        5   -1    0    0  502    0  0.00000000000E+00  0.00000000000E+00 -2.90748662707E+02  2.90748662707E+02  0.00000000000E+00  0.00000000000E+00  1.
       25    1    1    2    0    0  3.80297930168E+00  1.75870813176E+02  4.04079961781E+02  4.58094554750E+02  1.25000000000E+02  0.00000000000E+00  1.
        6    2    1    2  501    0  8.60606282957E+01  4.75407820749E+01  5.39677907876E+02  5.74718031673E+02  1.71411825663E+02  0.00000000000E+00  1.
      -24    2    1    2    0    0 -8.98636075973E+01 -2.23411595251E+02 -1.81013433063E+02  3.11429175586E+02  7.89560611612E+01  0.00000000000E+00  1.
        5    1    4    4  501    0  5.71208955981E+01  3.55382477449E+01  7.00722993207E+01  9.72545803487E+01  4.75000000000E+00  0.00000000000E+00  1.
       24    2    4    4    0    0  2.89397326976E+01  1.20025343300E+01  4.69605608556E+02  4.77463451324E+02  8.03763074816E+01  0.00000000000E+00  1.
       -1    1    7    7    0  703  4.66043813432E+01 -2.65947158963E+00  4.22401822985E+02  4.24973341765E+02  9.34406182397E-06  0.00000000000E+00  1.
        2    1    7    7  703    0 -1.76646486456E+01  1.46620059196E+01  4.72037855707E+01  5.24901095594E+01  8.17605409598E-06  0.00000000000E+00  1.
       15    1    5    5    0    0 -1.32364226110E+01 -4.06652304366E+01 -7.58459921122E+01  8.70898121925E+01  1.77680000000E+00  0.00000000000E+00  1.
      -16    1    5    5    0    0 -7.66271849863E+01 -1.82746364814E+02 -1.05167440951E+02  2.24339363394E+02  2.69739830470E-06  0.00000000000E+00  1.
</event>
<event>
11 115   1.0000000E+00   7.4550000E+01   7.8125000E-03   1.3429423E-01
       21   -1    0    0  501  502  0.00000000000E+00  0.00000000000E+00  1.61859258712E+03  1.61859258712E+03  0.00000000000E+00  0.00000000000E+00  1.
        5   -1    0    0  502    0  0.00000000000E+00  0.00000000000E+00 -2.29869029476E+02  2.29869029476E+02  0.00000000000E+00  0.00000000000E+00  1.
       25    1    1    2    0    0  6.57440835197E+01  3.32813994116E+02  5.60311996849E+02  6.66829793134E+02  1.25000000000E+02  0.00000000000E+00  1.
        6    2    1    2  501    0 -1.50224771451E+02  8.33874288818E+01 -3.77678107714E+00  2.43895461873E+02  1.73060067590E+02  0.00000000000E+00  1.
      -24    2    1    2    0    0  8.44806879309E+01 -4.16201422998E+02  8.32188341872E+02  9.37736361590E+02  8.03208339138E+01  0.00000000000E+00  1.
        5    1    4    4  501    0 -1.08011446020E+02 -1.92077128256E+01 -8.78207753339E+00  1.10159412168E+02  4.75000000000E+00  0.00000000000E+00  1.
       24    2    4    4    0    0 -4.22133254304E+01  1.02595141707E+02  5.00529645625E+00  1.33736049705E+02  7.45154349938E+01  0.00000000000E+00  1.
       -3    1    7    7    0  703 -6.07286603419E+00  3.18174565021E+01  3.60066212470E+01  4.84324995613E+01  1.16800772800E-06  0.00000000000E+00  1.
        4    1    7    7  703    0 -3.61404593962E+01  7.07776852054E+01 -3.10013247907E+01  8.53035501441E+01  1.16800772800E-06  0.00000000000E+00  1.
        1    1    5    5  704    0  8.63687496339E+00 -5.40684248883E+01  5.84708683150E+01  8.01051347951E+01  9.56055529392E-06  0.00000000000E+00  1.
       -2    1    5    5    0  704  7.58438129675E+01 -3.62132998110E+02  7.73717473557E+02  8.57631226795E+02  1.07895932188E-05  0.00000000000E+00  1.
</event>
<event>
11 115   1.0000000E+00   7.4550000E+01   7.8125000E-03   1.3429423E-01
       21   -1    0    0  501  502  0.00000000000E+00  0.00000000000E+00  7.58987820547E+02  7.58987820547E+02  0.00000000000E+00  0.00000000000E+00  1.
        5   -1    0    0  502    0  0.00000000000E+00  0.00000000000E+00 -1.80842256032E+02  1.80842256032E+02  0.00000000000E+00  0.00000000000E+00  1.
       25    1    1    2    0    0  3.98851061372E+01  2.73111533260E+02  1.87953313198E+02  3.56555997331E+02  1.25000000000E+02  0.00000000000E+00  1.
        6    2    1    2  501    0  4.99377458982E+01 -6.01027910419E+01  1.78228149062E+02  2.59566892572E+02  1.71766046252E+02  0.00000000000E+00  1.
      -24    2    1    2    0    0 -8.98228520353E+01 -2.13008742218E+02  2.11964102255E+02  3.23707186675E+02  8.01042636288E+01  0.00000000000E+00  1.
        5    1    4    4  501    0  6.20502898386E+01 -4.29976854889E+01  1.56212961047E+02  1.73562931312E+02  4.75000000000E+00  0.00000000000E+00  1.
       24    2    4    4    0    0 -1.21125439404E+01 -1.71051055529E+01  2.20151880146E+01  8.60039612598E+01  8.04531819904E+01  0.00000000000E+00  1.
      -15    1    7    7    0    0  2.53960958427E+00 -4.58883579511E+01  2.69865087626E+01  5.33256006598E+01  1.77680000000E+00  0.00000000000E+00  1.
       16    1    7    7    0    0 -1.46521535246E+01  2.87832523982E+01 -4.97132074806E+00  3.26783606000E+01  9.95593851119E-07  0.00000000000E+00  1.
        3    1    5    5  704    0 -6.85626782595E+01 -1.26897615170E+02  1.77101607589E+02  2.28404958345E+02  3.30362473978E-06  0.00000000000E+00  1.
       -4    1    5    5    0  704 -2.12601737759E+01 -8.61111270473E+01  3.48624946660E+01  9.53022283301E+01  2.86102294922E-06  0.00000000000E+00  1.
</event>
<event>
11 115   1.0000000E+00   7.4550000E+01   7.8125000E-03   1.3429423E-01
        5   -1    0    0  502    0  0.00000000000E+00  0.00000000000E+00  2.33680127220E+02  2.33680127220E+02  0.00000000000E+00  0.00000000000E+00  1.
       21   -1    0    0  501  502  0.00000000000E+00  0.00000000000E+00 -4.10333833483E+02  4.10333833483E+02  0.00000000000E+00  0.00000000000E+00  1.
       25    1    1    2    0    0 -6.84317942659E+00 -5.31830917601E+01  1.20030527448E+02  1.81404514479E+02  1.25000000000E+02  0.00000000000E+00  1.
        6    2    1    2  501    0  1.07422674926E+02  7.19476930142E+01 -1.31675335486E+02  2.52329983912E+02  1.72092780753E+02  0.00000000000E+00  1.
      -24    2    1    2    0    0 -1.00579495499E+02 -1.87646012542E+01 -1.65008898224E+02  2.10279462312E+02  8.07537652508E+01  0.00000000000E+00  1.
        5    1    4    4  501    0  9.42837458199E+01 -1.16928318072E+01 -8.21155706836E+01  1.25664937394E+02  4.75000000000E+00  0.00000000000E+00  1.
       24    2    4    4    0    0  1.31389291057E+01  8.36405248215E+01 -4.95597648026E+01  1.26665046518E+02  8.01217503032E+01  0.00000000000E+00  1.
       -3    1    7    7    0  703  3.16339604131E+01  6.68172491203E+01 -3.20394818902E+00  7.39967398973E+01  1.21789078365E-06  0.00000000000E+00  1.
        4    1    7    7  703    0 -1.84950313074E+01  1.68232757011E+01 -4.63558166136E+01  5.26683066207E+01  1.34869915235E-06  0.00000000000E+00  1.
       15    1    5    5    0    0 -4.52358078532E+00  1.36003306994E+01  2.33613089469E+00  1.46303213927E+01  1.77680000000E+00  0.00000000000E+00  1.
      -16    1    5    5    0    0 -9.60559147137E+01 -3.23649319536E+01 -1.67345029119E+02  1.95649140920E+02  3.30362473978E-06  0.00000000000E+00  1.
</event>
<event>
11 115   1.0000000E+00   7.4550000E+01   7.8125000E-03   1.3429423E-01
        5   -1    0    0  502    0  0.00000000000E+00  0.00000000000E+00  9.99935836083E+01  9.99935836083E+01  0.00000000000E+00  0.00000000000E+00  1.
       21   -1    0    0  501  502  0.00000000000E+00  0.00000000000E+00 -1.35314947553E+03  1.35314947553E+03  0.00000000000E+00  0.00000000000E+00  1.
       25    1    1    2    0    0  2.91671261119E+01  1.50315209655E+02 -4.13624946674E+02  4.58427726049E+02  1.25000000000E+02  0.00000000000E+00  1.
        6    2    1    2  501    0  2.76369150707E+00  3.48870245725E+01 -7.50342447898E+02  7.70718969103E+02  1.72537525607E+02  0.00000000000E+00  1.
      -24    2    1    2    0    0 -3.19308176190E+01 -1.85202234227E+02 -8.91884973515E+01  2.23996363989E+02  8.30682751937E+01  0.00000000000E+00  1.
        5    1    4    4  501    0  6.39640895393E+01  7.50524873587E+00 -1.90106177030E+02  2.00775134303E+02  4.75000000001E+00  0.00000000000E+00  1.
       24    2    4    4    0    0 -6.12003980322E+01  2.73817758366E+01 -5.60236270868E+02  5.69943834800E+02  8.04738793851E+01  0.00000000000E+00  1.
       -3    1    7    7    0  703 -1.42482895677E+01  2.71339218074E+01 -5.87406104703E+01  6.62549831083E+01  2.78041453116E-06  0.00000000000E+00  1.
        4    1    7    7  703    0 -4.69521084644E+01  2.47854029201E-01 -5.01495660398E+02  5.03688851692E+02  7.62939453125E-06  0.00000000000E+00  1.
        1    1    5    5  704    0 -5.05368358242E-01 -1.42018731853E+02 -3.16739655601E+01  1.45508816532E+02  1.71926082395E-06  0.00000000000E+00  1.
       -2    1    5    5    0  704 -3.14254492608E+01 -4.31835023749E+01 -5.75145317914E+01  7.84875474568E+01  2.23656452171E-06  0.00000000000E+00  1.
</event>
<event>
11 115   1.0000000E+00   7.4550000E+01   7.8125000E-03   1.3429423E-01
       21   -1    0    0  501  502  0.00000000000E+00  0.00000000000E+00  1.01868913690E+03  1.01868913690E+03  0.00000000000E+00  0.00000000000E+00  1.
        5   -1    0    0  502    0  0.00000000000E+00  0.00000000000E+00 -3.65672420614E+02  3.65672420614E+02  0.00000000000E+00  0.00000000000E+00  1.
       25    1    1    2    0    0  1.15587437992E+02 -2.95078088713E+02  3.50301813290E+02  4.88638818203E+02  1.25000000000E+02  0.00000000000E+00  1.
        6    2    1    2  501    0  4.00964661614E+01 -2.67310473897E+01  4.62537699885E+02  4.95863484859E+02  1.72096473840E+02  0.00000000000E+00  1.
      -24    2    1    2    0    0 -1.55683904153E+02  3.21809136103E+02 -1.59822796889E+02  3.99859254454E+02  8.09042574614E+01  0.00000000000E+00  1.
        5    1    4    4  501    0  4.95965584159E+01  1.98276357890E+01  3.32035644237E+02  3.36337903442E+02  4.75000000000E+00  0.00000000000E+00  1.
       24    2    4    4    0    0 -9.50009225443E+00 -4.65586831787E+01  1.30502055648E+02  1.59525581418E+02  7.84835133386E+01  0.00000000000E+00  1.
       -1    1    7    7    0  703 -1.75999623000E+01  1.84641774189E+01  2.80771940271E+01  3.79343293753E+01  1.39020726558E-06  0.00000000000E+00  1.
        2    1    7    7  703    0  8.09987004560E+00 -6.50228605977E+01  1.02424861621E+02  1.21591252042E+02  1.90734863281E-06  0.00000000000E+00  1.
       15    1    5    5    0    0 -1.34628147822E+02  1.89220492629E+02 -1.04337246909E+02  2.54594876475E+02  1.77680000000E+00  0.00000000000E+00  1.
      -16    1    5    5    0    0 -2.10557563314E+01  1.32588643474E+02 -5.54855499794E+01  1.45264377978E+02  0.00000000000E+00  0.00000000000E+00  1.
</event>
<event>
11 115   1.0000000E+00   7.4550000E+01   7.8125000E-03   1.3429423E-01
        5   -1    0    0  502    0  0.00000000000E+00  0.00000000000E+00  7.54802372071E+02  7.54802372071E+02  0.00000000000E+00  0.00000000000E+00  1.
       21   -1    0    0  501  502  0.00000000000E+00  0.00000000000E+00 -6.54368861913E+02  6.54368861913E+02  0.00000000000E+00  0.00000000000E+00  1.
       25    1    1    2    0    0 -3.37672377624E+02  2.77884311108E+02 -3.08893616610E-01  4.54826802624E+02  1.25000000000E+02  0.00000000000E+00  1.
        6    2    1    2  501    0  2.14937287341E+02  2.62447628205E+02  9.98845699829E+01  3.94360749867E+02  1.74547067221E+02  0.00000000000E+00  1.
      -24    2    1    2    0    0  1.22735090283E+02 -5.40331939312E+02  8.57833790840E-01  5.59983681493E+02  8.09844468470E+01  0.00000000000E+00  1.
        5    1    4    4  501    0  1.62687311545E+02  9.74385018810E+01  5.91974859532E+01  1.98716702443E+02  4.75000000000E+00  0.00000000000E+00  1.
       24    2    4    4    0    0  5.22499757959E+01  1.65009126324E+02  4.06870840297E+01  1.95644047424E+02  8.16277081938E+01  0.00000000000E+00  1.
       -1    1    7    7    0  703  3.60185680577E+01  6.99604491430E+01  5.79008196680E+01  9.76949671552E+01  1.34869915235E-06  0.00000000000E+00  1.
        2    1    7    7  703    0  1.62314077382E+01  9.50486771806E+01 -1.72137356383E+01  9.79490802691E+01  1.19209289551E-06  0.00000000000E+00  1.
        3    1    5    5  704    0  1.58417978422E+01 -9.62160409160E+00 -1.66601934688E+00  1.86094987743E+01  1.09417756408E-05  0.00000000000E+00  1.
       -4    1    5    5    0  704  1.06893292441E+02 -5.30710335221E+02  2.52385313772E+00  5.41374182718E+02  9.41210942134E-06  0.00000000000E+00  1.
</event>
<event>
11 115   1.0000000E+00   7.4550000E+01   7.8125000E-03   1.3429423E-01
       21   -1    0    0  501  502  0.00000000000E+00  0.00000000000E+00  1.06967695294E+02  1.06967695294E+02  0.00000000000E+00  0.00000000000E+00  1.
        5   -1    0    0  502    0  0.00000000000E+00  0.00000000000E+00 -1.80837793796E+03  1.80837793796E+03  0.00000000000E+00  0.00000000000E+00  1.
       25    1    1    2    0    0  3.47819463174E+01  2.78632246286E+02 -6.17992002492E+02  6.90206365954E+02  1.25000000000E+02  0.00000000000E+00  1.
        6    2    1    2  501    0 -4.90179873972E+00  6.87792338049E+01 -1.97567664872E+02  2.69843384579E+02  1.70375641934E+02  0.00000000000E+00  1.
      -24    2    1    2    0    0 -2.98801475777E+01 -3.47411480091E+02 -8.85850575301E+02  9.55295882719E+02  7.91923106167E+01  0.00000000000E+00  1.
        5    1    4    4  501    0  1.47399174271E+01 -3.73140857489E+01 -8.98831217790E+01  9.85451380930E+01  4.75000000000E+00  0.00000000000E+00  1.
       24    2    4    4    0    0 -1.96417161668E+01  1.06093319554E+02 -1.07684543093E+02  1.71298246486E+02  7.81379482722E+01  0.00000000000E+00  1.
       -3    1    7    7    0  703 -4.78431533655E+01  6.77837239390E+01 -5.13803767653E+01  9.75886451978E+01  1.34869915235E-06  0.00000000000E+00  1.
        4    1    7    7  703    0  2.82014371987E+01  3.83095956147E+01 -5.63041663279E+01  7.37096012885E+01  9.53674316406E-07  0.00000000000E+00  1.
       11    1    5    5    0    0  1.28209504233E+01 -2.51495375019E+02 -5.96037190609E+02  6.47050719044E+02  5.10941639717E-04  0.00000000000E+00  1.
      -12    1    5    5    0    0 -4.27010980010E+01 -9.59161050723E+01 -2.89813384691E+02  3.08245163675E+02  5.39479660939E-06  0.00000000000E+00  1.
</event>
<event>
11 115   1.0000000E+00   7.4550000E+01   7.8125000E-03   1.3429423E-01
        5   -1    0    0  502    0  0.00000000000E+00  0.00000000000E+00  6.38137316199E+02  6.38137316199E+02  0.00000000000E+00  0.00000000000E+00  1.
       21   -1    0    0  501  502  0.00000000000E+00  0.00000000000E+00 -4.03896285688E+02  4.03896285688E+02  0.00000000000E+00  0.00000000000E+00  1.
       25    1    1    2    0    0  1.53865859387E+02 -1.49096213127E+01  2.78301788199E+01  2.00739927134E+02  1.25000000000E+02  0.00000000000E+00  1.
        6    2    1    2  501    0  3.64506916144E-01  3.41415830437E+02 -5.67243287608E+01  3.87601372509E+02  1.74505794629E+02  0.00000000000E+00  1.
      -24    2    1    2    0    0 -1.54230366303E+02 -3.26506209124E+02  2.63135180452E+02  4.53692302244E+02  7.87608496456E+01  0.00000000000E+00  1.
        5    1    4    4  501    0 -1.15802108636E+01  2.49004023869E+02  4.62653457071E+00  2.49361329217E+02  4.75000000000E+00  0.00000000000E+00  1.
       24    2    4    4    0    0  1.19447177798E+01  9.24118065678E+01 -6.13508633315E+01  1.38240043292E+02  8.16318740558E+01  0.00000000000E+00  1.
       -3    1    7    7    0  703  3.27703176639E+00  1.02326610803E+02 -6.85711321112E+01  1.23221241572E+02  1.34869915235E-06  0.00000000000E+00  1.
        4    1    7    7  703    0  8.66768601340E+00 -9.91480423497E+00  7.22026877971E+00  1.50188017197E+01  2.47341321960E-06  0.00000000000E+00  1.
        1    1    5    5  704    0 -1.41573728470E+02 -2.86116870110E+02  2.59158068184E+02  4.11179873364E+02  6.60724947956E-06  0.00000000000E+00  1.
       -2    1    5    5    0  704 -1.26566378337E+01 -4.03893390146E+01  3.97711226727E+00  4.25124288800E+01  1.51318338809E-06  0.00000000000E+00  1.
</event>
<event>
11 115   1.0000000E+00   7.4550000E+01   7.8125000E-03   1.3429423E-01
       21   -1    0    0  501  502  0.00000000000E+00  0.00000000000E+00  2.78317443847E+03  2.78317443847E+03  0.00000000000E+00  0.00000000000E+00  1.
        5   -1    0    0  502    0  0.00000000000E+00  0.00000000000E+00 -3.09928153034E+02  3.09928153034E+02  0.00000000000E+00  0.00000000000E+00  1.
       25    1    1    2    0    0  9.70756271037E+01  4.46876865581E+00 -4.35303924774E+01  1.64205792651E+02  1.25000000000E+02  0.00000000000E+00  1.
        6    2    1    2  501    0  3.82219911554E+02 -1.04350440076E+02  2.37370941715E+03  2.41280021939E+03  1.73572539586E+02  0.00000000000E+00  1.
      -24    2    1    2    0    0 -4.79295538658E+02  9.98816714203E+01  1.43067260768E+02  5.16096579466E+02  7.86567007332E+01  0.00000000000E+00  1.
        5    1    4    4  501    0  1.54765309313E+02 -1.10803542325E+02  9.82179946431E+02  1.00046475981E+03  4.74999999994E+00  0.00000000000E+00  1.
       24    2    4    4    0    0  2.27454602241E+02  6.45310224851E+00  1.39152947072E+03  1.41233545958E+03  8.09934805544E+01  0.00000000000E+00  1.
       -3    1    7    7    0  703  1.19355832330E+01 -1.59275744008E+01  2.23018560532E+02  2.23904944375E+02  1.04469787122E-05  0.00000000000E+00  1.
        4    1    7    7  703    0  2.15519019008E+02  2.23806766493E+01  1.16851091019E+03  1.18843051520E+03  2.15791864376E-05  0.00000000000E+00  1.
       11    1    5    5    0    0 -2.59796121861E+02  9.07038262945E+01  9.58335000396E+01  2.91385086730E+02  5.11005717009E-04  0.00000000000E+00  1.
      -12    1    5    5    0    0 -2.19499416797E+02  9.17784512584E+00  4.72337607281E+01  2.24711492737E+02  2.13248059988E-06  0.00000000000E+00  1.
</event>
<event>
11 115   1.0000000E+00   7.4550000E+01   7.8125000E-03   1.3429423E-01
        5   -1    0    0  502    0  0.00000000000E+00  0.00000000000E+00  1.79628649314E+03  1.79628649314E+03  0.00000000000E+00  0.00000000000E+00  1.
       21   -1    0    0  501  502  0.00000000000E+00  0.00000000000E+00 -3.88438690846E+02  3.88438690846E+02  0.00000000000E+00  0.00000000000E+00  1.
       25    1    1    2    0    0  3.00497815202E+02 -6.36071333898E+02  9.49655212596E+02  1.18842572404E+03  1.25000000000E+02  0.00000000000E+00  1.
        6    2    1    2  501    0 -2.11626174006E+02  5.42623717316E+02  5.50322134515E+02  8.18556895984E+02  1.67196902205E+02  0.00000000000E+00  1.
      -24    2    1    2    0    0 -8.88716411959E+01  9.34476165822E+01 -9.21295448176E+01  1.77742563962E+02  8.04608001555E+01  0.00000000000E+00  1.
        5    1    4    4  501    0  8.34523818762E+00  6.00469119788E+00 -4.31049208820E+00  1.21178446447E+01  4.74999999999E+00  0.00000000000E+00  1.
       24    2    4    4    0    0 -2.19971412194E+02  5.36619026118E+02  5.54632626603E+02  8.06439051339E+02  7.98698419756E+01  0.00000000000E+00  1.
       -3    1    7    7    0  703 -8.23488070880E+01  3.04813255324E+02  2.91512009481E+02  4.29734450936E+02  6.60724947956E-06  0.00000000000E+00  1.
        4    1    7    7  703    0 -1.37622605106E+02  2.31805770794E+02  2.63120617122E+02  3.76704600402E+02  6.60724947956E-06  0.00000000000E+00  1.
        1    1    5    5  704    0 -4.53812388345E+01  7.12326119713E+01 -1.40098604509E+01  8.56143564845E+01  6.30796268240E-07  0.00000000000E+00  1.
       -4    1    5    5    0  704 -4.34904023615E+01  2.22150046109E+01 -7.81196843667E+01  9.21282074773E+01  1.65181236989E-06  0.00000000000E+00  1.
</event>
<event>
11 115   1.0000000E+00   7.4550000E+01   7.8125000E-03   1.3429423E-01
        5   -1    0    0  502    0  0.00000000000E+00  0.00000000000E+00  1.24641312551E+03  1.24641312551E+03  0.00000000000E+00  0.00000000000E+00  1.
       21   -1    0    0  501  502  0.00000000000E+00  0.00000000000E+00 -1.18175500749E+02  1.18175500749E+02  0.00000000000E+00  0.00000000000E+00  1.
       25    1    1    2    0    0 -1.11153541750E+02 -2.06532366527E+02  4.98162984852E+02  5.64625617329E+02  1.25000000000E+02  0.00000000000E+00  1.
        6    2    1    2  501    0 -4.86832733873E+01 -3.72864425763E+01  1.68454999231E+02  2.47933954048E+02  1.71271185249E+02  0.00000000000E+00  1.
      -24    2    1    2    0    0  1.59836815137E+02  2.43818809104E+02  4.61619640680E+02  5.52029054884E+02  8.15350576683E+01  0.00000000000E+00  1.
        5    1    4    4  501    0 -6.64151903161E+01  1.98582680694E+01  2.69091433563E+01  7.45116958041E+01  4.75000000000E+00  0.00000000000E+00  1.
       24    2    4    4    0    0  1.77319169288E+01 -5.71447106457E+01  1.41545855874E+02  1.73422258244E+02  8.03748188588E+01  0.00000000000E+00  1.
       -1    1    7    7    0  703  3.67045931832E+01 -6.62519366884E+01  8.92825638233E+01  1.17080837367E+02  9.53674316406E-07  0.00000000000E+00  1.
        2    1    7    7  703    0 -1.89726762544E+01  9.10722604274E+00  5.22632920511E+01  5.63414208773E+01  1.50789149292E-06  0.00000000000E+00  1.
       13    1    5    5    0    0  7.69498207050E+01  6.41429199730E+01  2.03213103825E+02  2.26563822839E+02  1.05659999987E-01  0.00000000000E+00  1.
      -14    1    5    5    0    0  8.28869944321E+01  1.79675889131E+02  2.58406536855E+02  3.25465232045E+02  6.60724947956E-06  0.00000000000E+00  1.
</event>
<event>
11 115   1.0000000E+00   7.4550000E+01   7.8125000E-03   1.3429423E-01
        5   -1    0    0  502    0  0.00000000000E+00  0.00000000000E+00  1.72936007200E+03  1.72936007200E+03  0.00000000000E+00  0.00000000000E+00  1.
       21   -1    0    0  501  502  0.00000000000E+00  0.00000000000E+00 -5.24089613791E+02  5.24089613791E+02  0.00000000000E+00  0.00000000000E+00  1.
       25    1    1    2    0    0  2.13043477401E+02  3.77578039402E+01 -6.38750541826E+01  2.57911220322E+02  1.25000000000E+02  0.00000000000E+00  1.
        6    2    1    2  501    0  5.06068328517E+02  4.20871740322E+02  6.29141328820E+02  9.26128751983E+02  1.69285199267E+02  0.00000000000E+00  1.
      -24    2    1    2    0    0 -7.19111805917E+02 -4.58629544262E+02  6.40004183576E+02  1.06940971349E+03  8.10489483737E+01  0.00000000000E+00  1.
        5    1    4    4  501    0  3.71665225712E+02  2.76753079290E+02  4.10816108471E+02  6.19289709570E+02  4.75000000001E+00  0.00000000000E+00  1.
       24    2    4    4    0    0  1.34403102805E+02  1.44118661032E+02  2.18325220349E+02  3.06839042413E+02  8.74637845476E+01  0.00000000000E+00  1.
      -11    1    7    7    0    0  1.23407446843E+02  7.31000418904E+01  1.53035221816E+02  2.09744590341E+02  5.11005717009E-04  0.00000000000E+00  1.
       12    1    7    7    0    0  1.09956559618E+01  7.10186191413E+01  6.52899985327E+01  9.70944520720E+01  1.90734863281E-06  0.00000000000E+00  1.
        1    1    5    5  704    0 -2.10276938975E+02 -9.86807289525E+01  1.99312761344E+02  3.06071648746E+02  4.67203091199E-06  0.00000000000E+00  1.
       -2    1    5    5    0  704 -5.08834866942E+02 -3.59948815309E+02  4.40691422232E+02  7.63338064744E+02  1.32144989591E-05  0.00000000000E+00  1.
</event>
<event>
11 115   1.0000000E+00   7.4550000E+01   7.8125000E-03   1.3429423E-01
        5   -1    0    0  502    0  0.00000000000E+00  0.00000000000E+00  1.54816349718E+03  1.54816349718E+03  0.00000000000E+00  0.00000000000E+00  1.
       21   -1    0    0  501  502  0.00000000000E+00  0.00000000000E+00 -4.59345359097E+02  4.59345359097E+02  0.00000000000E+00  0.00000000000E+00  1.
       25    1    1    2    0    0 -7.93932171682E+01 -3.81941849123E+00  4.22355384092E+02  4.47578977792E+02  1.25000000000E+02  0.00000000000E+00  1.
        6    2    1    2  501    0  2.23803338720E+02  2.02610446638E+02 -3.60481402931E+02  5.00995572572E+02  1.72947374564E+02  0.00000000000E+00  1.
      -24    2    1    2    0    0 -1.44410121552E+02 -1.98791028147E+02  1.02694415692E+03  1.05893430591E+03  7.97208048322E+01  0.00000000000E+00  1.
        5    1    4    4  501    0  1.98637376846E+02  1.59158944317E+02 -2.72004832570E+02  3.72555456916E+02  4.75000000000E+00  0.00000000000E+00  1.
       24    2    4    4    0    0  2.51659618741E+01  4.34515023211E+01 -8.84765703613E+01  1.28440115656E+02  7.84053640761E+01  0.00000000000E+00  1.
       -3    1    7    7    0  703  1.66257191242E+01  1.25477532516E+01  1.12591222600E+01  2.36775945172E+01  1.30041982110E-06  0.00000000000E+00  1.
        4    1    7    7  703    0  8.54024274997E+00  3.09037490695E+01 -9.97356926213E+01  1.04762521139E+02  2.33601545599E-06  0.00000000000E+00  1.
        3    1    5    5  704    0 -1.27764084040E+02 -1.12595430578E+02  6.98531495792E+02  7.18990711186E+02  1.32144989591E-05  0.00000000000E+00  1.
       -4    1    5    5    0  704 -1.66460375112E+01 -8.61955975695E+01  3.28412661132E+02  3.39943594729E+02  6.60724947956E-06  0.00000000000E+00  1.
</event>
<event>
11 115   1.0000000E+00   7.4550000E+01   7.8125000E-03   1.3429423E-01
        5   -1    0    0  502    0  0.00000000000E+00  0.00000000000E+00  7.17586701681E+02  7.17586701681E+02  0.00000000000E+00  0.00000000000E+00  1.
       21   -1    0    0  501  502  0.00000000000E+00  0.00000000000E+00 -8.32904580962E+02  8.32904580962E+02  0.00000000000E+00  0.00000000000E+00  1.
       25    1    1    2    0    0  4.39060971628E+02 -2.69860732817E+02  2.31732349899E+02  5.78726389508E+02  1.25000000000E+02  0.00000000000E+00  1.
        6    2    1    2  501    0  3.30173062460E+01  2.71911247548E+02 -3.70586932443E+02  4.92102681484E+02  1.72639814562E+02  0.00000000000E+00  1.
      -24    2    1    2    0    0 -4.72078277874E+02 -2.05051473173E+00  2.35367032634E+01  4.79662211651E+02  8.16073270861E+01  0.00000000000E+00  1.
        5    1    4    4  501    0  4.01425496713E+01  1.14211625297E+02 -2.47716492371E+02  2.75756673065E+02  4.75000000000E+00  0.00000000000E+00  1.
       24    2    4    4    0    0 -7.12524342540E+00  1.57699622251E+02 -1.22870440072E+02  2.16346008420E+02  8.23924169068E+01  0.00000000000E+00  1.
       -1    1    7    7    0  703  1.13448061427E+01  1.08685809681E+02 -3.62711678710E+01  1.15138644560E+02  2.18514237163E-06  0.00000000000E+00  1.
        2    1    7    7  703    0 -1.84700495681E+01  4.90138125701E+01 -8.65992722009E+01  1.01207363860E+02  1.34869915235E-06  0.00000000000E+00  1.
        1    1    5    5  704    0 -2.21922645538E+02 -2.36829021455E+01  4.49402129579E+01  2.27662388631E+02  3.09025797768E-06  0.00000000000E+00  1.
       -2    1    5    5    0  704 -2.50155632336E+02  2.16323874137E+01 -2.14035096944E+01  2.51999823020E+02  2.54561382581E-06  0.00000000000E+00  1.
</event>
<event>
11 115   1.0000000E+00   7.4550000E+01   7.8125000E-03   1.3429423E-01
        5   -1    0    0  502    0  0.00000000000E+00  0.00000000000E+00  5.90271106442E+02  5.90271106442E+02  0.00000000000E+00  0.00000000000E+00  1.
       21   -1    0    0  501  502  0.00000000000E+00  0.00000000000E+00 -1.51115709631E+03  1.51115709631E+03  0.00000000000E+00  0.00000000000E+00  1.
       25    1    1    2    0    0  3.25266050727E+02  8.58997874938E+01  4.79841387049E+02  5.99207421493E+02  1.25000000000E+02  0.00000000000E+00  1.
        6    2    1    2  501    0 -8.39591911740E+01 -9.94816531816E+01 -1.02966267409E+03  1.05191116991E+03  1.71365521221E+02  0.00000000000E+00  1.
      -24    2    1    2    0    0 -2.41306859553E+02  1.35818656878E+01 -3.71064702825E+02  4.50309611349E+02  8.17084135678E+01  0.00000000000E+00  1.
        5    1    4    4  501    0  3.22240032359E+01  1.15657407321E+01 -1.85914194177E+02  1.89099981068E+02  4.74999999998E+00  0.00000000000E+00  1.
       24    2    4    4    0    0 -1.16183194410E+02 -1.11047393914E+02 -8.43748479912E+02  8.62811188841E+02  8.18632510756E+01  0.00000000000E+00  1.
      -11    1    7    7    0    0 -8.78354087793E+01 -5.38089151314E+01 -3.46792289811E+02  3.61766983922E+02  5.11012836212E-04  0.00000000000E+00  1.
       12    1    7    7    0    0 -2.83477856306E+01 -5.72384787823E+01 -4.96956190101E+02  5.01044204919E+02  0.00000000000E+00  0.00000000000E+00  1.
        1    1    5    5  704    0 -2.17324962910E+02  2.91115634519E+01 -3.55746187597E+02  4.17891101389E+02  3.81469726562E-06  0.00000000000E+00  1.
       -2    1    5    5    0  704 -2.39818966431E+01 -1.55296977641E+01 -1.53185152287E+01  3.24185099605E+01  4.31135685921E-06  0.00000000000E+00  1.
</event>
<event>
11 115   1.0000000E+00   7.4550000E+01   7.8125000E-03   1.3429423E-01
        5   -1    0    0  502    0  0.00000000000E+00  0.00000000000E+00  1.16908145341E+03  1.16908145341E+03  0.00000000000E+00  0.00000000000E+00  1.
       21   -1    0    0  501  502  0.00000000000E+00  0.00000000000E+00 -2.19793754702E+02  2.19793754702E+02  0.00000000000E+00  0.00000000000E+00  1.
       25    1    1    2    0    0  1.01162315260E+02  4.14820805351E+01  6.15126514884E+02  6.37150065799E+02  1.25000000000E+02  0.00000000000E+00  1.
        6    2    1    2  501    0  9.04312403184E+01 -1.66357289816E+02 -8.27428608856E+01  2.69490739944E+02  1.72992256438E+02  0.00000000000E+00  1.
      -24    2    1    2    0    0 -1.91593555578E+02  1.24875209281E+02  4.16904044708E+02  4.82234402369E+02  8.02441767463E+01  0.00000000000E+00  1.
        5    1    4    4  501    0  3.02332144455E+00 -1.31478836932E+02 -6.35150708746E+01  1.46125123650E+02  4.75000000000E+00  0.00000000000E+00  1.
       24    2    4    4    0    0  8.74079188738E+01 -3.48784528844E+01 -1.92277900110E+01  1.23365616294E+02  7.74126386153E+01  0.00000000000E+00  1.
       -3    1    7    7    0  703  8.64515083021E+00  1.37942834738E+01  1.73702711518E+01  2.38064531025E+01  9.23391186287E-07  0.00000000000E+00  1.
        4    1    7    7  703    0  7.87627680436E+01 -4.86727363582E+01 -3.65980611628E+01  9.95591631913E+01  1.06624029994E-06  0.00000000000E+00  1.
        3    1    5    5  704    0 -1.21372828759E+02  1.10655557128E+02  3.37129446900E+02  3.75009706343E+02  5.39479660939E-06  0.00000000000E+00  1.
       -4    1    5    5    0  704 -7.02207268192E+01  1.42196521535E+01  7.97745978085E+01  1.07224696026E+02  2.33601545599E-06  0.00000000000E+00  1.
</event>
<event>
11 115   1.0000000E+00   7.4550000E+01   7.8125000E-03   1.3429423E-01
        5   -1    0    0  502    0  0.00000000000E+00  0.00000000000E+00  7.67253859668E+02  7.67253859668E+02  0.00000000000E+00  0.00000000000E+00  1.
       21   -1    0    0  501  502  0.00000000000E+00  0.00000000000E+00 -1.75906690808E+02  1.75906690808E+02  0.00000000000E+00  0.00000000000E+00  1.
       25    1    1    2    0    0 -4.52422641813E+01  6.04379365009E+01 -3.91969492647E+01  1.51198569664E+02  1.25000000000E+02  0.00000000000E+00  1.
        6    2    1    2  501    0  2.73863453496E+01 -2.74960249199E+00  2.45238075563E+01  1.77599864867E+02  1.73731754835E+02  0.00000000000E+00  1.
      -24    2    1    2    0    0  1.78559188317E+01 -5.76883340089E+01  6.06020310568E+02  6.14362115946E+02  8.08295426800E+01  0.00000000000E+00  1.
        5    1    4    4  501    0 -3.02802774058E+01  5.11313927859E+01  2.77890341230E+01  6.57731514031E+01  4.75000000000E+00  0.00000000000E+00  1.
       24    2    4    4    0    0  5.76666227555E+01 -5.38809952779E+01 -3.26522656673E+00  1.11826713464E+02  7.91577608790E+01  0.00000000000E+00  1.
       -1    1    7    7    0  703  1.20062042504E+01  5.17927662688E+00  2.79913942894E+01  3.08948539590E+01  8.25906184945E-07  0.00000000000E+00  1.
        2    1    7    7  703    0  4.56604185051E+01 -5.90602719048E+01 -3.12566208562E+01  8.09318595046E+01  5.84003863998E-07  0.00000000000E+00  1.
        3    1    5    5  704    0 -2.66074704113E+01 -3.54856663192E+01  3.99106967795E+02  4.01563894963E+02  5.39479660939E-06  0.00000000000E+00  1.
       -4    1    5    5    0  704  4.44633892430E+01 -2.22026676897E+01  2.06913342774E+02  2.12798220982E+02  3.81469726562E-06  0.00000000000E+00  1.
</event>
<event>
11 115   1.0000000E+00   7.4550000E+01   7.8125000E-03   1.3429423E-01
        5   -1    0    0  502    0  0.00000000000E+00  0.00000000000E+00  1.24061785533E+03  1.24061785533E+03  0.00000000000E+00  0.00000000000E+00  1.
       21   -1    0    0  501  502  0.00000000000E+00  0.00000000000E+00 -4.29172780872E+02  4.29172780872E+02  0.00000000000E+00  0.00000000000E+00  1.
       25    1    1    2    0    0  6.62892087504E+01  3.09242680464E+02 -1.47379097470E+02  3.70635795612E+02  1.25000000000E+02  0.00000000000E+00  1.
        6    2    1    2  501    0 -2.52448425764E+02 -1.34888823000E+00  4.01893584155E+01  3.09299900472E+02  1.74124141727E+02  0.00000000000E+00  1.
      -24    2    1    2    0    0  1.86159217013E+02 -3.07893792234E+02  9.18634813514E+02  9.89854940120E+02  8.04303456616E+01  0.00000000000E+00  1.
        5    1    4    4  501    0 -2.23099491719E+02  5.75257298769E+00  2.49809973637E+01  2.24617648529E+02  4.75000000000E+00  0.00000000000E+00  1.
       24    2    4    4    0    0 -2.93489340446E+01 -7.10146121770E+00  1.52083610518E+01  8.46822519435E+01  7.76401884809E+01  0.00000000000E+00  1.
      -15    1    7    7    0    0 -1.92785322944E+01  3.25723484901E+01 -6.35009364503E+00  3.84200520708E+01  1.77680000000E+00  0.00000000000E+00  1.
       16    1    7    7    0    0 -1.00704017502E+01 -3.96738097078E+01  2.15584546969E+01  4.62621998726E+01  3.37174788087E-07  0.00000000000E+00  1.
       11    1    5    5    0    0  1.06226363410E+02 -2.28833697959E+02  6.98654478129E+02  7.42810192051E+02  5.10713744238E-04  0.00000000000E+00  1.
      -12    1    5    5    0    0  7.99328536036E+01 -7.90600942758E+01  2.19980335385E+02  2.47044748068E+02  9.72560789794E-06  0.00000000000E+00  1.
</event>
<event>
11 115   1.0000000E+00   7.4550000E+01   7.8125000E-03   1.3429423E-01
        5   -1    0    0  502    0  0.00000000000E+00  0.00000000000E+00  2.86631828452E+02  2.86631828452E+02  0.00000000000E+00  0.00000000000E+00  1.
       21   -1    0    0  501  502  0.00000000000E+00  0.00000000000E+00 -2.81315127344E+02  2.81315127344E+02  0.00000000000E+00  0.00000000000E+00  1.
       25    1    1    2    0    0 -5.92814131811E+01 -4.32568720383E+01  2.45118358780E+01  1.47007731176E+02  1.25000000000E+02  0.00000000000E+00  1.
        6    2    1    2  501    0 -4.31453915144E+01  9.42358876888E+01 -1.32706483553E+02  2.41142004020E+02  1.72616708312E+02  0.00000000000E+00  1.
      -24    2    1    2    0    0  1.02426804696E+02 -5.09790156506E+01  1.13511348783E+02  1.79797220600E+02  7.97000870523E+01  0.00000000000E+00  1.
        5    1    4    4  501    0 -4.56647640617E+01  1.12463340898E+02 -7.11320995475E+01  1.40767936011E+02  4.75000000000E+00  0.00000000000E+00  1.
       24    2    4    4    0    0  2.51937254726E+00 -1.82274532093E+01 -6.15743840058E+01  1.00374068009E+02  7.71035762757E+01  0.00000000000E+00  1.
       -1    1    7    7    0  703 -2.32112970553E+00  1.84259287900E+01 -6.06083123484E+01  6.33898258446E+01  9.53674316406E-07  0.00000000000E+00  1.
        2    1    7    7  703    0  4.84050225279E+00 -3.66533819994E+01 -9.66071657417E-01  3.69842421647E+01  1.17676725762E-06  0.00000000000E+00  1.
        3    1    5    5  704    0  5.99238121042E+01 -4.16869595784E+01  1.85106735215E+01  7.53081064044E+01  1.14341533740E-06  0.00000000000E+00  1.
       -4    1    5    5    0  704  4.25029925913E+01 -9.29205607220E+00  9.50006752616E+01  1.04489114196E+02  2.69739830470E-06  0.00000000000E+00  1.
</event>
<event>
11 115   1.0000000E+00   7.4550000E+01   7.8125000E-03   1.3429423E-01
        5   -1    0    0  502    0  0.00000000000E+00  0.00000000000E+00  8.77893486042E+02  8.77893486042E+02  0.00000000000E+00  0.00000000000E+00  1.
       21   -1    0    0  501  502  0.00000000000E+00  0.00000000000E+00 -1.87750456814E+02  1.87750456814E+02  0.00000000000E+00  0.00000000000E+00  1.
       25    1    1    2    0    0  5.90816337025E+01  1.34192136301E+02  2.72257909341E+01  1.94587801719E+02  1.25000000000E+02  0.00000000000E+00  1.
        6    2    1    2  501    0 -1.38993209710E+02  1.26918909750E+02  1.82619753674E+02  3.12704606474E+02  1.70313459481E+02  0.00000000000E+00  1.
      -24    2    1    2    0    0  7.99115760076E+01 -2.61111046051E+02  4.80297484620E+02  5.58351534663E+02  8.06593093109E+01  0.00000000000E+00  1.
        5    1    4    4  501    0 -3.66663942027E+01  9.45749462532E+01  1.38115139375E+02  1.71426949886E+02  4.75000000000E+00  0.00000000000E+00  1.
       24    2    4    4    0    0 -1.02326815507E+02  3.23439634972E+01  4.45046142987E+01  1.41277656588E+02  8.03853619163E+01  0.00000000000E+00  1.
       -3    1    7    7    0  703 -5.55416439890E+01  5.83494694776E+01  2.66562197714E+01  8.48533373405E+01  2.61174467805E-06  0.00000000000E+00  1.
        4    1    7    7  703    0 -4.67851715183E+01 -2.60055059804E+01  1.78483945273E+01  5.64243192471E+01  1.66893005371E-06  0.00000000000E+00  1.
        3    1    5    5  704    0 -4.10680536343E+00 -6.01709506444E+01  1.60270663304E+02  1.71242794499E+02  2.69739830470E-06  0.00000000000E+00  1.
       -4    1    5    5    0  704  8.40183813710E+01 -2.00940095407E+02  3.20026821316E+02  3.87108740165E+02  3.81469726562E-06  0.00000000000E+00  1.
</event>
<event>
11 115   1.0000000E+00   7.4550000E+01   7.8125000E-03   1.3429423E-01
        5   -1    0    0  502    0  0.00000000000E+00  0.00000000000E+00  2.68985795042E+02  2.68985795042E+02  0.00000000000E+00  0.00000000000E+00  1.
       21   -1    0    0  501  502  0.00000000000E+00  0.00000000000E+00 -2.16224046086E+03  2.16224046086E+03  0.00000000000E+00  0.00000000000E+00  1.
       25    1    1    2    0    0 -3.37135898059E+01  5.20840315294E+02 -1.29168605187E+03  1.39874554397E+03  1.25000000000E+02  0.00000000000E+00  1.
        6    2    1    2  501    0  9.22288964019E+01 -6.12082833808E+01 -5.14696205650E+02  5.54249910632E+02  1.73286341179E+02  0.00000000000E+00  1.
      -24    2    1    2    0    0 -5.85153065959E+01 -4.59632031913E+02 -8.68724082964E+01  4.78230801301E+02  8.04502213984E+01  0.00000000000E+00  1.
        5    1    4    4  501    0  2.49134490379E+01 -8.66936483694E+01 -1.63409445062E+02  1.86712821858E+02  4.75000000000E+00  0.00000000000E+00  1.
       24    2    4    4    0    0  6.73154473640E+01  2.54853649886E+01 -3.51286760588E+02  3.67537088774E+02  8.06241290056E+01  0.00000000000E+00  1.
      -15    1    7    7    0    0  3.71044934120E+01 -1.90681062117E+01 -7.30556044104E+01  8.41463870875E+01  1.77680000000E+00  0.00000000000E+00  1.
       16    1    7    7    0    0  3.02109539519E+01  4.45534712003E+01 -2.78231156177E+02  2.83390701687E+02  3.81469726562E-06  0.00000000000E+00  1.
        3    1    5    5  704    0 -1.10979941090E+01 -3.56330868540E+02 -7.02182041484E+01  3.63353064582E+02  1.65181236989E-06  0.00000000000E+00  1.
       -4    1    5    5    0  704 -4.74173124870E+01 -1.03301163374E+02 -1.66542041481E+01  1.14877736719E+02  5.14122453996E-06  0.00000000000E+00  1.
</event>
<event>
11 115   1.0000000E+00   7.4550000E+01   7.8125000E-03   1.3429423E-01
        5   -1    0    0  502    0  0.00000000000E+00  0.00000000000E+00  9.22438691532E+01  9.22438691532E+01  0.00000000000E+00  0.00000000000E+00  1.
       21   -1    0    0  501  502  0.00000000000E+00  0.00000000000E+00 -5.85878138742E+02  5.85878138742E+02  0.00000000000E+00  0.00000000000E+00  1.
       25    1    1    2    0    0  7.12664677787E+01 -4.26444529013E+01 -2.59038747205E+02  2.99371894717E+02  1.25000000000E+02  0.00000000000E+00  1.
        6    2    1    2  501    0  5.80156149234E+00  1.06697352035E+01 -1.00911195829E+02  2.01829985282E+02  1.74369642284E+02  0.00000000000E+00  1.
      -24    2    1    2    0    0 -7.70680292710E+01  3.19747176979E+01 -1.33684326555E+02  1.76920127896E+02  8.04199526281E+01  0.00000000000E+00  1.
        5    1    4    4  501    0  4.55300028454E+01  4.57167847350E+01 -8.21466085079E+01  1.04564015584E+02  4.75000000000E+00  0.00000000000E+00  1.
       24    2    4    4    0    0 -3.97284413531E+01 -3.50470495316E+01 -1.87645873210E+01  9.72659696987E+01  7.93845979450E+01  0.00000000000E+00  1.
       -3    1    7    7    0  703 -2.50276945055E+00  1.86225433843E+01  1.47179945253E+01  2.38680191861E+01  4.76837158203E-07  0.00000000000E+00  1.
        4    1    7    7  703    0 -3.72256719025E+01 -5.36695929159E+01 -3.34825818463E+01  7.33979505125E+01  4.76837158203E-07  0.00000000000E+00  1.
       13    1    5    5    0    0 -7.77916567995E+01 -4.11483358850E+00 -1.05391065967E+02  1.31056330152E+02  1.05659999995E-01  0.00000000000E+00  1.
      -14    1    5    5    0    0  7.23627528518E-01  3.60895512864E+01 -2.82932605880E+01  4.58637977445E+01  1.43051147461E-06  0.00000000000E+00  1.
</event>
<event>
11 115   1.0000000E+00   7.4550000E+01   7.8125000E-03   1.3429423E-01
        5   -1    0    0  502    0  0.00000000000E+00  0.00000000000E+00  3.44008953596E+02  3.44008953596E+02  0.00000000000E+00  0.00000000000E+00  1.
       21   -1    0    0  501  502  0.00000000000E+00  0.00000000000E+00 -2.24201407641E+02  2.24201407641E+02  0.00000000000E+00  0.00000000000E+00  1.
       25    1    1    2    0    0 -1.03040430160E+01  2.45220980086E+01  1.50399482214E+02  1.97363904612E+02  1.25000000000E+02  0.00000000000E+00  1.
        6    2    1    2  501    0 -8.06741617673E+01  5.29730157637E+01 -9.12350623277E+01  2.16630295295E+02  1.71144346870E+02  0.00000000000E+00  1.
      -24    2    1    2    0    0  9.09782047833E+01 -7.74951137723E+01  6.06431260679E+01  1.54216161330E+02  7.63053685651E+01  0.00000000000E+00  1.
        5    1    4    4  501    0 -7.28215858857E+01  1.24775110069E+01 -1.02512325029E+02  1.26451614994E+02  4.75000000000E+00  0.00000000000E+00  1.
       24    2    4    4    0    0 -7.85257588164E+00  4.04955047569E+01  1.12772627013E+01  9.01786803006E+01  7.93943881722E+01  0.00000000000E+00  1.
       -1    1    7    7    0  703 -1.63984545881E+00  6.40921770814E+01  2.22152009749E+00  6.41516282546E+01  3.62560899871E-07  0.00000000000E+00  1.
        2    1    7    7  703    0 -6.21273042283E+00 -2.35966723246E+01  9.05574260383E+00  2.60270520460E+01  9.46194402360E-07  0.00000000000E+00  1.
        3    1    5    5  704    0  1.06832181031E+01 -4.77548796996E+01 -6.06449737718E-01  4.89390178226E+01  1.11870411839E-06  0.00000000000E+00  1.
       -4    1    5    5    0  704  8.02949866802E+01 -2.97402340727E+01  6.12495758056E+01  1.05277143507E+02  2.02304872852E-06  0.00000000000E+00  1.
</event>
<event>
11 115   1.0000000E+00   7.4550000E+01   7.8125000E-03   1.3429423E-01
        5   -1    0    0  502    0  0.00000000000E+00  0.00000000000E+00  4.19419243484E+02  4.19419243484E+02  0.00000000000E+00  0.00000000000E+00  1.
       21   -1    0    0  501  502  0.00000000000E+00  0.00000000000E+00 -7.76022257495E+02  7.76022257495E+02  0.00000000000E+00  0.00000000000E+00  1.
       25    1    1    2    0    0 -3.40410926427E+01  1.17653263172E+02  5.95893392984E+01  1.84870158980E+02  1.25000000000E+02  0.00000000000E+00  1.
        6    2    1    2  501    0 -3.35260866493E+02 -1.58335839974E+02 -4.74137853320E+02  6.26069371193E+02  1.72296450262E+02  0.00000000000E+00  1.
      -24    2    1    2    0    0  3.69301959136E+02  4.06825768024E+01  5.79455000108E+01  3.84501970805E+02  8.02812275999E+01  0.00000000000E+00  1.
        5    1    4    4  501    0 -1.56707170489E+02 -1.43078685235E+02 -2.53061494956E+02  3.30289766993E+02  4.75000000000E+00  0.00000000000E+00  1.
       24    2    4    4    0    0 -1.78553696004E+02 -1.52571547393E+01 -2.21076358365E+02  2.95779604200E+02  8.06015812836E+01  0.00000000000E+00  1.
      -11    1    7    7    0    0 -3.20009605204E+01 -1.95139383849E+01 -1.00230170506E+01  3.87984037890E+01  5.11005786533E-04  0.00000000000E+00  1.
       12    1    7    7    0    0 -1.46552735483E+02  4.25678364560E+00 -2.11053341314E+02  2.56981200411E+02  4.67203091199E-06  0.00000000000E+00  1.
        3    1    5    5  704    0  1.79669674864E+02  3.13056841818E+01 -1.04971163178E+01  1.82678480886E+02  3.80910523144E-06  0.00000000000E+00  1.
       -4    1    5    5    0  704  1.89632284271E+02  9.37689262061E+00  6.84426163286E+01  2.01823489919E+02  1.34869915235E-06  0.00000000000E+00  1.
</event>
<event>
11 115   1.0000000E+00   7.4550000E+01   7.8125000E-03   1.3429423E-01
        5   -1    0    0  502    0  0.00000000000E+00  0.00000000000E+00  1.64860976781E+02  1.64860976781E+02  0.00000000000E+00  0.00000000000E+00  1.
       21   -1    0    0  501  502  0.00000000000E+00  0.00000000000E+00 -7.61489021062E+02  7.61489021062E+02  0.00000000000E+00  0.00000000000E+00  1.
       25    1    1    2    0    0 -4.46858564089E+01  4.24298940180E+01  5.93741109921E+01  1.51484014752E+02  1.25000000000E+02  0.00000000000E+00  1.
        6    2    1    2  501    0  1.49793845449E+02  5.17648453646E+01 -2.78036385793E+02  3.64039409724E+02  1.73501194973E+02  0.00000000000E+00  1.
      -24    2    1    2    0    0 -1.05107989040E+02 -9.41947393826E+01 -3.77965769479E+02  4.10826573367E+02  7.74597456687E+01  0.00000000000E+00  1.
        5    1    4    4  501    0  5.50568571369E+01 -4.25193550527E+01 -4.24093929641E+01  8.16104906460E+01  4.75000000000E+00  0.00000000000E+00  1.
       24    2    4    4    0    0  9.47369883118E+01  9.42842004173E+01 -2.35626992829E+02  2.82428919078E+02  7.98837103484E+01  0.00000000000E+00  1.
       -1    1    7    7    0  703  6.33073493595E+01  1.27140282733E+01 -7.05749267730E+01  9.56571340093E+01  2.86102294922E-06  0.00000000000E+00  1.
        2    1    7    7  703    0  3.14296389523E+01  8.15701721440E+01 -1.65052066056E+02  1.86771785068E+02  2.69739830470E-06  0.00000000000E+00  1.
        1    1    5    5  704    0 -4.59515071842E+01 -5.32454750131E+01 -9.11805913258E+01  1.15154339286E+02  3.56832255056E-06  0.00000000000E+00  1.
       -2    1    5    5    0  704 -5.91564818556E+01 -4.09492643696E+01 -2.86785178154E+02  2.95672234081E+02  5.39479660939E-06  0.00000000000E+00  1.
</event>
<event>
11 115   1.0000000E+00   7.4550000E+01   7.8125000E-03   1.3429423E-01
        5   -1    0    0  502    0  0.00000000000E+00  0.00000000000E+00  5.19214436741E+02  5.19214436741E+02  0.00000000000E+00  0.00000000000E+00  1.
       21   -1    0    0  501  502  0.00000000000E+00  0.00000000000E+00 -7.81112337238E+02  7.81112337238E+02  0.00000000000E+00  0.00000000000E+00  1.
       25    1    1    2    0    0 -1.21089609019E+02 -3.99844920643E+02 -3.05995882527E+02  5.32726134238E+02  1.25000000000E+02  0.00000000000E+00  1.
        6    2    1    2  501    0  1.72645889487E+02  3.84056813851E+02  2.64621030690E+02  5.26531581315E+02  1.72930554897E+02  0.00000000000E+00  1.
      -24    2    1    2    0    0 -5.15562804684E+01  1.57881067926E+01 -2.20523048660E+02  2.41069058426E+02  8.10960021710E+01  0.00000000000E+00  1.
        5    1    4    4  501    0  1.32817367059E+02  1.61835977039E+02  7.93449049240E+01  2.23940869191E+02  4.75000000000E+00  0.00000000000E+00  1.
       24    2    4    4    0    0  3.98285224286E+01  2.22220836812E+02  1.85276125766E+02  3.02590712124E+02  7.91548152227E+01  0.00000000000E+00  1.
       -1    1    7    7    0  703  5.21028738919E+01  1.87706634504E+02  1.80638267300E+02  2.65666470820E+02  4.26496119976E-06  0.00000000000E+00  1.
        2    1    7    7  703    0 -1.22743514632E+01  3.45142023076E+01  4.63785846592E+00  3.69242413046E+01  3.86925515345E-06  0.00000000000E+00  1.
        1    1    5    5  704    0 -6.12933058554E+01  3.86879200003E+01 -1.62046026622E+02  1.77517715287E+02  2.69739830470E-06  0.00000000000E+00  1.
       -2    1    5    5    0  704  9.73702538700E+00 -2.28998132077E+01 -5.84770220381E+01  6.35513431390E+01  9.53674316406E-07  0.00000000000E+00  1.
</event>
<event>
11 115   1.0000000E+00   7.4550000E+01   7.8125000E-03   1.3429423E-01
        5   -1    0    0  502    0  0.00000000000E+00  0.00000000000E+00  3.02588211933E+02  3.02588211933E+02  0.00000000000E+00  0.00000000000E+00  1.
       21   -1    0    0  501  502  0.00000000000E+00  0.00000000000E+00 -5.80230795643E+02  5.80230795643E+02  0.00000000000E+00  0.00000000000E+00  1.
       25    1    1    2    0    0 -1.33277769665E+02 -9.38979760682E+01  1.64266570964E+01  2.06093738041E+02  1.25000000000E+02  0.00000000000E+00  1.
        6    2    1    2  501    0  5.27917700846E+01 -1.86536200437E+02 -2.68814500700E+02  3.73068552693E+02  1.71278090134E+02  0.00000000000E+00  1.
      -24    2    1    2    0    0  8.04859995801E+01  2.80434176505E+02 -2.52547401064E+01  3.03656716842E+02  8.03011600452E+01  0.00000000000E+00  1.
        5    1    4    4  501    0 -1.12099323666E+01 -9.72071328812E+01 -3.65722662786E+01  1.04570466325E+02  4.75000000000E+00  0.00000000000E+00  1.
       24    2    4    4    0    0  6.40017024512E+01 -8.93290675559E+01 -2.32242234421E+02  2.68498086368E+02  7.79670873340E+01  0.00000000000E+00  1.
       -1    1    7    7    0  703  2.68645537397E+01 -4.27167079355E+00 -1.19061210637E+02  1.22129125508E+02  1.90734863281E-06  0.00000000000E+00  1.
        2    1    7    7  703    0  3.71371487115E+01 -8.50573967624E+01 -1.13181023784E+02  1.46368960860E+02  3.30362473978E-06  0.00000000000E+00  1.
        3    1    5    5  704    0  6.61816205118E+01  9.99255867554E+01  5.53877039099E+00  1.19982531059E+02  2.78998130285E-06  0.00000000000E+00  1.
       -4    1    5    5    0  704  1.43043790684E+01  1.80508589750E+02 -3.07935104974E+01  1.83674185782E+02  3.18090058902E-06  0.00000000000E+00  1.
</event>
<event>
11 115   1.0000000E+00   7.4550000E+01   7.8125000E-03   1.3429423E-01
        5   -1    0    0  502    0  0.00000000000E+00  0.00000000000E+00  2.40576328926E+02  2.40576328926E+02  0.00000000000E+00  0.00000000000E+00  1.
       21   -1    0    0  501  502  0.00000000000E+00  0.00000000000E+00 -1.43561984821E+03  1.43561984821E+03  0.00000000000E+00  0.00000000000E+00  1.
       25    1    1    2    0    0 -4.40915623958E+01 -1.95693653528E+01  7.41887098799E+01  1.53153487092E+02  1.25000000000E+02  0.00000000000E+00  1.
        6    2    1    2  501    0  2.66551683811E+02 -3.04961943653E+02 -6.53706870022E+02  7.88172657345E+02  1.72719074377E+02  0.00000000000E+00  1.
      -24    2    1    2    0    0 -2.22460121415E+02  3.24531309006E+02 -6.15525359147E+02  7.34870032703E+02  7.97083500497E+01  0.00000000000E+00  1.
        5    1    4    4  501    0  1.77240011761E+02 -1.56618741157E+02 -2.70097646921E+02  3.59052577240E+02  4.75000000000E+00  0.00000000000E+00  1.
       24    2    4    4    0    0  8.93116720502E+01 -1.48343202496E+02 -3.83609223101E+02  4.29120080105E+02  8.37002186982E+01  0.00000000000E+00  1.
      -15    1    7    7    0    0 -9.86781658697E+00 -3.98233346852E+01 -5.10689901969E+01  6.55322101536E+01  1.77680000000E+00  0.00000000000E+00  1.
       16    1    7    7    0    0  9.91794886371E+01 -1.08519867811E+02 -3.32540232904E+02  3.63587869951E+02  6.60724947956E-06  0.00000000000E+00  1.
       11    1    5    5    0    0 -8.84254950868E+01  8.40393044717E+01 -2.40063845731E+02  2.69281122444E+02  5.11019955316E-04  0.00000000000E+00  1.
      -12    1    5    5    0    0 -1.34034626328E+02  2.40492004534E+02 -3.75461513416E+02  4.65588910259E+02  5.39479660939E-06  0.00000000000E+00  1.
</event>
<event>
11 115   1.0000000E+00   7.4550000E+01   7.8125000E-03   1.3429423E-01
        5   -1    0    0  502    0  0.00000000000E+00  0.00000000000E+00  4.56039311093E+02  4.56039311093E+02  0.00000000000E+00  0.00000000000E+00  1.
       21   -1    0    0  501  502  0.00000000000E+00  0.00000000000E+00 -3.24409434184E+02  3.24409434184E+02  0.00000000000E+00  0.00000000000E+00  1.
       25    1    1    2    0    0 -1.56925314119E+02 -5.57544518022E+01  2.89543449760E+02  3.56643410715E+02  1.25000000000E+02  0.00000000000E+00  1.
        6    2    1    2  501    0  1.73039781320E+02  1.11769647057E+02 -1.78136360583E+02  3.22910872313E+02  1.73504030425E+02  0.00000000000E+00  1.
      -24    2    1    2    0    0 -1.61144672013E+01 -5.60151952546E+01  2.02227877315E+01  1.00894462249E+02  7.98332838874E+01  0.00000000000E+00  1.
        5    1    4    4  501    0  1.63131114559E+02  6.92243845952E+01 -1.08456514850E+02  2.07820004025E+02  4.75000000001E+00  0.00000000000E+00  1.
       24    2    4    4    0    0  9.90866676178E+00  4.25452624615E+01 -6.96798457331E+01  1.15090868288E+02  8.05130177483E+01  0.00000000000E+00  1.
       -1    1    7    7    0  703  1.96493383543E+01  3.23995772939E+01  5.78074470320E+00  3.83307463521E+01  6.79597511947E-07  0.00000000000E+00  1.
        2    1    7    7  703    0 -9.74067159249E+00  1.01456851676E+01 -7.54605904363E+01  7.67601219358E+01  1.34869915235E-06  0.00000000000E+00  1.
       13    1    5    5    0    0 -2.83381387986E+00 -7.14290921862E+01 -1.00261599572E+00  7.14923920045E+01  1.05659999993E-01  0.00000000000E+00  1.
      -14    1    5    5    0    0 -1.32806533214E+01  1.54138969316E+01  2.12254037272E+01  2.94020702443E+01  9.53674316406E-07  0.00000000000E+00  1.
</event>
</LesHouchesEvents>
