<LesHouchesEvents version="1.0">
<!--
Output from the JHUGenerator v7.5.1 described in arXiv:1001.3396 [hep-ph], arXiv:1208.4018 [hep-ph], arXiv:1309.4819 [hep-ph], arXiv:1606.03107 [hep-ph]
   
   Command line: ./JHUGen Seed=765543533 PDFSet=3 Process=117 VegasNc0=100000 VegasNc2=100 DataFile=compare_to_reference/tWH_117 TopDK=1 DecayMode1=11 DecayMode2=11 ghg2=0.383432074687728,0.918260989345657 ghg3=6294.49296087723,2253.12941717723 ghg4=0.335495485382528,0.17285803562226 ghz1=0.154934976270359,0.453918144016304 ghz2=0.469297059144414,0.745302300947002 ghz3=3947.40921062637,3597.4885961919 ghz4=0.177791270766536,0.920170534486048 ghzgs2=0.0240331049939919,0.232175381101053 ghzgs3=0.331962910170583,0.0450183240308457 ghzgs4=0.808286540247172,0.133184346613754 ghgsgs2=0.530394804029869,0.211218112389125 ghgsgs3=0.914978695198138,0.055650585081425 ghgsgs4=0.694524307167701,0.511424456076726 ghz1_prime=0.143354267833606,0.0910761280837012 ghz1_prime2=7416.7007267243,4861.35525489789 ghz1_prime3=4431.44656075298,4436.48625894176 ghz1_prime4=2441.69123517064,6946.16318931911 ghz1_prime5=78314042.889773,69465359.939181 ghz1_prime6=51233058.8130761,29537873.5850789 ghz1_prime7=47832192.9001564,5955
   
   Input Parameter:
    Collider: P-P, sqrt(s)=13000.00
    Resonance: spin=0, mass= 125.00 width=   0.00407
    Top quark mass=173.2000, width=2.0000
    Top quark decay= 1
    Random seed:   765543533
    To reproduce results using this seed, JHUGen should be compiled with the same compiler:
      GNU Fortran (GCC) 6.3.0
    
    WidthScheme:   2
    PDFSet:   3
    Unweighted: T
    
    
    LHE output: compare_to_reference/tWH_117.lhe
    Histogram output: compare_to_reference/tWH_117.dat
    Log file: compare_to_reference/tWH_117.log
    
-->
<init>
2212 2212   6500.0000000000000000    6500.0000000000000000 0 0  263000  263000  3  1
 5.6405944E+01  3.5114723E-01  1.0000000E+00 117
</init>
<event>
11 117   1.0000000E+00   7.4550000E+01   7.8125000E-03   1.3429423E-01
       21   -1    0    0  501  502  0.00000000000E+00  0.00000000000E+00  7.53672126049E+02  7.53672126049E+02  0.00000000000E+00  0.00000000000E+00  1.
        5   -1    0    0  502    0  0.00000000000E+00  0.00000000000E+00 -5.75609712909E+02  5.75609712909E+02  0.00000000000E+00  0.00000000000E+00  1.
       25    1    1    2    0    0 -1.19208538617E+02  4.52698616327E+02  1.08391691253E+02  4.96508279525E+02  1.25000000000E+02  0.00000000000E+00  1.
        6    2    1    2  501    0 -2.70271700468E+01 -7.27628274649E+01  3.02764269712E+02  3.56932182678E+02  1.72364390277E+02  0.00000000000E+00  1.
      -24    2    1    2    0    0  1.46235708664E+02 -3.79935788863E+02 -2.33093547825E+02  4.75841376754E+02  7.97265805488E+01  0.00000000000E+00  1.
        5    1    4    4  501    0 -1.48377124360E+01  4.25124660993E+01  1.01714228387E+02  1.11336491056E+02  4.75000000000E+00  0.00000000000E+00  1.
       24    2    4    4    0    0 -1.21894576108E+01 -1.15275293564E+02  2.01050041325E+02  2.45595691622E+02  8.03688275614E+01  0.00000000000E+00  1.
      -11    1    7    7    0    0 -1.62548821333E+01  7.25896570005E+00  3.40619081631E+01  3.84334146827E+01  5.10987918567E-04  0.00000000000E+00  1.
       12    1    7    7    0    0  4.06542452249E+00 -1.22534259264E+02  1.66988133162E+02  2.07162276940E+02  3.30362473978E-06  0.00000000000E+00  1.
        3    1    5    5  704    0  8.56167167590E+01 -1.21002690055E+02 -9.65596615016E+01  1.76905741621E+02  1.90734863281E-06  0.00000000000E+00  1.
       -4    1    5    5    0  704  6.06189919052E+01 -2.58933098807E+02 -1.36533886324E+02  2.98935635133E+02  1.90734863281E-06  0.00000000000E+00  1.
</event>
<event>
11 117   1.0000000E+00   7.4550000E+01   7.8125000E-03   1.3429423E-01
       21   -1    0    0  502  501  0.00000000000E+00  0.00000000000E+00  1.92296764809E+02  1.92296764809E+02  0.00000000000E+00  0.00000000000E+00  1.
       -5   -1    0    0    0  502  0.00000000000E+00  0.00000000000E+00 -1.05736232722E+03  1.05736232722E+03  0.00000000000E+00  0.00000000000E+00  1.
       25    1    1    2    0    0 -2.38563338578E+01  9.55210182458E+01  3.03318350822E+01  1.61982745412E+02  1.25000000000E+02  0.00000000000E+00  1.
       -6    2    1    2    0  501 -1.08512384784E+00 -3.18331606959E+02 -6.55451479559E+02  7.49619267652E+02  1.76000610496E+02  0.00000000000E+00  1.
       24    2    1    2    0    0  2.49414577056E+01  2.22810588714E+02 -2.39945917936E+02  3.38057078968E+02  8.02615122615E+01  0.00000000000E+00  1.
       -5    1    4    4    0  501  2.76228525797E+01 -1.89848623264E+02 -2.48234669787E+02  3.13765096089E+02  4.75000000000E+00  0.00000000000E+00  1.
      -24    2    4    4    0    0 -2.87079764275E+01 -1.28482983695E+02 -4.07216809773E+02  4.35854171562E+02  8.25306227829E+01  0.00000000000E+00  1.
        1    1    7    7  704    0  2.54987171183E+01 -7.09479052884E+01 -2.22797381082E+02  2.35207276368E+02  3.81469726562E-06  0.00000000000E+00  1.
       -2    1    7    7    0  704 -5.42066935458E+01 -5.75350784069E+01 -1.84419428691E+02  2.00646895194E+02  0.00000000000E+00  0.00000000000E+00  1.
      -15    1    5    5    0    0  4.85376561966E+01  8.21433414577E+01 -1.00343294034E+02  1.38475146834E+02  1.77680000000E+00  0.00000000000E+00  1.
       16    1    5    5    0    0 -2.35961984910E+01  1.40667247256E+02 -1.39602623902E+02  1.99581932133E+02  0.00000000000E+00  0.00000000000E+00  1.
</event>
<event>
11 117   1.0000000E+00   7.4550000E+01   7.8125000E-03   1.3429423E-01
       21   -1    0    0  502  501  0.00000000000E+00  0.00000000000E+00  2.13843956956E+02  2.13843956956E+02  0.00000000000E+00  0.00000000000E+00  1.
       -5   -1    0    0    0  502  0.00000000000E+00  0.00000000000E+00 -8.60984371533E+02  8.60984371533E+02  0.00000000000E+00  0.00000000000E+00  1.
       25    1    1    2    0    0  2.04441034164E+02  2.49616131259E+02 -2.32390679330E+02  4.16815039645E+02  1.25000000000E+02  0.00000000000E+00  1.
       -6    2    1    2    0  501 -2.78100669129E+02 -1.43346385038E+02 -3.09785265706E+02  4.72911765206E+02  1.72599126730E+02  0.00000000000E+00  1.
       24    2    1    2    0    0  7.36596349651E+01 -1.06269746221E+02 -1.04964469541E+02  1.85101523638E+02  8.07838684533E+01  0.00000000000E+00  1.
       -5    1    4    4    0  501  7.29627512028E+00 -4.43204106150E+01 -3.55656985429E+01  5.74892671770E+01  4.75000000000E+00  0.00000000000E+00  1.
      -24    2    4    4    0    0 -2.85396944249E+02 -9.90259744231E+01 -2.74219567163E+02  4.15422498029E+02  7.82427086437E+01  0.00000000000E+00  1.
        1    1    7    7  704    0 -3.10476315885E+00 -4.81892885008E+00  4.80367882465E+00  7.47910153595E+00  3.84807882108E-06  0.00000000000E+00  1.
       -2    1    7    7    0  704 -2.82292181091E+02 -9.42070455730E+01 -2.79023245988E+02  4.07943396493E+02  3.81469726562E-06  0.00000000000E+00  1.
      -13    1    5    5    0    0 -9.13186714604E+00 -2.43745966587E+00  6.70739688170E+00  1.15901917223E+01  1.05660000026E-01  0.00000000000E+00  1.
       14    1    5    5    0    0  8.27915021112E+01 -1.03832286555E+02 -1.11671866422E+02  1.73511331916E+02  2.33601545599E-06  0.00000000000E+00  1.
</event>
<event>
11 117   1.0000000E+00   7.4550000E+01   7.8125000E-03   1.3429423E-01
       21   -1    0    0  501  502  0.00000000000E+00  0.00000000000E+00  6.05555136365E+01  6.05555136365E+01  0.00000000000E+00  0.00000000000E+00  1.
        5   -1    0    0  502    0  0.00000000000E+00  0.00000000000E+00 -8.69215356661E+02  8.69215356661E+02  0.00000000000E+00  0.00000000000E+00  1.
       25    1    1    2    0    0  2.14635632734E+01 -8.10781962913E+01 -2.41550459782E+02  2.84615500427E+02  1.25000000000E+02  0.00000000000E+00  1.
        6    2    1    2  501    0 -2.53925610324E+01 -1.67850211011E+01 -3.26229815734E+02  3.73046090562E+02  1.78356311693E+02  0.00000000000E+00  1.
      -24    2    1    2    0    0  3.92899775899E+00  9.78632173925E+01 -2.40879567509E+02  2.72109279309E+02  8.01738579649E+01  0.00000000000E+00  1.
        5    1    4    4  501    0 -1.28643329580E+01  2.33930610442E+01 -2.58125080636E+02  2.59545460606E+02  4.75000000000E+00  0.00000000000E+00  1.
       24    2    4    4    0    0 -1.25282280743E+01 -4.01780821453E+01 -6.81047350973E+01  1.13500629956E+02  8.04543552223E+01  0.00000000000E+00  1.
       -1    1    7    7    0  703  2.52789662431E+01 -4.22890853806E+01 -5.39856089833E+01  7.30878844539E+01  1.34869915235E-06  0.00000000000E+00  1.
        2    1    7    7  703    0 -3.78071943174E+01  2.11100323527E+00 -1.41191261140E+01  4.04127455024E+01  1.46000966000E-06  0.00000000000E+00  1.
       11    1    5    5    0    0  6.94990775692E+00  5.75092318194E+01 -2.18120231647E+02  2.25681298331E+02  5.11012836212E-04  0.00000000000E+00  1.
      -12    1    5    5    0    0 -3.02090999793E+00  4.03539855731E+01 -2.27593358622E+01  4.64279809785E+01  2.50055515330E-06  0.00000000000E+00  1.
</event>
<event>
11 117   1.0000000E+00   7.4550000E+01   7.8125000E-03   1.3429423E-01
       21   -1    0    0  502  501  0.00000000000E+00  0.00000000000E+00  6.86931563744E+02  6.86931563744E+02  0.00000000000E+00  0.00000000000E+00  1.
       -5   -1    0    0    0  502  0.00000000000E+00  0.00000000000E+00 -3.01485638757E+02  3.01485638757E+02  0.00000000000E+00  0.00000000000E+00  1.
       25    1    1    2    0    0 -2.97517139875E-01  2.01192571172E+02  6.08197182532E+01  2.44545654919E+02  1.25000000000E+02  0.00000000000E+00  1.
       -6    2    1    2    0  501  1.51387936369E+02 -2.40374990521E+02 -4.81176717371E+01  3.33218599179E+02  1.67394388075E+02  0.00000000000E+00  1.
       24    2    1    2    0    0 -1.51090419229E+02  3.91824193496E+01  3.72743878471E+02  4.10652948404E+02  7.30360755157E+01  0.00000000000E+00  1.
       -5    1    4    4    0  501  1.81114370596E+01 -9.18165361526E+01 -7.01245697830E+01  1.17039814810E+02  4.75000000000E+00  0.00000000000E+00  1.
      -24    2    4    4    0    0  1.33276499309E+02 -1.48558454369E+02  2.20068980459E+01  2.16178784369E+02  8.01044544142E+01  0.00000000000E+00  1.
       13    1    7    7    0    0  9.37635031913E+01 -5.22411677767E+01  3.08957803837E+01  1.11692858102E+02  1.05659999996E-01  0.00000000000E+00  1.
      -14    1    7    7    0    0  3.95129961182E+01 -9.63172865921E+01 -8.88888233776E+00  1.04485926267E+02  1.66039327111E-06  0.00000000000E+00  1.
       -1    1    5    5    0  703 -6.74989120678E+00  7.68285252325E+00  5.86320630271E-01  1.02435846303E+01  4.61154226227E-07  0.00000000000E+00  1.
        2    1    5    5  703    0 -1.44340528022E+02  3.14995668264E+01  3.72157557840E+02  4.00409363774E+02  7.62939453125E-06  0.00000000000E+00  1.
</event>
<event>
11 117   1.0000000E+00   7.4550000E+01   7.8125000E-03   1.3429423E-01
       21   -1    0    0  502  501  0.00000000000E+00  0.00000000000E+00  1.91925065098E+02  1.91925065098E+02  0.00000000000E+00  0.00000000000E+00  1.
       -5   -1    0    0    0  502  0.00000000000E+00  0.00000000000E+00 -9.51525486851E+02  9.51525486851E+02  0.00000000000E+00  0.00000000000E+00  1.
       25    1    1    2    0    0  1.69426589444E+02 -1.38582672524E+02 -1.29870407960E+02  2.83552198366E+02  1.25000000000E+02  0.00000000000E+00  1.
       -6    2    1    2    0  501 -7.98506489258E+01  5.68925256684E+01  1.59796760108E+01  1.98102821928E+02  1.71395718732E+02  0.00000000000E+00  1.
       24    2    1    2    0    0 -8.95759405184E+01  8.16901468553E+01 -6.45709689805E+02  6.61795531655E+02  7.95939256315E+01  0.00000000000E+00  1.
       -5    1    4    4    0  501 -9.98642685650E+01  5.20048011960E+01 -3.42797506306E+00  1.12746108565E+02  4.75000000000E+00  0.00000000000E+00  1.
      -24    2    4    4    0    0  2.00136196392E+01  4.88772447238E+00  1.94076510739E+01  8.53567133634E+01  8.05274907992E+01  0.00000000000E+00  1.
        3    1    7    7  704    0  8.18910882177E+00  4.15937109433E+01  4.71550807403E-01  4.23948187104E+01  8.89463280494E-07  0.00000000000E+00  1.
       -4    1    7    7    0  704  1.18245108174E+01 -3.67059864709E+01  1.89361002665E+01  4.29618946530E+01  7.15255737305E-07  0.00000000000E+00  1.
      -11    1    5    5    0    0 -6.76116394163E+01  8.31609259040E+01 -6.13439805575E+02  6.22732260643E+02  5.11055549347E-04  0.00000000000E+00  1.
       12    1    5    5    0    0 -2.19643011021E+01 -1.47077904874E+00 -3.22698842300E+01  3.90632710117E+01  8.90805325139E-06  0.00000000000E+00  1.
</event>
<event>
11 117   1.0000000E+00   7.4550000E+01   7.8125000E-03   1.3429423E-01
       21   -1    0    0  502  501  0.00000000000E+00  0.00000000000E+00  1.32007986324E+03  1.32007986324E+03  0.00000000000E+00  0.00000000000E+00  1.
       -5   -1    0    0    0  502  0.00000000000E+00  0.00000000000E+00 -1.84504519019E+02  1.84504519019E+02  0.00000000000E+00  0.00000000000E+00  1.
       25    1    1    2    0    0 -2.24788938398E+02  2.83427204023E+02  3.34922431828E+02  5.08585373510E+02  1.25000000000E+02  0.00000000000E+00  1.
       -6    2    1    2    0  501 -4.56529731960E+01 -2.42290010600E+02  3.48265450646E+02  4.61213353219E+02  1.75043679909E+02  0.00000000000E+00  1.
       24    2    1    2    0    0  2.70441911594E+02 -4.11371934229E+01  4.52387461742E+02  5.34785655526E+02  8.06857210732E+01  0.00000000000E+00  1.
       -5    1    4    4    0  501  2.96309364121E+01 -2.92180790238E+01  6.78146623623E+00  4.24292271767E+01  4.75000000000E+00  0.00000000000E+00  1.
      -24    2    4    4    0    0 -7.52839096081E+01 -2.13071931576E+02  3.41483984409E+02  4.18784126042E+02  8.77582904667E+01  0.00000000000E+00  1.
       13    1    7    7    0    0 -2.39038201272E+01 -6.39281461134E+01  4.15673378024E+01  7.99127975870E+01  1.05660000029E-01  0.00000000000E+00  1.
      -14    1    7    7    0    0 -5.13800894809E+01 -1.49143785463E+02  2.99916646607E+02  3.38871328455E+02  5.39479660939E-06  0.00000000000E+00  1.
      -13    1    5    5    0    0  1.89328257756E+02 -3.41420491669E+01  3.79648754554E+02  4.25610216870E+02  1.05659999677E-01  0.00000000000E+00  1.
       14    1    5    5    0    0  8.11136538381E+01 -6.99514425599E+00  7.27387071886E+01  1.09175438655E+02  6.25366070204E-06  0.00000000000E+00  1.
</event>
<event>
11 117   1.0000000E+00   7.4550000E+01   7.8125000E-03   1.3429423E-01
       21   -1    0    0  502  501  0.00000000000E+00  0.00000000000E+00  2.06467618764E+03  2.06467618764E+03  0.00000000000E+00  0.00000000000E+00  1.
       -5   -1    0    0    0  502  0.00000000000E+00  0.00000000000E+00 -1.40300125517E+03  1.40300125517E+03  0.00000000000E+00  0.00000000000E+00  1.
       25    1    1    2    0    0 -5.51068886218E+01  6.19670841421E+02 -5.96348537318E+02  8.70795784809E+02  1.25000000000E+02  0.00000000000E+00  1.
       -6    2    1    2    0  501 -5.32618341485E+02  6.53690327996E+02  5.68372058625E+02  1.03195197165E+03  1.75740525114E+02  0.00000000000E+00  1.
       24    2    1    2    0    0  5.87725230106E+02 -1.27336116942E+03  6.89651411164E+02  1.56492968634E+03  8.07232332624E+01  0.00000000000E+00  1.
       -5    1    4    4    0  501 -7.96924865816E+01  3.57757118838E+01  8.80497767372E+01  1.24121390831E+02  4.75000000000E+00  0.00000000000E+00  1.
      -24    2    4    4    0    0 -4.52925854903E+02  6.17914616113E+02  4.80322281887E+02  9.07830580820E+02  8.05392211854E+01  0.00000000000E+00  1.
        3    1    7    7  704    0 -1.92612926869E+02  3.03673698396E+02  2.62942403890E+02  4.45484188786E+02  0.00000000000E+00  0.00000000000E+00  1.
       -4    1    7    7    0  704 -2.60312928034E+02  3.14240917717E+02  2.17379877997E+02  4.62346392034E+02  4.67203091199E-06  0.00000000000E+00  1.
       -3    1    5    5    0  703  4.14908978075E+02 -8.08405212755E+02  4.38339445609E+02  1.00886565888E+03  1.52587890625E-05  0.00000000000E+00  1.
        4    1    5    5  703    0  1.72816252031E+02 -4.64955956662E+02  2.51311965556E+02  5.56064027458E+02  7.13664510112E-06  0.00000000000E+00  1.
</event>
<event>
11 117   1.0000000E+00   7.4550000E+01   7.8125000E-03   1.3429423E-01
       -5   -1    0    0    0  502  0.00000000000E+00  0.00000000000E+00  5.40820351020E+02  5.40820351020E+02  0.00000000000E+00  0.00000000000E+00  1.
       21   -1    0    0  502  501  0.00000000000E+00  0.00000000000E+00 -9.61790741861E+01  9.61790741861E+01  0.00000000000E+00  0.00000000000E+00  1.
       25    1    1    2    0    0 -2.91157080071E+01 -1.45015526025E+01  2.49726648616E+02  2.81151949148E+02  1.25000000000E+02  0.00000000000E+00  1.
       -6    2    1    2    0  501 -5.09074697206E+01  3.69903803690E+00  1.56100368611E+02  2.39095893036E+02  1.73764978147E+02  0.00000000000E+00  1.
       24    2    1    2    0    0  8.00231777277E+01  1.08025145656E+01  3.88142596065E+01  1.16751583022E+02  7.48597494976E+01  0.00000000000E+00  1.
       -5    1    4    4    0  501 -5.30949162926E+01 -5.51027718506E+01  4.19071397598E+01  8.73736600160E+01  4.75000000000E+00  0.00000000000E+00  1.
      -24    2    4    4    0    0  2.18744657195E+00  5.88018098875E+01  1.14193228851E+02  1.51722233020E+02  8.07285866869E+01  0.00000000000E+00  1.
        3    1    7    7  704    0 -3.62260456864E+01  9.68110338957E+00  4.07392352920E+01  5.53690838022E+01  1.43051147461E-06  0.00000000000E+00  1.
       -4    1    7    7    0  704  3.84134922584E+01  4.91207064979E+01  7.34539935592E+01  9.63531492175E+01  1.34869915235E-06  0.00000000000E+00  1.
      -15    1    5    5    0    0  8.54883435564E+01  7.79987035924E+00  5.32450793461E+01  1.01031135569E+02  1.77680000000E+00  0.00000000000E+00  1.
       16    1    5    5    0    0 -5.46516582863E+00  3.00264420632E+00 -1.44308197396E+01  1.57204474529E+01  1.43051147461E-06  0.00000000000E+00  1.
</event>
<event>
11 117   1.0000000E+00   7.4550000E+01   7.8125000E-03   1.3429423E-01
       21   -1    0    0  502  501  0.00000000000E+00  0.00000000000E+00  3.17830360209E+02  3.17830360209E+02  0.00000000000E+00  0.00000000000E+00  1.
       -5   -1    0    0    0  502  0.00000000000E+00  0.00000000000E+00 -5.70022768751E+02  5.70022768751E+02  0.00000000000E+00  0.00000000000E+00  1.
       25    1    1    2    0    0 -2.27339589573E+01  3.37155949254E+01 -4.19789761554E+02  4.39888642882E+02  1.25000000000E+02  0.00000000000E+00  1.
       -6    2    1    2    0  501 -5.42294926494E+01  8.94929803308E+01  1.92984020613E+02  2.79768861301E+02  1.73429963214E+02  0.00000000000E+00  1.
       24    2    1    2    0    0  7.69634516067E+01 -1.23208575256E+02 -2.53866676008E+01  1.68195624777E+02  8.08799072846E+01  0.00000000000E+00  1.
       -5    1    4    4    0  501  2.13622163885E+01  3.82501122143E+01  1.41574951045E+02  1.48274895505E+02  4.75000000000E+00  0.00000000000E+00  1.
      -24    2    4    4    0    0 -7.55917090379E+01  5.12428681165E+01  5.14090695673E+01  1.31493965796E+02  7.94218647412E+01  0.00000000000E+00  1.
        1    1    7    7  704    0 -8.61351740490E+00 -2.08658574953E+01  8.31831642741E+00  2.40576615506E+01  2.04053434952E-06  0.00000000000E+00  1.
       -2    1    7    7    0  704 -6.69781916330E+01  7.21087256118E+01  4.30907531399E+01  1.07436304246E+02  1.58148993986E-06  0.00000000000E+00  1.
       -3    1    5    5    0  703  7.85456727385E+01 -5.56545657541E+01 -7.36428564866E-01  9.62673138830E+01  9.92802095718E-07  0.00000000000E+00  1.
        4    1    5    5  703    0 -1.58222113187E+00 -6.75540095021E+01 -2.46502390359E+01  7.19283108939E+01  1.11828226085E-06  0.00000000000E+00  1.
</event>
<event>
11 117   1.0000000E+00   7.4550000E+01   7.8125000E-03   1.3429423E-01
       21   -1    0    0  502  501  0.00000000000E+00  0.00000000000E+00  4.25456566466E+02  4.25456566466E+02  0.00000000000E+00  0.00000000000E+00  1.
       -5   -1    0    0    0  502  0.00000000000E+00  0.00000000000E+00 -1.47740760794E+02  1.47740760794E+02  0.00000000000E+00  0.00000000000E+00  1.
       25    1    1    2    0    0 -7.40677907510E+01  3.12083793582E+01  6.10842226576E+01  1.60674462273E+02  1.25000000000E+02  0.00000000000E+00  1.
       -6    2    1    2    0  501 -3.31502374817E+01  4.64971356847E+00  2.08817352470E+02  2.73017575790E+02  1.72665433472E+02  0.00000000000E+00  1.
       24    2    1    2    0    0  1.07218028233E+02 -3.58580929267E+01  7.81423054488E+00  1.39505289197E+02  8.13581901753E+01  0.00000000000E+00  1.
       -5    1    4    4    0  501 -2.01007559181E+01 -1.33905309901E+01 -1.82865123256E+01  3.06644051257E+01  4.75000000000E+00  0.00000000000E+00  1.
      -24    2    4    4    0    0 -1.30494815636E+01  1.80402445586E+01  2.27103864796E+02  2.42353170664E+02  8.16281479213E+01  0.00000000000E+00  1.
       11    1    7    7    0    0 -2.58335370008E+01 -2.68577632962E+01  8.59749420351E+01  9.37037979030E+01  5.11005717009E-04  0.00000000000E+00  1.
      -12    1    7    7    0    0  1.27840554372E+01  4.48980078547E+01  1.41128922760E+02  1.48649372761E+02  2.69739830470E-06  0.00000000000E+00  1.
       -3    1    5    5    0  703  1.16377596486E+02 -4.09108694478E+01 -4.38277287527E+00  1.23436837698E+02  3.26468084756E-07  0.00000000000E+00  1.
        4    1    5    5  703    0 -9.15956825318E+00  5.05277652114E+00  1.21970034202E+01  1.60684514994E+01  1.32745846816E-06  0.00000000000E+00  1.
</event>
<event>
11 117   1.0000000E+00   7.4550000E+01   7.8125000E-03   1.3429423E-01
       21   -1    0    0  502  501  0.00000000000E+00  0.00000000000E+00  5.50304137140E+02  5.50304137140E+02  0.00000000000E+00  0.00000000000E+00  1.
       -5   -1    0    0    0  502  0.00000000000E+00  0.00000000000E+00 -9.71401678352E+02  9.71401678352E+02  0.00000000000E+00  0.00000000000E+00  1.
       25    1    1    2    0    0 -1.97869633509E+01 -4.14252264228E+02  2.82199220998E+02  5.16969885650E+02  1.25000000000E+02  0.00000000000E+00  1.
       -6    2    1    2    0  501 -9.17331959855E+01 -4.99563075167E+01 -3.55230921687E+02  4.08416313810E+02  1.72349255169E+02  0.00000000000E+00  1.
       24    2    1    2    0    0  1.11520159336E+02  4.64208571745E+02 -3.48065840522E+02  5.96319616032E+02  8.07521585223E+01  0.00000000000E+00  1.
       -5    1    4    4    0  501 -6.73503531642E+01 -8.68991428711E+01 -1.95947140330E+02  2.24734010347E+02  4.75000000000E+00  0.00000000000E+00  1.
      -24    2    4    4    0    0 -2.43828428213E+01  3.69428353543E+01 -1.59283781357E+02  1.83682303463E+02  8.00535414213E+01  0.00000000000E+00  1.
       15    1    7    7    0    0  6.91371205037E+00 -1.80029992357E+01 -1.05252451747E+01  2.20418964706E+01  1.77680000000E+00  0.00000000000E+00  1.
      -16    1    7    7    0    0 -3.12965548717E+01  5.49458345900E+01 -1.48758536182E+02  1.61640406993E+02  2.69739830470E-06  0.00000000000E+00  1.
      -13    1    5    5    0    0  5.96938411907E+01  3.83962396666E+02 -2.84056092979E+02  4.81329774533E+02  1.05660000228E-01  0.00000000000E+00  1.
       14    1    5    5    0    0  5.18263181457E+01  8.02461750788E+01 -6.40097475431E+01  1.14989841498E+02  5.04637014592E-06  0.00000000000E+00  1.
</event>
<event>
11 117   1.0000000E+00   7.4550000E+01   7.8125000E-03   1.3429423E-01
       21   -1    0    0  501  502  0.00000000000E+00  0.00000000000E+00  1.94638940582E+03  1.94638940582E+03  0.00000000000E+00  0.00000000000E+00  1.
        5   -1    0    0  502    0  0.00000000000E+00  0.00000000000E+00 -7.36029536824E+01  7.36029536824E+01  0.00000000000E+00  0.00000000000E+00  1.
       25    1    1    2    0    0 -8.43691642098E+01  2.49262785705E+02  3.88130484796E+02  4.85304404920E+02  1.25000000000E+02  0.00000000000E+00  1.
        6    2    1    2  501    0 -8.20545236459E+00 -1.75324951634E+02  9.55360932007E+02  9.85729445842E+02  1.67755363199E+02  0.00000000000E+00  1.
      -24    2    1    2    0    0  9.25746165744E+01 -7.39378340706E+01  5.29295035332E+02  5.48958508737E+02  8.46483723804E+01  0.00000000000E+00  1.
        5    1    4    4  501    0 -2.17441973796E+01 -4.78586631704E+01  5.63558031150E+02  5.66024273979E+02  4.74999999999E+00  0.00000000000E+00  1.
       24    2    4    4    0    0  1.35387450150E+01 -1.27466288464E+02  3.91802900856E+02  4.19705171863E+02  7.88160253850E+01  0.00000000000E+00  1.
       -3    1    7    7    0  703 -1.72943747849E+01 -6.92359858610E+01  2.88364336251E+02  2.97063473956E+02  3.81469726562E-06  0.00000000000E+00  1.
        4    1    7    7  703    0  3.08331197999E+01 -5.82303026031E+01  1.03438564606E+02  1.22641697907E+02  1.90734863281E-06  0.00000000000E+00  1.
        3    1    5    5  704    0  8.45052680255E+01 -3.33277166958E+01  2.38198218848E+02  2.54931889897E+02  4.67203091199E-06  0.00000000000E+00  1.
       -4    1    5    5    0  704  8.06934854894E+00 -4.06101173748E+01  2.91096816484E+02  2.94026618840E+02  0.00000000000E+00  0.00000000000E+00  1.
</event>
<event>
11 117   1.0000000E+00   7.4550000E+01   7.8125000E-03   1.3429423E-01
       21   -1    0    0  502  501  0.00000000000E+00  0.00000000000E+00  1.19360619132E+03  1.19360619132E+03  0.00000000000E+00  0.00000000000E+00  1.
       -5   -1    0    0    0  502  0.00000000000E+00  0.00000000000E+00 -2.08371082761E+02  2.08371082761E+02  0.00000000000E+00  0.00000000000E+00  1.
       25    1    1    2    0    0  3.66710410351E+02  1.99482346795E+01  7.17759647713E+02  8.15891150222E+02  1.25000000000E+02  0.00000000000E+00  1.
       -6    2    1    2    0  501 -1.26436069937E+02  3.25726105061E+01  2.43528873204E+02  3.26382912989E+02  1.73702156206E+02  0.00000000000E+00  1.
       24    2    1    2    0    0 -2.40274340413E+02 -5.25208451856E+01  2.39465876460E+01  2.59703210874E+02  7.98881770879E+01  0.00000000000E+00  1.
       -5    1    4    4    0  501 -3.19535350973E+01 -4.71536224565E+01  1.16199658246E+02  1.29496778309E+02  4.75000000000E+00  0.00000000000E+00  1.
      -24    2    4    4    0    0 -9.44825348399E+01  7.97262329626E+01  1.27329214958E+02  1.96886134679E+02  8.52537356074E+01  0.00000000000E+00  1.
        1    1    7    7  704    0 -2.89175431073E+01 -1.09002688791E+01  5.31315180434E+00  3.13571322524E+01  2.35494926752E-06  0.00000000000E+00  1.
       -4    1    7    7    0  704 -6.55649917326E+01  9.06265018418E+01  1.22016063154E+02  1.65529002427E+02  1.90734863281E-06  0.00000000000E+00  1.
       -1    1    5    5    0  703 -2.01642494143E+02 -4.34950904988E+01 -1.13636778920E+01  2.06592960957E+02  1.32745846816E-06  0.00000000000E+00  1.
        2    1    5    5  703    0 -3.86318462704E+01 -9.02575468672E+00  3.53102655380E+01  5.31102499174E+01  1.65181236989E-06  0.00000000000E+00  1.
</event>
<event>
11 117   1.0000000E+00   7.4550000E+01   7.8125000E-03   1.3429423E-01
       -5   -1    0    0    0  502  0.00000000000E+00  0.00000000000E+00  2.68393422501E+02  2.68393422501E+02  0.00000000000E+00  0.00000000000E+00  1.
       21   -1    0    0  502  501  0.00000000000E+00  0.00000000000E+00 -5.13292109433E+02  5.13292109433E+02  0.00000000000E+00  0.00000000000E+00  1.
       25    1    1    2    0    0  6.18511766927E+00 -1.57247106879E+01 -8.56027562071E+01  1.52441313551E+02  1.25000000000E+02  0.00000000000E+00  1.
       -6    2    1    2    0  501 -1.48528667122E+02 -1.88725467783E+02 -2.01494515472E+02  3.63495185653E+02  1.83985442579E+02  0.00000000000E+00  1.
       24    2    1    2    0    0  1.42343549453E+02  2.04450178471E+02  4.21985847463E+01  2.65749032730E+02  8.23423724150E+01  0.00000000000E+00  1.
       -5    1    4    4    0  501 -1.44876399970E+02 -9.40245682234E+01 -1.49649468608E+02  2.28576719402E+02  4.75000000000E+00  0.00000000000E+00  1.
      -24    2    4    4    0    0 -3.65226715172E+00 -9.47008995597E+01 -5.18450468640E+01  1.34918466251E+02  8.08299710411E+01  0.00000000000E+00  1.
        1    1    7    7  704    0 -1.66699467113E+01 -1.02154945565E+02 -2.88296972443E+01  1.07446132876E+02  4.76837158203E-07  0.00000000000E+00  1.
       -2    1    7    7    0  704  1.30176795595E+01  7.45404600558E+00 -2.30153496197E+01  2.74723333754E+01  1.43051147461E-06  0.00000000000E+00  1.
       -3    1    5    5    0  703  2.77474647161E+01  6.72880399945E+00 -1.18522591182E+01  3.09139878960E+01  1.90734863281E-06  0.00000000000E+00  1.
        4    1    5    5  703    0  1.14596084737E+02  1.97721374472E+02  5.40508438645E+01  2.34835044834E+02  2.13248059988E-06  0.00000000000E+00  1.
</event>
<event>
11 117   1.0000000E+00   7.4550000E+01   7.8125000E-03   1.3429423E-01
       21   -1    0    0  501  502  0.00000000000E+00  0.00000000000E+00  4.50619442010E+01  4.50619442010E+01  0.00000000000E+00  0.00000000000E+00  1.
        5   -1    0    0  502    0  0.00000000000E+00  0.00000000000E+00 -2.09065882090E+03  2.09065882090E+03  0.00000000000E+00  0.00000000000E+00  1.
       25    1    1    2    0    0  9.51880143745E+00  1.01365086232E+02 -1.41693417155E+03  1.42607606207E+03  1.25000000000E+02  0.00000000000E+00  1.
        6    2    1    2  501    0  1.26335039693E+01 -1.44793243610E+02 -3.64795730371E+02  4.28875425089E+02  1.72434093295E+02  0.00000000000E+00  1.
      -24    2    1    2    0    0 -2.21523054068E+01  4.34281573774E+01 -2.63866974771E+02  2.80769277941E+02  8.26370230133E+01  0.00000000000E+00  1.
        5    1    4    4  501    0  4.23596935335E+01 -1.27388909803E+02 -2.64623662471E+02  2.96766782536E+02  4.74999999999E+00  0.00000000000E+00  1.
       24    2    4    4    0    0 -2.97261895642E+01 -1.74043338068E+01 -1.00172067900E+02  1.32108642553E+02  7.89410733940E+01  0.00000000000E+00  1.
      -13    1    7    7    0    0 -1.22979657339E+01 -4.45316219547E+01 -8.43946547104E+01  9.62121313704E+01  1.05660000004E-01  0.00000000000E+00  1.
       14    1    7    7    0    0 -1.74282238303E+01  2.71272881479E+01 -1.57774131896E+01  3.58965111827E+01  1.06624029994E-06  0.00000000000E+00  1.
        3    1    5    5  704    0 -3.51404381185E+01  1.27161076239E+00 -2.00500650048E+02  2.03560747824E+02  2.69739830470E-06  0.00000000000E+00  1.
       -4    1    5    5    0  704  1.29881327118E+01  4.21565466150E+01 -6.33663247230E+01  7.72085301165E+01  3.56832255056E-06  0.00000000000E+00  1.
</event>
<event>
11 117   1.0000000E+00   7.4550000E+01   7.8125000E-03   1.3429423E-01
       -5   -1    0    0    0  502  0.00000000000E+00  0.00000000000E+00  3.67783630951E+02  3.67783630951E+02  0.00000000000E+00  0.00000000000E+00  1.
       21   -1    0    0  502  501  0.00000000000E+00  0.00000000000E+00 -6.40765505480E+02  6.40765505480E+02  0.00000000000E+00  0.00000000000E+00  1.
       25    1    1    2    0    0 -1.10969982123E+01  1.83187964739E+01  1.18269387346E+02  1.73410984821E+02  1.25000000000E+02  0.00000000000E+00  1.
       -6    2    1    2    0  501 -6.83955877922E+00  7.14406678453E+01 -5.79566870396E+02  6.10562926531E+02  1.78153813899E+02  0.00000000000E+00  1.
       24    2    1    2    0    0  1.79365569915E+01 -8.97594643191E+01  1.88315608521E+02  2.24575225079E+02  8.11959469119E+01  0.00000000000E+00  1.
       -5    1    4    4    0  501  3.19516586748E+01  9.33505073100E+01 -3.03815884919E+02  3.19471250876E+02  4.75000000001E+00  0.00000000000E+00  1.
      -24    2    4    4    0    0 -3.87912174540E+01 -2.19098394648E+01 -2.75750985477E+02  2.91091675655E+02  8.19204371757E+01  0.00000000000E+00  1.
        1    1    7    7  704    0 -4.51529685564E+01  1.52724762119E+01 -9.31763998036E+01  1.04660788166E+02  2.33601545599E-06  0.00000000000E+00  1.
       -2    1    7    7    0  704  6.36175110244E+00 -3.71823156767E+01 -1.82574585674E+02  1.86430887490E+02  2.69739830470E-06  0.00000000000E+00  1.
       -3    1    5    5    0  703 -1.71298899551E+01 -8.43892867297E+01  1.21416052989E+02  1.48851747615E+02  2.69739830470E-06  0.00000000000E+00  1.
        4    1    5    5  703    0  3.50664469466E+01 -5.37017758945E+00  6.68995555323E+01  7.57234774638E+01  1.90734863281E-06  0.00000000000E+00  1.
</event>
<event>
11 117   1.0000000E+00   7.4550000E+01   7.8125000E-03   1.3429423E-01
       21   -1    0    0  502  501  0.00000000000E+00  0.00000000000E+00  1.12341613514E+03  1.12341613514E+03  0.00000000000E+00  0.00000000000E+00  1.
       -5   -1    0    0    0  502  0.00000000000E+00  0.00000000000E+00 -2.96052766533E+02  2.96052766533E+02  0.00000000000E+00  0.00000000000E+00  1.
       25    1    1    2    0    0 -1.00878974379E+02 -3.20542403611E+02  4.20239003982E+02  5.52403675270E+02  1.25000000000E+02  0.00000000000E+00  1.
       -6    2    1    2    0  501 -5.02876852740E+01  1.12132116156E+02  5.29029980583E+02  5.71080897483E+02  1.76516878374E+02  0.00000000000E+00  1.
       24    2    1    2    0    0  1.51166659653E+02  2.08410287455E+02 -1.21905615958E+02  2.95984328920E+02  8.03712439620E+01  0.00000000000E+00  1.
       -5    1    4    4    0  501 -8.31038001569E+01  1.95344909419E+01  2.33503584288E+02  2.48665084626E+02  4.75000000000E+00  0.00000000000E+00  1.
      -24    2    4    4    0    0  3.28161148829E+01  9.25976252137E+01  2.95526396295E+02  3.22415812857E+02  8.34559038166E+01  0.00000000000E+00  1.
        3    1    7    7  704    0  1.39503916428E+01  7.81150435609E+01  2.85985335248E+02  2.96789800085E+02  0.00000000000E+00  0.00000000000E+00  1.
       -4    1    7    7    0  704  1.88657232401E+01  1.44825816528E+01  9.54106104743E+00  2.56260127725E+01  4.84377137516E-06  0.00000000000E+00  1.
       -3    1    5    5    0  703  7.08026278573E+01  1.02667501183E+02 -1.03164099753E+02  1.61853203208E+02  1.90734863281E-06  0.00000000000E+00  1.
        4    1    5    5  703    0  8.03640317962E+01  1.05742786272E+02 -1.87415162048E+01  1.34131125712E+02  1.81574180266E-06  0.00000000000E+00  1.
</event>
<event>
11 117   1.0000000E+00   7.4550000E+01   7.8125000E-03   1.3429423E-01
       21   -1    0    0  502  501  0.00000000000E+00  0.00000000000E+00  3.03618524890E+02  3.03618524890E+02  0.00000000000E+00  0.00000000000E+00  1.
       -5   -1    0    0    0  502  0.00000000000E+00  0.00000000000E+00 -5.74611915154E+02  5.74611915154E+02  0.00000000000E+00  0.00000000000E+00  1.
       25    1    1    2    0    0  4.46967602375E+01  7.10074466361E+01 -4.19699298134E+02  4.45883795072E+02  1.25000000000E+02  0.00000000000E+00  1.
       -6    2    1    2    0  501 -4.04657030673E+01 -1.62101131105E+02  1.86949217290E+02  3.05306227648E+02  1.74205720241E+02  0.00000000000E+00  1.
       24    2    1    2    0    0 -4.23105717024E+00  9.10936844691E+01 -3.82433094200E+01  1.27040417324E+02  7.97543461111E+01  0.00000000000E+00  1.
       -5    1    4    4    0  501  3.88474752124E+01 -5.38567076090E+01  1.09899606633E+01  6.74760181119E+01  4.75000000000E+00  0.00000000000E+00  1.
      -24    2    4    4    0    0 -7.93131782797E+01 -1.08244423496E+02  1.75959256627E+02  2.37830209536E+02  8.71442086902E+01  0.00000000000E+00  1.
        1    1    7    7  704    0 -8.55100451417E+01 -4.53274285826E+01  1.05781934883E+02  1.43374897907E+02  3.30362473978E-06  0.00000000000E+00  1.
       -2    1    7    7    0  704  6.19686686196E+00 -6.29169949136E+01  7.01773217439E+01  9.44553116294E+01  1.34869915235E-06  0.00000000000E+00  1.
       -1    1    5    5    0  703 -2.28738038299E+01  7.07520323675E+01 -5.69873836964E+01  9.36836319019E+01  0.00000000000E+00  0.00000000000E+00  1.
        2    1    5    5  703    0  1.86427466596E+01  2.03416521016E+01  1.87440742764E+01  3.33567854224E+01  1.03924249257E-06  0.00000000000E+00  1.
</event>
<event>
11 117   1.0000000E+00   7.4550000E+01   7.8125000E-03   1.3429423E-01
       -5   -1    0    0    0  502  0.00000000000E+00  0.00000000000E+00  6.93940307286E+02  6.93940307286E+02  0.00000000000E+00  0.00000000000E+00  1.
       21   -1    0    0  502  501  0.00000000000E+00  0.00000000000E+00 -2.84888775100E+02  2.84888775100E+02  0.00000000000E+00  0.00000000000E+00  1.
       25    1    1    2    0    0 -1.17966164766E+02 -1.05544616123E+02 -9.59747210115E+01  2.23364789292E+02  1.25000000000E+02  0.00000000000E+00  1.
       -6    2    1    2    0  501  1.37764671779E+02 -9.13167935884E+01  3.93603648076E+01  2.43410041904E+02  1.74302462978E+02  0.00000000000E+00  1.
       24    2    1    2    0    0 -1.97985070132E+01  1.96861409711E+02  4.65665888390E+02  5.12054251190E+02  7.87936611575E+01  0.00000000000E+00  1.
       -5    1    4    4    0  501 -2.85731229738E+01 -2.92135157421E+01 -9.77033373217E+00  4.22832683189E+01  4.75000000000E+00  0.00000000000E+00  1.
      -24    2    4    4    0    0  1.66337794753E+02 -6.21032778462E+01  4.91306985398E+01  2.01126773585E+02  8.07036209309E+01  0.00000000000E+00  1.
        3    1    7    7  704    0  1.36240423178E+01  1.15750152816E+01  2.36779282048E+01  2.96688353650E+01  2.07848498513E-06  0.00000000000E+00  1.
       -4    1    7    7    0  704  1.52713752435E+02 -7.36782931279E+01  2.54527703350E+01  1.71457938220E+02  2.54561382581E-06  0.00000000000E+00  1.
       -3    1    5    5    0  703 -3.76858643538E+01  1.89749791635E+02  4.15759441860E+02  4.58564195390E+02  9.34406182397E-06  0.00000000000E+00  1.
        2    1    5    5  703    0  1.78873573406E+01  7.11161807571E+00  4.99064465302E+01  5.34900558006E+01  6.70969356512E-06  0.00000000000E+00  1.
</event>
<event>
11 117   1.0000000E+00   7.4550000E+01   7.8125000E-03   1.3429423E-01
       21   -1    0    0  502  501  0.00000000000E+00  0.00000000000E+00  1.10471232366E+03  1.10471232366E+03  0.00000000000E+00  0.00000000000E+00  1.
       -5   -1    0    0    0  502  0.00000000000E+00  0.00000000000E+00 -1.00387950610E+03  1.00387950610E+03  0.00000000000E+00  0.00000000000E+00  1.
       25    1    1    2    0    0 -2.21799248197E+02 -1.08065013652E+02  1.37057898681E+02  3.08679155868E+02  1.25000000000E+02  0.00000000000E+00  1.
       -6    2    1    2    0  501  4.89686434577E+01 -1.45879608844E+01  8.58384324525E+02  8.77019289692E+02  1.72419399306E+02  0.00000000000E+00  1.
       24    2    1    2    0    0  1.72830604739E+02  1.22652974537E+02 -8.94609405649E+02  9.22893384194E+02  8.05731953913E+01  0.00000000000E+00  1.
       -5    1    4    4    0  501  4.84257362920E+01  2.18632128693E+01  9.80924474533E+01  1.11659046923E+02  4.75000000000E+00  0.00000000000E+00  1.
      -24    2    4    4    0    0  5.42907165637E-01 -3.64511737537E+01  7.60291877072E+02  7.65360242769E+02  8.00223722094E+01  0.00000000000E+00  1.
        3    1    7    7  704    0  3.97670143556E+01 -1.17956840214E+01  3.79650606472E+02  3.81909854006E+02  5.39479660939E-06  0.00000000000E+00  1.
       -4    1    7    7    0  704 -3.92241071899E+01 -2.46554897323E+01  3.80641270600E+02  3.83450388763E+02  0.00000000000E+00  0.00000000000E+00  1.
       -3    1    5    5    0  703  1.18022992154E+02  7.89958420190E+01 -7.34777569105E+02  7.48376807359E+02  0.00000000000E+00  0.00000000000E+00  1.
        2    1    5    5  703    0  5.48076125858E+01  4.36571325179E+01 -1.59831836544E+02  1.74516576835E+02  6.60724947956E-06  0.00000000000E+00  1.
</event>
<event>
11 117   1.0000000E+00   7.4550000E+01   7.8125000E-03   1.3429423E-01
       21   -1    0    0  501  502  0.00000000000E+00  0.00000000000E+00  3.18881190390E+01  3.18881190390E+01  0.00000000000E+00  0.00000000000E+00  1.
        5   -1    0    0  502    0  0.00000000000E+00  0.00000000000E+00 -2.18870301371E+03  2.18870301371E+03  0.00000000000E+00  0.00000000000E+00  1.
       25    1    1    2    0    0 -7.35821162781E+01 -1.53995652594E+02 -9.53129939209E+02  9.76325084114E+02  1.25000000000E+02  0.00000000000E+00  1.
        6    2    1    2  501    0  4.28889308117E+01  5.70421015232E+01 -6.71537145198E+02  6.96612523639E+02  1.70919890529E+02  0.00000000000E+00  1.
      -24    2    1    2    0    0  3.06931854664E+01  9.69535510709E+01 -5.32147810266E+02  5.47653524997E+02  8.00064295644E+01  0.00000000000E+00  1.
        5    1    4    4  501    0 -1.09665364268E+01  5.47887581293E+00  2.73376233977E+00  1.34282894631E+01  4.74999999998E+00  0.00000000000E+00  1.
       24    2    4    4    0    0  5.38554672384E+01  5.15632257102E+01 -6.74270907537E+02  6.83184234176E+02  8.08718954796E+01  0.00000000000E+00  1.
       -3    1    7    7    0  703  1.31845467934E+01 -1.47204778094E+01 -3.13728992064E+02  3.14350767778E+02  0.00000000000E+00  0.00000000000E+00  1.
        4    1    7    7  703    0  4.06709204451E+01  6.62837035196E+01 -3.60541915474E+02  3.68833466399E+02  5.39479660939E-06  0.00000000000E+00  1.
        3    1    5    5  704    0 -2.13259674453E+01  4.30845843419E+01 -1.30250478147E+02  1.38838990751E+02  6.03156597170E-06  0.00000000000E+00  1.
       -4    1    5    5    0  704  5.20191529118E+01  5.38689667290E+01 -4.01897332119E+02  4.08814534246E+02  5.39479660939E-06  0.00000000000E+00  1.
</event>
<event>
11 117   1.0000000E+00   7.4550000E+01   7.8125000E-03   1.3429423E-01
       21   -1    0    0  502  501  0.00000000000E+00  0.00000000000E+00  1.98212012347E+02  1.98212012347E+02  0.00000000000E+00  0.00000000000E+00  1.
       -5   -1    0    0    0  502  0.00000000000E+00  0.00000000000E+00 -6.36124727547E+02  6.36124727547E+02  0.00000000000E+00  0.00000000000E+00  1.
       25    1    1    2    0    0 -7.31082727230E+01 -2.30053640966E+01 -4.73764507639E+02  4.95935353666E+02  1.25000000000E+02  0.00000000000E+00  1.
       -6    2    1    2    0  501  1.26121169312E+02 -3.79693938098E+01  3.50748352858E+01  2.23640316144E+02  1.77303476333E+02  0.00000000000E+00  1.
       24    2    1    2    0    0 -5.30128965886E+01  6.09747579063E+01  7.76957152790E-01  1.14761070084E+02  8.14936269783E+01  0.00000000000E+00  1.
       -5    1    4    4    0  501  7.86407025410E+01 -9.72056306434E+00 -5.06479697967E+01  9.41627781395E+01  4.75000000000E+00  0.00000000000E+00  1.
      -24    2    4    4    0    0  4.74804667706E+01 -2.82488307454E+01  8.57228050825E+01  1.29477538004E+02  7.97724411888E+01  0.00000000000E+00  1.
        1    1    7    7  704    0 -1.09635771210E+01 -3.62383754510E+01  2.96152293484E+01  4.80674701641E+01  8.25906184945E-07  0.00000000000E+00  1.
       -2    1    7    7    0  704  5.84440438915E+01  7.98954470560E+00  5.61075757341E+01  8.14100678402E+01  9.53674316406E-07  0.00000000000E+00  1.
      -15    1    5    5    0    0  7.80594046056E+00  5.09790390438E+01 -8.91720705648E+00  5.23685853183E+01  1.77680000000E+00  0.00000000000E+00  1.
       16    1    5    5    0    0 -6.08188370492E+01  9.99571886247E+00  9.69416420927E+00  6.23924847662E+01  1.79210858087E-06  0.00000000000E+00  1.
</event>
<event>
11 117   1.0000000E+00   7.4550000E+01   7.8125000E-03   1.3429423E-01
       21   -1    0    0  501  502  0.00000000000E+00  0.00000000000E+00  4.97230691006E+02  4.97230691006E+02  0.00000000000E+00  0.00000000000E+00  1.
        5   -1    0    0  502    0  0.00000000000E+00  0.00000000000E+00 -3.04900286953E+02  3.04900286953E+02  0.00000000000E+00  0.00000000000E+00  1.
       25    1    1    2    0    0  1.26563862773E+02 -3.08511369315E+01  2.56003522202E+02  3.13261883078E+02  1.25000000000E+02  0.00000000000E+00  1.
        6    2    1    2  501    0  5.25352973168E+01  9.77031251519E+01  9.42275743601E+01  2.27119335220E+02  1.74351651935E+02  0.00000000000E+00  1.
      -24    2    1    2    0    0 -1.79099160090E+02 -6.68519882205E+01 -1.57900692509E+02  2.61749759660E+02  8.38725849924E+01  0.00000000000E+00  1.
        5    1    4    4  501    0 -1.69963170390E+01  9.33464769337E+01  1.54669319682E+01  9.62508599096E+01  4.75000000000E+00  0.00000000000E+00  1.
       24    2    4    4    0    0  6.95316143558E+01  4.35664821825E+00  7.87606423919E+01  1.30868475310E+02  7.79082361592E+01  0.00000000000E+00  1.
      -13    1    7    7    0    0  3.79557667123E+01 -3.59272445687E+01  4.91103380778E+01  7.17164109473E+01  1.05660000008E-01  0.00000000000E+00  1.
       14    1    7    7    0    0  3.15758476435E+01  4.02838927870E+01  2.96503043141E+01  5.91520643630E+01  1.26159253648E-06  0.00000000000E+00  1.
        3    1    5    5  704    0 -4.29260987296E+01 -2.46858866858E+01 -9.24801723278E+01  1.04902932406E+02  2.33601545599E-06  0.00000000000E+00  1.
       -4    1    5    5    0  704 -1.36173061360E+02 -4.21661015347E+01 -6.54205201815E+01  1.56846827254E+02  3.43852164790E-06  0.00000000000E+00  1.
</event>
<event>
11 117   1.0000000E+00   7.4550000E+01   7.8125000E-03   1.3429423E-01
       21   -1    0    0  502  501  0.00000000000E+00  0.00000000000E+00  1.48209668926E+02  1.48209668926E+02  0.00000000000E+00  0.00000000000E+00  1.
       -5   -1    0    0    0  502  0.00000000000E+00  0.00000000000E+00 -9.65043704198E+02  9.65043704198E+02  0.00000000000E+00  0.00000000000E+00  1.
       25    1    1    2    0    0 -1.11620846563E+02  6.12667917818E+01 -3.11953397628E+02  3.59378290183E+02  1.25000000000E+02  0.00000000000E+00  1.
       -6    2    1    2    0  501  2.40494665895E+02 -6.52037845239E+01 -9.20710871269E+01  3.13935393158E+02  1.67299516295E+02  0.00000000000E+00  1.
       24    2    1    2    0    0 -1.28873819332E+02  3.93699274210E+00 -4.12809550517E+02  4.39939689783E+02  8.06922823310E+01  0.00000000000E+00  1.
       -5    1    4    4    0  501  4.06965920604E+01  2.20970183527E+01  2.61287206586E+01  5.33831749586E+01  4.75000000000E+00  0.00000000000E+00  1.
      -24    2    4    4    0    0  1.99798073834E+02 -8.73008028765E+01 -1.18199807785E+02  2.60552218199E+02  7.98471249164E+01  0.00000000000E+00  1.
        3    1    7    7  704    0  9.52133600184E+01 -3.64328146573E+01 -1.00061721041E+02  1.42847057819E+02  1.34869915235E-06  0.00000000000E+00  1.
       -4    1    7    7    0  704  1.04584713816E+02 -5.08679882193E+01 -1.81380867441E+01  1.17705160380E+02  2.34815068288E-06  0.00000000000E+00  1.
      -15    1    5    5    0    0 -8.71466479509E+01 -2.02239664685E+01 -3.47032142313E+02  3.58382493832E+02  1.77680000000E+00  0.00000000000E+00  1.
       16    1    5    5    0    0 -4.17271713808E+01  2.41609592106E+01 -6.57774082043E+01  8.15571959516E+01  3.16297987972E-06  0.00000000000E+00  1.
</event>
<event>
11 117   1.0000000E+00   7.4550000E+01   7.8125000E-03   1.3429423E-01
        5   -1    0    0  502    0  0.00000000000E+00  0.00000000000E+00  3.49974212170E+02  3.49974212170E+02  0.00000000000E+00  0.00000000000E+00  1.
       21   -1    0    0  501  502  0.00000000000E+00  0.00000000000E+00 -3.29672577315E+02  3.29672577315E+02  0.00000000000E+00  0.00000000000E+00  1.
       25    1    1    2    0    0  1.94497121482E+00 -2.28101422887E+00 -1.44365364921E+02  1.90985194525E+02  1.25000000000E+02  0.00000000000E+00  1.
        6    2    1    2  501    0  1.91511891614E+00 -1.53575105815E+02 -2.94712644568E+01  2.26235537112E+02  1.63477772242E+02  0.00000000000E+00  1.
      -24    2    1    2    0    0 -3.86009013096E+00  1.55856120044E+02  1.94138264233E+02  2.62426057848E+02  8.28959573622E+01  0.00000000000E+00  1.
        5    1    4    4  501    0 -3.84338921704E+01 -2.99111548544E+00 -2.84167444800E+01  4.81267566542E+01  4.75000000000E+00  0.00000000000E+00  1.
       24    2    4    4    0    0  4.03490110865E+01 -1.50583990330E+02 -1.05451997683E+00  1.78108780458E+02  8.61280722216E+01  0.00000000000E+00  1.
       -1    1    7    7    0  703 -3.13366817709E+00 -8.47762698900E+01  3.45112054224E+01  9.15852559772E+01  6.74349576174E-07  0.00000000000E+00  1.
        2    1    7    7  703    0  4.34826792636E+01 -6.58077204398E+01 -3.55657253993E+01  8.65235244810E+01  8.25906184945E-07  0.00000000000E+00  1.
        3    1    5    5  704    0  1.82635982646E+00  3.29739107999E+01  1.06190207766E+02  1.11206900006E+02  1.90734863281E-06  0.00000000000E+00  1.
       -4    1    5    5    0  704 -5.68644995742E+00  1.22882209244E+02  8.79480564669E+01  1.51219157841E+02  0.00000000000E+00  0.00000000000E+00  1.
</event>
<event>
11 117   1.0000000E+00   7.4550000E+01   7.8125000E-03   1.3429423E-01
       21   -1    0    0  502  501  0.00000000000E+00  0.00000000000E+00  5.99712068193E+01  5.99712068193E+01  0.00000000000E+00  0.00000000000E+00  1.
       -5   -1    0    0    0  502  0.00000000000E+00  0.00000000000E+00 -1.22434690305E+03  1.22434690305E+03  0.00000000000E+00  0.00000000000E+00  1.
       25    1    1    2    0    0 -8.26596277224E+01 -6.85410013330E+01 -4.47884478452E+02  4.77237874605E+02  1.25000000000E+02  0.00000000000E+00  1.
       -6    2    1    2    0  501 -1.49980480979E+01  1.02890030392E+02 -2.43683909055E+02  3.16339388699E+02  1.72850980643E+02  0.00000000000E+00  1.
       24    2    1    2    0    0  9.76576758203E+01 -3.43490290589E+01 -4.72807308721E+02  4.90740846564E+02  8.10120352890E+01  0.00000000000E+00  1.
       -5    1    4    4    0  501 -2.28734030484E+01  6.78615406732E+01 -1.83998493547E+01  7.40911480937E+01  4.75000000000E+00  0.00000000000E+00  1.
      -24    2    4    4    0    0  7.87535495051E+00  3.50284897186E+01 -2.25284059700E+02  2.42248240605E+02  8.15002221695E+01  0.00000000000E+00  1.
        1    1    7    7  704    0 -1.63959755299E+01 -2.15969605672E+01 -5.95126066735E+01  6.53988308182E+01  1.16800772800E-06  0.00000000000E+00  1.
       -2    1    7    7    0  704  2.42713304804E+01  5.66254502858E+01 -1.65771453027E+02  1.76849409787E+02  2.69739830470E-06  0.00000000000E+00  1.
      -11    1    5    5    0    0  1.08327133467E+02 -4.03314400886E+01 -3.81775239599E+02  3.98890619689E+02  5.11027074320E-04  0.00000000000E+00  1.
       12    1    5    5    0    0 -1.06694576466E+01  5.98241102974E+00 -9.10320691227E+01  9.18502268748E+01  5.87884331033E-06  0.00000000000E+00  1.
</event>
<event>
11 117   1.0000000E+00   7.4550000E+01   7.8125000E-03   1.3429423E-01
        5   -1    0    0  502    0  0.00000000000E+00  0.00000000000E+00  3.78347523132E+02  3.78347523132E+02  0.00000000000E+00  0.00000000000E+00  1.
       21   -1    0    0  501  502  0.00000000000E+00  0.00000000000E+00 -1.22159483113E+03  1.22159483113E+03  0.00000000000E+00  0.00000000000E+00  1.
       25    1    1    2    0    0  1.62158849990E+02 -2.90266353243E+02 -3.39930095628E+01  3.56834097521E+02  1.25000000000E+02  0.00000000000E+00  1.
        6    2    1    2  501    0  4.57103728538E+01  4.60974917596E+01 -8.85032888526E+02  9.04142520381E+02  1.73135976783E+02  0.00000000000E+00  1.
      -24    2    1    2    0    0 -2.07869222844E+02  2.44168861483E+02  7.57785900878E+01  3.38965736361E+02  7.95445094740E+01  0.00000000000E+00  1.
        5    1    4    4  501    0  4.70194044200E+01  5.86216636222E+01 -6.72034998068E+02  6.76240286412E+02  4.75000000001E+00  0.00000000000E+00  1.
       24    2    4    4    0    0 -1.30903156625E+00 -1.25241718626E+01 -2.12997890458E+02  2.27902233970E+02  8.00797007021E+01  0.00000000000E+00  1.
      -13    1    7    7    0    0  3.45898829573E+01  1.29749338178E+01 -9.19399704336E+01  9.90847023407E+01  1.05660000021E-01  0.00000000000E+00  1.
       14    1    7    7    0    0 -3.58989145235E+01 -2.54991056805E+01 -1.21057920024E+02  1.28817531629E+02  0.00000000000E+00  0.00000000000E+00  1.
        1    1    5    5  704    0 -2.31345477548E+01  7.12199160619E+01  2.72825272971E-01  7.48836309036E+01  3.14536961709E-06  0.00000000000E+00  1.
       -2    1    5    5    0  704 -1.84734675089E+02  1.72948945421E+02  7.55057648148E+01  2.64082105457E+02  4.37028474327E-06  0.00000000000E+00  1.
</event>
<event>
11 117   1.0000000E+00   7.4550000E+01   7.8125000E-03   1.3429423E-01
        5   -1    0    0  502    0  0.00000000000E+00  0.00000000000E+00  2.53855497220E+02  2.53855497220E+02  0.00000000000E+00  0.00000000000E+00  1.
       21   -1    0    0  501  502  0.00000000000E+00  0.00000000000E+00 -1.15772978124E+03  1.15772978124E+03  0.00000000000E+00  0.00000000000E+00  1.
       25    1    1    2    0    0  6.13624072029E+00 -5.04024584708E+01  1.76918778510E+02  2.22493405429E+02  1.25000000000E+02  0.00000000000E+00  1.
        6    2    1    2  501    0 -1.43782017444E+02  1.76190161021E+02 -7.36630979518E+02  7.90182813517E+02  1.73341966675E+02  0.00000000000E+00  1.
      -24    2    1    2    0    0  1.37645776724E+02 -1.25787702550E+02 -3.44162083010E+02  3.98909059513E+02  7.68894818354E+01  0.00000000000E+00  1.
        5    1    4    4  501    0 -6.59829088664E+01 -1.04617044749E+01 -1.81916449346E+02  1.93853936162E+02  4.75000000000E+00  0.00000000000E+00  1.
       24    2    4    4    0    0 -7.77991085778E+01  1.86651865496E+02 -5.54714530172E+02  5.96328877355E+02  8.37155887171E+01  0.00000000000E+00  1.
      -13    1    7    7    0    0 -9.53200412131E+01  1.59861851773E+02 -4.54771716692E+02  4.91384826156E+02  1.05660000365E-01  0.00000000000E+00  1.
       14    1    7    7    0    0  1.75209326352E+01  2.67900137229E+01 -9.99428134799E+01  1.04944051199E+02  6.18051595536E-06  0.00000000000E+00  1.
        3    1    5    5  704    0  5.13559859195E+01 -3.13454224420E+00 -7.90161586364E+01  9.42911234979E+01  3.69356474515E-06  0.00000000000E+00  1.
       -4    1    5    5    0  704  8.62897908045E+01 -1.22653160306E+02 -2.65145924373E+02  3.04617936015E+02  6.60724947956E-06  0.00000000000E+00  1.
</event>
<event>
11 117   1.0000000E+00   7.4550000E+01   7.8125000E-03   1.3429423E-01
       21   -1    0    0  502  501  0.00000000000E+00  0.00000000000E+00  9.34494848178E+02  9.34494848178E+02  0.00000000000E+00  0.00000000000E+00  1.
       -5   -1    0    0    0  502  0.00000000000E+00  0.00000000000E+00 -2.20656721635E+02  2.20656721635E+02  0.00000000000E+00  0.00000000000E+00  1.
       25    1    1    2    0    0 -5.54130940006E+00  3.37009873606E+02  3.58965903692E+02  5.08023504408E+02  1.25000000000E+02  0.00000000000E+00  1.
       -6    2    1    2    0  501  1.38845993812E+02 -1.76949587775E+02  3.06213070625E+02  4.17949718404E+02  1.74144066455E+02  0.00000000000E+00  1.
       24    2    1    2    0    0 -1.33304684412E+02 -1.60060285831E+02  4.86591522263E+01  2.29178347000E+02  8.22530707745E+01  0.00000000000E+00  1.
       -5    1    4    4    0  501  1.20985238588E+02 -8.78585802595E+01  2.33223882649E+02  2.77078508765E+02  4.75000000000E+00  0.00000000000E+00  1.
      -24    2    4    4    0    0  1.78607552240E+01 -8.90910075154E+01  7.29891879752E+01  1.40871209639E+02  7.91268724688E+01  0.00000000000E+00  1.
        3    1    7    7  704    0 -7.69231952154E+00 -6.77041008184E+01  8.17428336353E+01  1.06418550535E+02  2.33601545599E-06  0.00000000000E+00  1.
       -4    1    7    7    0  704  2.55530747456E+01 -2.13869066970E+01 -8.75364566006E+00  3.44526591044E+01  1.85446133448E-06  0.00000000000E+00  1.
       -1    1    5    5    0  703 -1.32122444946E+02 -1.56778397464E+02  2.64831819435E+01  2.06729691375E+02  4.48581879669E-06  0.00000000000E+00  1.
        2    1    5    5  703    0 -1.18223946555E+00 -3.28188836700E+00  2.21759702828E+01  2.24486556255E+01  4.22478798548E-06  0.00000000000E+00  1.
</event>
<event>
11 117   1.0000000E+00   7.4550000E+01   7.8125000E-03   1.3429423E-01
       21   -1    0    0  501  502  0.00000000000E+00  0.00000000000E+00  3.93309819285E+02  3.93309819285E+02  0.00000000000E+00  0.00000000000E+00  1.
        5   -1    0    0  502    0  0.00000000000E+00  0.00000000000E+00 -4.79053710431E+02  4.79053710431E+02  0.00000000000E+00  0.00000000000E+00  1.
       25    1    1    2    0    0  1.22743983893E+02  2.62353213834E+02 -2.87121444092E+02  4.26566545862E+02  1.25000000000E+02  0.00000000000E+00  1.
        6    2    1    2  501    0 -5.60765270756E+01 -1.72925487678E+02  8.38563021370E+01  2.64956757783E+02  1.73558067831E+02  0.00000000000E+00  1.
      -24    2    1    2    0    0 -6.66674568176E+01 -8.94277261562E+01  1.17521250810E+02  1.80840226071E+02  8.03123587599E+01  0.00000000000E+00  1.
        5    1    4    4  501    0  1.65375741041E+01 -1.35965716841E+02  4.17742483659E+01  1.43275321810E+02  4.75000000000E+00  0.00000000000E+00  1.
       24    2    4    4    0    0 -7.26141011797E+01 -3.69597708369E+01  4.20820537711E+01  1.21681435972E+02  7.99789988701E+01  0.00000000000E+00  1.
       -1    1    7    7    0  703  1.73430383546E+01 -2.82716626967E+00  1.02208762886E+01  2.03283093393E+01  2.46622095890E-06  0.00000000000E+00  1.
        2    1    7    7  703    0 -8.99571395343E+01 -3.41326045673E+01  3.18611774825E+01  1.01353126633E+02  2.56784668309E-06  0.00000000000E+00  1.
       13    1    5    5    0    0 -3.89071557393E+01  1.14627892825E+00  1.62866138296E+01  4.21941426879E+01  1.05659999987E-01  0.00000000000E+00  1.
      -14    1    5    5    0    0 -2.77603010784E+01 -9.05740050844E+01  1.01234636980E+02  1.38646083383E+02  1.90734863281E-06  0.00000000000E+00  1.
</event>
<event>
11 117   1.0000000E+00   7.4550000E+01   7.8125000E-03   1.3429423E-01
       21   -1    0    0  501  502  0.00000000000E+00  0.00000000000E+00  4.50172566007E+02  4.50172566007E+02  0.00000000000E+00  0.00000000000E+00  1.
        5   -1    0    0  502    0  0.00000000000E+00  0.00000000000E+00 -2.34084390502E+02  2.34084390502E+02  0.00000000000E+00  0.00000000000E+00  1.
       25    1    1    2    0    0 -7.03600232566E+01 -1.20930761993E+02  7.27801384501E+01  2.01237994975E+02  1.25000000000E+02  0.00000000000E+00  1.
        6    2    1    2  501    0  4.81785679000E+01  2.11733783031E+02  2.04861746583E+02  3.45631059482E+02  1.74184169155E+02  0.00000000000E+00  1.
      -24    2    1    2    0    0  2.21814553566E+01 -9.08030210376E+01 -6.15537095288E+01  1.37387902052E+02  7.96829397183E+01  0.00000000000E+00  1.
        5    1    4    4  501    0  5.80167837877E+01  1.00952251263E+02  2.55520940729E+01  1.19301199691E+02  4.75000000000E+00  0.00000000000E+00  1.
       24    2    4    4    0    0 -9.83821588775E+00  1.10781531768E+02  1.79309652510E+02  2.26329859791E+02  8.18774430298E+01  0.00000000000E+00  1.
       -1    1    7    7    0  703  3.36559144550E+00  4.85480084595E+01  1.47262831147E+02  1.55095382809E+02  1.90734863281E-06  0.00000000000E+00  1.
        2    1    7    7  703    0 -1.32038073333E+01  6.22335233084E+01  3.20468213629E+01  7.12344769822E+01  1.50789149292E-06  0.00000000000E+00  1.
        3    1    5    5  704    0  1.60418207751E+01 -6.93872947946E+01 -8.09716595186E+01  1.07834810418E+02  3.16297987972E-06  0.00000000000E+00  1.
       -4    1    5    5    0  704  6.13963458157E+00 -2.14157262431E+01  1.94179499898E+01  2.95530916338E+01  2.40790961703E-06  0.00000000000E+00  1.
</event>
<event>
11 117   1.0000000E+00   7.4550000E+01   7.8125000E-03   1.3429423E-01
       21   -1    0    0  501  502  0.00000000000E+00  0.00000000000E+00  5.61090705858E+02  5.61090705858E+02  0.00000000000E+00  0.00000000000E+00  1.
        5   -1    0    0  502    0  0.00000000000E+00  0.00000000000E+00 -2.63714605297E+02  2.63714605297E+02  0.00000000000E+00  0.00000000000E+00  1.
       25    1    1    2    0    0 -2.68120790047E+02 -4.90019609032E+01  7.23521879758E+01  3.08463594825E+02  1.25000000000E+02  0.00000000000E+00  1.
        6    2    1    2  501    0  2.17453082268E+02  1.49533631591E+02  1.05243643994E+02  3.32937835278E+02  1.73566205218E+02  0.00000000000E+00  1.
      -24    2    1    2    0    0  5.06677077795E+01 -1.00531670688E+02  1.19780268591E+02  1.83403881052E+02  8.13377982136E+01  0.00000000000E+00  1.
        5    1    4    4  501    0  1.82117300088E+02  7.06786440107E+01  5.54870467095E+01  2.03134331326E+02  4.75000000000E+00  0.00000000000E+00  1.
       24    2    4    4    0    0  3.53357821791E+01  7.88549875800E+01  4.97565972849E+01  1.29803503952E+02  8.31053794668E+01  0.00000000000E+00  1.
       -3    1    7    7    0  703  3.59025131052E+01  2.83985612510E+01  6.27738728387E+01  7.76918775649E+01  1.34869915235E-06  0.00000000000E+00  1.
        4    1    7    7  703    0 -5.66730926154E-01  5.04564263290E+01 -1.30172755538E+01  5.21116263868E+01  6.74349576174E-07  0.00000000000E+00  1.
        1    1    5    5  704    0  6.11260883941E+01 -3.57145282762E+01  7.91583665435E+01  1.06197802266E+02  1.34869915235E-06  0.00000000000E+00  1.
       -2    1    5    5    0  704 -1.04583806146E+01 -6.48171424114E+01  4.06219020472E+01  7.72060787853E+01  1.96604996949E-06  0.00000000000E+00  1.
</event>
<event>
11 117   1.0000000E+00   7.4550000E+01   7.8125000E-03   1.3429423E-01
        5   -1    0    0  502    0  0.00000000000E+00  0.00000000000E+00  4.76457129503E+02  4.76457129503E+02  0.00000000000E+00  0.00000000000E+00  1.
       21   -1    0    0  501  502  0.00000000000E+00  0.00000000000E+00 -3.99514611396E+02  3.99514611396E+02  0.00000000000E+00  0.00000000000E+00  1.
       25    1    1    2    0    0 -2.50133268908E+01 -2.16108320646E+02  2.25442734604E+02  3.37309797309E+02  1.25000000000E+02  0.00000000000E+00  1.
        6    2    1    2  501    0 -1.34751437925E+02  2.17584029376E+00 -1.39404331352E+02  2.59082172452E+02  1.71835154084E+02  0.00000000000E+00  1.
      -24    2    1    2    0    0  1.59764764816E+02  2.13932480353E+02 -9.09588514536E+00  2.79579771139E+02  8.24028341556E+01  0.00000000000E+00  1.
        5    1    4    4  501    0 -1.02264293180E+02  1.32296074331E+01 -1.06315395358E+01  1.03771866637E+02  4.75000000000E+00  0.00000000000E+00  1.
       24    2    4    4    0    0 -3.24871447456E+01 -1.10537671394E+01 -1.28772791816E+02  1.55310305815E+02  7.97575002035E+01  0.00000000000E+00  1.
      -15    1    7    7    0    0 -1.64050673805E+01 -2.61127426010E+01 -7.14747492100E+00  3.17055985259E+01  1.77680000000E+00  0.00000000000E+00  1.
       16    1    7    7    0    0 -1.60820773651E+01  1.50589754616E+01 -1.21625316895E+02  1.23604707289E+02  1.34869915235E-06  0.00000000000E+00  1.
        3    1    5    5  704    0  1.33374250471E+02  1.41183530380E+02 -3.62346874062E+01  1.97571335245E+02  3.23406695515E-06  0.00000000000E+00  1.
       -4    1    5    5    0  704  2.63905143452E+01  7.27489499728E+01  2.71388022608E+01  8.20084358935E+01  1.68587394044E-06  0.00000000000E+00  1.
</event>
<event>
11 117   1.0000000E+00   7.4550000E+01   7.8125000E-03   1.3429423E-01
       21   -1    0    0  501  502  0.00000000000E+00  0.00000000000E+00  7.19540488668E+02  7.19540488668E+02  0.00000000000E+00  0.00000000000E+00  1.
        5   -1    0    0  502    0  0.00000000000E+00  0.00000000000E+00 -7.31187782550E+02  7.31187782550E+02  0.00000000000E+00  0.00000000000E+00  1.
       25    1    1    2    0    0 -1.46291908295E+01  5.80687334139E+01  2.71953933989E+02  3.05237502998E+02  1.25000000000E+02  0.00000000000E+00  1.
        6    2    1    2  501    0  1.52274972949E+02 -6.56038928249E+01  3.87566639145E+02  4.55582872984E+02  1.72789803628E+02  0.00000000000E+00  1.
      -24    2    1    2    0    0 -1.37645782120E+02  7.53515941095E+00 -6.71167867016E+02  6.89907895236E+02  8.06440216706E+01  0.00000000000E+00  1.
        5    1    4    4  501    0 -8.91058440923E+00 -4.65850107520E+01  1.38274820325E+02  1.46260213924E+02  4.75000000000E+00  0.00000000000E+00  1.
       24    2    4    4    0    0  1.61185557358E+02 -1.90188820728E+01  2.49291818820E+02  3.09322659060E+02  8.48032705795E+01  0.00000000000E+00  1.
       -3    1    7    7    0  703  1.14275198095E+01 -1.98652700832E+01  6.09712632138E+00  2.37148079025E+01  5.28300280718E-06  0.00000000000E+00  1.
        4    1    7    7  703    0  1.49758037549E+02  8.46388010374E-01  2.43194692499E+02  2.85607851157E+02  3.81469726562E-06  0.00000000000E+00  1.
       11    1    5    5    0    0 -6.39835364800E+01  1.41435832204E+01 -1.52343563250E+02  1.65838762509E+02  5.10995038018E-04  0.00000000000E+00  1.
      -12    1    5    5    0    0 -7.36622456396E+01 -6.60842380950E+00 -5.18824303767E+02  5.24069132727E+02  1.07895932188E-05  0.00000000000E+00  1.
</event>
<event>
11 117   1.0000000E+00   7.4550000E+01   7.8125000E-03   1.3429423E-01
       21   -1    0    0  502  501  0.00000000000E+00  0.00000000000E+00  1.79440041390E+02  1.79440041390E+02  0.00000000000E+00  0.00000000000E+00  1.
       -5   -1    0    0    0  502  0.00000000000E+00  0.00000000000E+00 -9.41376104759E+02  9.41376104759E+02  0.00000000000E+00  0.00000000000E+00  1.
       25    1    1    2    0    0 -1.16965697376E+02  1.24961340733E+02 -6.47867583318E+02  6.81655130219E+02  1.25000000000E+02  0.00000000000E+00  1.
       -6    2    1    2    0  501  1.21700747149E+02 -1.46988557928E+02  3.86053199444E+01  2.60925233602E+02  1.73709236323E+02  0.00000000000E+00  1.
       24    2    1    2    0    0 -4.73504977336E+00  2.20272171943E+01 -1.52673799996E+02  1.78235782328E+02  8.91688617360E+01  0.00000000000E+00  1.
       -5    1    4    4    0  501 -1.71426175031E+01 -8.55052136852E+01  1.80743744761E+01  8.91866380963E+01  4.75000000000E+00  0.00000000000E+00  1.
      -24    2    4    4    0    0  1.38843364652E+02 -6.14833442425E+01  2.05309454683E+01  1.71738595506E+02  7.75560696355E+01  0.00000000000E+00  1.
       11    1    7    7    0    0  2.55764986995E+01 -2.11376219021E+01 -2.66673234504E+01  4.25687970898E+01  5.11001044978E-04  0.00000000000E+00  1.
      -12    1    7    7    0    0  1.13266865953E+02 -4.03457223404E+01  4.71982689187E+01  1.29169798416E+02  2.33601545599E-06  0.00000000000E+00  1.
       -3    1    5    5    0  703 -1.04314610438E+01  5.23436758455E+01 -1.28176141200E+02  1.38844513587E+02  2.69739830470E-06  0.00000000000E+00  1.
        4    1    5    5  703    0  5.69641127044E+00 -3.03164586512E+01 -2.44976587965E+01  3.93912687409E+01  1.43051147461E-06  0.00000000000E+00  1.
</event>
<event>
11 117   1.0000000E+00   7.4550000E+01   7.8125000E-03   1.3429423E-01
       21   -1    0    0  501  502  0.00000000000E+00  0.00000000000E+00  2.16861595293E+02  2.16861595293E+02  0.00000000000E+00  0.00000000000E+00  1.
        5   -1    0    0  502    0  0.00000000000E+00  0.00000000000E+00 -7.25572566591E+02  7.25572566591E+02  0.00000000000E+00  0.00000000000E+00  1.
       25    1    1    2    0    0  1.67312354392E+00  2.54977089616E+02 -3.96146207401E+01  2.86723619097E+02  1.25000000000E+02  0.00000000000E+00  1.
        6    2    1    2  501    0 -7.72338268616E+01 -8.74369014607E+01 -1.02590755231E+02  2.38388962523E+02  1.80815261096E+02  0.00000000000E+00  1.
      -24    2    1    2    0    0  7.55607033177E+01 -1.67540188156E+02 -3.66505595326E+02  4.17321580263E+02  7.77934149823E+01  0.00000000000E+00  1.
        5    1    4    4  501    0 -7.51714279837E+01  2.24236452111E+01 -4.47264930145E+01  9.04244719478E+01  4.75000000000E+00  0.00000000000E+00  1.
       24    2    4    4    0    0 -2.06239887786E+00 -1.09860546672E+02 -5.78642622170E+01  1.47964490576E+02  8.04464071620E+01  0.00000000000E+00  1.
       -1    1    7    7    0  703 -3.57152077559E+01 -4.44012400393E+01 -4.63771085331E+01  7.34702822777E+01  6.74349576174E-07  0.00000000000E+00  1.
        2    1    7    7  703    0  3.36528088781E+01 -6.54593066325E+01 -1.14871536838E+01  7.44942082980E+01  1.43051147461E-06  0.00000000000E+00  1.
        3    1    5    5  704    0 -1.12767883420E+01 -5.29026867058E+01 -1.25631258543E+02  1.36781114702E+02  1.34869915235E-06  0.00000000000E+00  1.
       -2    1    5    5    0  704  8.68374916597E+01 -1.14637501450E+02 -2.40874336783E+02  2.80540465561E+02  4.67203091199E-06  0.00000000000E+00  1.
</event>
<event>
11 117   1.0000000E+00   7.4550000E+01   7.8125000E-03   1.3429423E-01
       21   -1    0    0  501  502  0.00000000000E+00  0.00000000000E+00  1.08561877416E+03  1.08561877416E+03  0.00000000000E+00  0.00000000000E+00  1.
        5   -1    0    0  502    0  0.00000000000E+00  0.00000000000E+00 -2.39418088779E+02  2.39418088779E+02  0.00000000000E+00  0.00000000000E+00  1.
       25    1    1    2    0    0  1.26598787991E+02 -4.13075896641E+02  3.94797685647E+02  5.98455647562E+02  1.25000000000E+02  0.00000000000E+00  1.
        6    2    1    2  501    0 -3.43504300868E+00  5.87570371433E+01  1.16928907464E+02  2.17749583044E+02  1.74006673954E+02  0.00000000000E+00  1.
      -24    2    1    2    0    0 -1.23163744982E+02  3.54318859498E+02  3.34474092265E+02  5.08831632329E+02  7.95333224992E+01  0.00000000000E+00  1.
        5    1    4    4  501    0  1.05418416834E+01 -4.77057164694E+01  4.07823617118E+01  6.38179389885E+01  4.75000000000E+00  0.00000000000E+00  1.
       24    2    4    4    0    0 -1.39768846921E+01  1.06462753613E+02  7.61465457521E+01  1.53931644055E+02  7.97933794189E+01  0.00000000000E+00  1.
      -13    1    7    7    0    0 -3.74894237186E+00  2.65050854188E+01  6.77978938698E+01  7.28912868537E+01  1.05659999987E-01  0.00000000000E+00  1.
       14    1    7    7    0    0 -1.02279423202E+01  7.99576681940E+01  8.34865188229E+00  8.10403572017E+01  1.23885927742E-06  0.00000000000E+00  1.
        3    1    5    5  704    0 -5.02296140344E+01  2.48629230943E+02  2.42110431775E+02  3.50652206296E+02  0.00000000000E+00  0.00000000000E+00  1.
       -4    1    5    5    0  704 -7.29341309475E+01  1.05689628555E+02  9.23636604899E+01  1.58179426033E+02  3.56832255056E-06  0.00000000000E+00  1.
</event>
<event>
11 117   1.0000000E+00   7.4550000E+01   7.8125000E-03   1.3429423E-01
       21   -1    0    0  501  502  0.00000000000E+00  0.00000000000E+00  5.02291287882E+02  5.02291287882E+02  0.00000000000E+00  0.00000000000E+00  1.
        5   -1    0    0  502    0  0.00000000000E+00  0.00000000000E+00 -1.90536964630E+02  1.90536964630E+02  0.00000000000E+00  0.00000000000E+00  1.
       25    1    1    2    0    0  9.40568237897E+01  7.22465779487E+01  3.12402106852E+01  1.75120543884E+02  1.25000000000E+02  0.00000000000E+00  1.
        6    2    1    2  501    0 -7.94096130437E+01 -1.96879405238E+02  1.20836764991E+02  2.99171162304E+02  1.72726586633E+02  0.00000000000E+00  1.
      -24    2    1    2    0    0 -1.46472107460E+01  1.24632827290E+02  1.59677347576E+02  2.18536546324E+02  8.07061604181E+01  0.00000000000E+00  1.
        5    1    4    4  501    0 -4.46594855295E+01 -1.78146460761E+02  5.47872231299E+01  1.91715501323E+02  4.75000000000E+00  0.00000000000E+00  1.
       24    2    4    4    0    0 -3.47501275142E+01 -1.87329444780E+01  6.60495418608E+01  1.07455660981E+02  7.50045500333E+01  0.00000000000E+00  1.
       -1    1    7    7    0  703 -1.95672934279E+00 -4.35003744425E+01  3.68314775376E+01  5.70321760409E+01  1.34869915235E-06  0.00000000000E+00  1.
        2    1    7    7  703    0 -3.27933981714E+01  2.47674299645E+01  2.92180643232E+01  5.04234849398E+01  1.30587233902E-06  0.00000000000E+00  1.
        1    1    5    5  704    0  6.40874601170E+00  1.26149184860E+02  1.23527385351E+02  1.76674004307E+02  0.00000000000E+00  0.00000000000E+00  1.
       -2    1    5    5    0  704 -2.10559567577E+01 -1.51635756994E+00  3.61499622248E+01  4.18625420169E+01  1.84678237257E-06  0.00000000000E+00  1.
</event>
<event>
11 117   1.0000000E+00   7.4550000E+01   7.8125000E-03   1.3429423E-01
       -5   -1    0    0    0  502  0.00000000000E+00  0.00000000000E+00  2.09336431579E+02  2.09336431579E+02  0.00000000000E+00  0.00000000000E+00  1.
       21   -1    0    0  502  501  0.00000000000E+00  0.00000000000E+00 -5.00666430759E+02  5.00666430759E+02  0.00000000000E+00  0.00000000000E+00  1.
       25    1    1    2    0    0  4.58174605878E+00  5.14730383820E+01 -2.42508883293E+02  2.77679715776E+02  1.25000000000E+02  0.00000000000E+00  1.
       -6    2    1    2    0  501  8.83284232920E+01 -1.04196391239E+02 -1.49168751507E+02  2.64557592226E+02  1.70530363484E+02  0.00000000000E+00  1.
       24    2    1    2    0    0 -9.29101693508E+01  5.27233528571E+01  1.00347635619E+02  1.67765554337E+02  8.16307646798E+01  0.00000000000E+00  1.
       -5    1    4    4    0  501 -1.73950601941E+01 -1.45653422822E+01 -8.40160058229E+01  8.71549714554E+01  4.75000000000E+00  0.00000000000E+00  1.
      -24    2    4    4    0    0  1.05723483486E+02 -8.96310489569E+01 -6.51527456836E+01  1.77402620771E+02  8.95300490818E+01  0.00000000000E+00  1.
       13    1    7    7    0    0  3.12045325907E+01 -5.49853882873E+01 -7.09348404359E+01  9.50204111284E+01  1.05660000004E-01  0.00000000000E+00  1.
      -14    1    7    7    0    0  7.45189508954E+01 -3.46456606696E+01  5.78209475233E+00  8.23822096421E+01  1.27837721047E-06  0.00000000000E+00  1.
       -3    1    5    5    0  703 -1.02789421331E+02  6.23557422760E+01  9.38304572317E+01  1.52505929186E+02  1.34869915235E-06  0.00000000000E+00  1.
        4    1    5    5  703    0  9.87925198066E+00 -9.63238941896E+00  6.51717838783E+00  1.52596251512E+01  7.44461774635E-07  0.00000000000E+00  1.
</event>
<event>
11 117   1.0000000E+00   7.4550000E+01   7.8125000E-03   1.3429423E-01
       -5   -1    0    0    0  502  0.00000000000E+00  0.00000000000E+00  1.49083041893E+03  1.49083041893E+03  0.00000000000E+00  0.00000000000E+00  1.
       21   -1    0    0  502  501  0.00000000000E+00  0.00000000000E+00 -6.00404831254E+02  6.00404831254E+02  0.00000000000E+00  0.00000000000E+00  1.
       25    1    1    2    0    0 -4.18572006215E+02  1.97503726558E+02  2.26832789270E+02  5.30366251452E+02  1.25000000000E+02  0.00000000000E+00  1.
       -6    2    1    2    0  501 -9.01504748061E+01  9.09419170273E+00 -3.52291269840E+02  4.03257606091E+02  1.74062476238E+02  0.00000000000E+00  1.
       24    2    1    2    0    0  5.08722481021E+02 -2.06597918261E+02  1.01588406824E+03  1.15761139264E+03  8.10088497025E+01  0.00000000000E+00  1.
       -5    1    4    4    0  501  2.76561921218E+01  1.25973912764E+01 -9.93717784078E+00  3.23244370885E+01  4.75000000000E+00  0.00000000000E+00  1.
      -24    2    4    4    0    0 -1.17806666928E+02 -3.50319957364E+00 -3.42354091999E+02  3.70933169002E+02  8.05878922512E+01  0.00000000000E+00  1.
       13    1    7    7    0    0 -1.94262369008E+01  5.20967442524E+00 -1.78391071750E+02  1.79521321943E+02  1.05659999987E-01  0.00000000000E+00  1.
      -14    1    7    7    0    0 -9.83804300271E+01 -8.71287399888E+00 -1.63963020249E+02  1.91411847060E+02  3.30362473978E-06  0.00000000000E+00  1.
       -1    1    5    5    0  703  1.37854851580E+02 -8.70353430039E+01  3.49677055649E+02  3.85814922318E+02  8.52992239952E-06  0.00000000000E+00  1.
        2    1    5    5  703    0  3.70867629441E+02 -1.19562575257E+02  6.66207012594E+02  7.71796470321E+02  7.62939453125E-06  0.00000000000E+00  1.
</event>
<event>
11 117   1.0000000E+00   7.4550000E+01   7.8125000E-03   1.3429423E-01
        5   -1    0    0  502    0  0.00000000000E+00  0.00000000000E+00  7.18945555217E+02  7.18945555217E+02  0.00000000000E+00  0.00000000000E+00  1.
       21   -1    0    0  501  502  0.00000000000E+00  0.00000000000E+00 -1.00108097890E+03  1.00108097890E+03  0.00000000000E+00  0.00000000000E+00  1.
       25    1    1    2    0    0 -7.23498425386E+02 -4.16169326949E+01  1.85729202421E+02  7.58486833936E+02  1.25000000000E+02  0.00000000000E+00  1.
        6    2    1    2  501    0  3.71109335809E+02 -1.72329631188E+01 -6.07787351937E+01  4.14312216669E+02  1.73035961832E+02  0.00000000000E+00  1.
      -24    2    1    2    0    0  3.52389089577E+02  5.88498958137E+01 -4.07085890908E+02  5.47227483509E+02  7.80872296940E+01  0.00000000000E+00  1.
        5    1    4    4  501    0  7.70668279211E+00 -2.09581389517E+01  2.40458219874E+01  3.31572104229E+01  4.75000000000E+00  0.00000000000E+00  1.
       24    2    4    4    0    0  3.63402653017E+02  3.72517583289E+00 -8.48245571812E+01  3.81155006246E+02  7.75149542406E+01  0.00000000000E+00  1.
       -3    1    7    7    0  703  3.02309636042E+02 -7.65578839945E+00 -4.11379471433E+01  3.05191837760E+02  3.30362473978E-06  0.00000000000E+00  1.
        4    1    7    7  703    0  6.10930169750E+01  1.13809642323E+01 -4.36866100379E+01  7.59631684868E+01  4.76837158203E-07  0.00000000000E+00  1.
        3    1    5    5  704    0  1.25704579792E+02  5.11387237889E+01 -1.88140581687E+02  2.31977776800E+02  3.81469726562E-06  0.00000000000E+00  1.
       -4    1    5    5    0  704  2.26684509785E+02  7.71117202486E+00 -2.18945309220E+02  3.15249706709E+02  3.81469726562E-06  0.00000000000E+00  1.
</event>
<event>
11 117   1.0000000E+00   7.4550000E+01   7.8125000E-03   1.3429423E-01
       21   -1    0    0  501  502  0.00000000000E+00  0.00000000000E+00  6.96259951470E+02  6.96259951470E+02  0.00000000000E+00  0.00000000000E+00  1.
        5   -1    0    0  502    0  0.00000000000E+00  0.00000000000E+00 -8.13798328279E+02  8.13798328279E+02  0.00000000000E+00  0.00000000000E+00  1.
       25    1    1    2    0    0  4.18713158567E+02  2.76706442589E+02 -1.30819698423E+01  5.17381196472E+02  1.25000000000E+02  0.00000000000E+00  1.
        6    2    1    2  501    0 -4.32080274619E+01  3.59940323845E+01  3.02492436778E+02  3.51752705480E+02  1.70486912987E+02  0.00000000000E+00  1.
      -24    2    1    2    0    0 -3.75505131105E+02 -3.12700474973E+02 -4.06948843745E+02  6.40924377798E+02  7.99437683337E+01  0.00000000000E+00  1.
        5    1    4    4  501    0  3.18987396383E+01  4.42559215558E+01  1.76748771753E+02  1.85037312452E+02  4.75000000000E+00  0.00000000000E+00  1.
       24    2    4    4    0    0 -7.51067671002E+01 -8.26188917127E+00  1.25743665025E+02  1.66715393028E+02  7.92039626629E+01  0.00000000000E+00  1.
       -1    1    7    7    0  703 -4.39903662668E+00 -1.15471605077E+01 -8.46920986538E+00  1.49805191758E+01  2.08531089837E-06  0.00000000000E+00  1.
        2    1    7    7  703    0 -7.07077304736E+01  3.28527133638E+00  1.34212874891E+02  1.51734873852E+02  0.00000000000E+00  0.00000000000E+00  1.
        1    1    5    5  704    0 -1.50860857239E+02 -1.44794108356E+02 -1.26967011628E+02  2.44632283444E+02  2.33601545599E-06  0.00000000000E+00  1.
       -2    1    5    5    0  704 -2.24644273867E+02 -1.67906366617E+02 -2.79981832117E+02  3.96292094353E+02  5.39479660939E-06  0.00000000000E+00  1.
</event>
<event>
11 117   1.0000000E+00   7.4550000E+01   7.8125000E-03   1.3429423E-01
       21   -1    0    0  501  502  0.00000000000E+00  0.00000000000E+00  2.02284480430E+03  2.02284480430E+03  0.00000000000E+00  0.00000000000E+00  1.
        5   -1    0    0  502    0  0.00000000000E+00  0.00000000000E+00 -3.03202662891E+01  3.03202662891E+01  0.00000000000E+00  0.00000000000E+00  1.
       25    1    1    2    0    0  1.35826687679E+01 -5.31374853981E+01  6.25184881619E+02  6.39913445280E+02  1.25000000000E+02  0.00000000000E+00  1.
        6    2    1    2  501    0 -7.38968513090E+01 -6.79909262852E+01  7.71212643775E+02  7.96699620669E+02  1.72852055140E+02  0.00000000000E+00  1.
      -24    2    1    2    0    0  6.03141825412E+01  1.21128411683E+02  5.96127012617E+02  6.16552004639E+02  8.03683178917E+01  0.00000000000E+00  1.
        5    1    4    4  501    0 -1.17593995142E+01  3.89845400864E+01  3.21429824104E+02  3.24033597280E+02  4.75000000000E+00  0.00000000000E+00  1.
       24    2    4    4    0    0 -6.21374517948E+01 -1.06975466372E+02  4.49782819670E+02  4.72666023389E+02  7.61824879796E+01  0.00000000000E+00  1.
       -1    1    7    7    0  703 -2.66724690892E+00 -7.55996877549E+01  1.94967243537E+02  2.09128317181E+02  0.00000000000E+00  0.00000000000E+00  1.
        2    1    7    7  703    0 -5.94702048859E+01 -3.13757786167E+01  2.54815576133E+02  2.63537706208E+02  6.03156597170E-06  0.00000000000E+00  1.
        1    1    5    5  704    0  1.34858004267E+01  8.43611305230E+01  4.61595535909E+02  4.69434879326E+02  1.07895932188E-05  0.00000000000E+00  1.
       -2    1    5    5    0  704  4.68283821145E+01  3.67672811604E+01  1.34531476707E+02  1.47117125313E+02  6.60724947956E-06  0.00000000000E+00  1.
</event>
<event>
11 117   1.0000000E+00   7.4550000E+01   7.8125000E-03   1.3429423E-01
       21   -1    0    0  501  502  0.00000000000E+00  0.00000000000E+00  1.52882537266E+02  1.52882537266E+02  0.00000000000E+00  0.00000000000E+00  1.
        5   -1    0    0  502    0  0.00000000000E+00  0.00000000000E+00 -6.96688280367E+02  6.96688280367E+02  0.00000000000E+00  0.00000000000E+00  1.
       25    1    1    2    0    0 -1.32580115173E+02 -1.83184749787E+02 -3.51983087640E+02  4.36636271372E+02  1.25000000000E+02  0.00000000000E+00  1.
        6    2    1    2  501    0  1.23476398446E+02  8.21412792422E+01 -6.79924342422E+01  2.37422573984E+02  1.72490280290E+02  0.00000000000E+00  1.
      -24    2    1    2    0    0  9.10371672737E+00  1.01043470544E+02 -1.23830221220E+02  1.75511972276E+02  7.19574049499E+01  0.00000000000E+00  1.
        5    1    4    4  501    0  6.06337664307E+01 -1.42502458956E+01 -7.44806157979E+01  9.72082700663E+01  4.75000000000E+00  0.00000000000E+00  1.
       24    2    4    4    0    0  6.28426320149E+01  9.63915251378E+01  6.48818155566E+00  1.40214303918E+02  7.98588254757E+01  0.00000000000E+00  1.
      -15    1    7    7    0    0  2.37771559199E+00  6.50385374886E+01 -1.84695815074E+01  6.76753082696E+01  1.77680000000E+00  0.00000000000E+00  1.
       16    1    7    7    0    0  6.04649164229E+01  3.13529876492E+01  2.49577630630E+01  7.25389956483E+01  1.54512898884E-06  0.00000000000E+00  1.
        1    1    5    5  704    0 -1.61846733529E+01  1.81604076340E+01 -6.85192034228E+01  7.27091830147E+01  1.34869915235E-06  0.00000000000E+00  1.
       -2    1    5    5    0  704  2.52883900803E+01  8.28830629103E+01 -5.53110177968E+01  1.02802789262E+02  1.78416127528E-06  0.00000000000E+00  1.
</event>
<event>
11 117   1.0000000E+00   7.4550000E+01   7.8125000E-03   1.3429423E-01
       21   -1    0    0  501  502  0.00000000000E+00  0.00000000000E+00  1.60818777343E+02  1.60818777343E+02  0.00000000000E+00  0.00000000000E+00  1.
        5   -1    0    0  502    0  0.00000000000E+00  0.00000000000E+00 -3.69744598170E+02  3.69744598170E+02  0.00000000000E+00  0.00000000000E+00  1.
       25    1    1    2    0    0  1.11491856970E+02  4.97079477614E+01 -1.26216868953E+02  2.15538888021E+02  1.25000000000E+02  0.00000000000E+00  1.
        6    2    1    2  501    0 -8.83589133347E+01 -6.42056041938E+00 -7.16576955707E+00  1.94850898225E+02  1.73398394237E+02  0.00000000000E+00  1.
      -24    2    1    2    0    0 -2.31329436350E+01 -4.32873873420E+01 -7.55431823177E+01  1.20173589266E+02  7.95360809844E+01  0.00000000000E+00  1.
        5    1    4    4  501    0 -3.95773834497E+00  4.41116683872E+01  3.83690486515E+01  5.87898747671E+01  4.75000000000E+00  0.00000000000E+00  1.
       24    2    4    4    0    0 -8.44011749897E+01 -5.05322288065E+01 -4.55348182086E+01  1.36061023458E+02  8.22320980355E+01  0.00000000000E+00  1.
      -11    1    7    7    0    0  1.02088745439E+01 -2.20813178499E+01  5.38424227876E+00  2.49157737712E+01  5.10999000951E-04  0.00000000000E+00  1.
       12    1    7    7    0    0 -9.46100495336E+01 -2.84509109567E+01 -5.09190604874E+01  1.11145249687E+02  1.34869915235E-06  0.00000000000E+00  1.
        1    1    5    5  704    0 -4.68052103870E+00  1.32682012459E+01 -5.57187425289E+01  5.74676492515E+01  1.16800772800E-06  0.00000000000E+00  1.
       -2    1    5    5    0  704 -1.84524225963E+01 -5.65555885880E+01 -1.98244397889E+01  6.27059400149E+01  2.38418579102E-07  0.00000000000E+00  1.
</event>
<event>
11 117   1.0000000E+00   7.4550000E+01   7.8125000E-03   1.3429423E-01
        5   -1    0    0  502    0  0.00000000000E+00  0.00000000000E+00  7.21986088384E+01  7.21986088384E+01  0.00000000000E+00  0.00000000000E+00  1.
       21   -1    0    0  501  502  0.00000000000E+00  0.00000000000E+00 -1.08321697626E+03  1.08321697626E+03  0.00000000000E+00  0.00000000000E+00  1.
       25    1    1    2    0    0 -6.42581983146E+01 -1.64699827810E+01 -7.90714168918E+01  1.62103872109E+02  1.25000000000E+02  0.00000000000E+00  1.
        6    2    1    2  501    0  1.81653274288E+00 -3.10046347627E+01 -8.00038975359E+02  8.19193366391E+02  1.73351729952E+02  0.00000000000E+00  1.
      -24    2    1    2    0    0  6.24416655717E+01  4.74746175438E+01 -1.31907975172E+02  1.74118346599E+02  8.22476978298E+01  0.00000000000E+00  1.
        5    1    4    4  501    0  6.56644646564E+00  5.46552127271E+01 -3.22456291857E+02  3.27155823967E+02  4.75000000000E+00  0.00000000000E+00  1.
       24    2    4    4    0    0 -4.74991372276E+00 -8.56598474898E+01 -4.77582683503E+02  4.92037542425E+02  8.15815691258E+01  0.00000000000E+00  1.
       -3    1    7    7    0  703  2.62100352637E+01 -3.30365381811E+01 -8.66631818011E+01  9.63788663733E+01  2.13248059988E-06  0.00000000000E+00  1.
        4    1    7    7  703    0 -3.09599489864E+01 -5.26233093087E+01 -3.90919501702E+02  3.95658676051E+02  0.00000000000E+00  0.00000000000E+00  1.
        3    1    5    5  704    0  1.66805102276E+01  1.78877805694E+01  6.55226330621E+00  2.53208267950E+01  2.12914599174E-06  0.00000000000E+00  1.
       -4    1    5    5    0  704  4.57611553442E+01  2.95868369744E+01 -1.38460238478E+02  1.48797519804E+02  2.69739830470E-06  0.00000000000E+00  1.
</event>
<event>
11 117   1.0000000E+00   7.4550000E+01   7.8125000E-03   1.3429423E-01
       21   -1    0    0  501  502  0.00000000000E+00  0.00000000000E+00  4.73726899400E+02  4.73726899400E+02  0.00000000000E+00  0.00000000000E+00  1.
        5   -1    0    0  502    0  0.00000000000E+00  0.00000000000E+00 -5.72103356936E+02  5.72103356936E+02  0.00000000000E+00  0.00000000000E+00  1.
       25    1    1    2    0    0  3.40609561379E+02  1.59878852272E+02  1.18917922998E+02  4.13935493908E+02  1.25000000000E+02  0.00000000000E+00  1.
        6    2    1    2  501    0 -1.51352139983E+01 -9.90872759102E+01  4.10888727450E+01  2.04918729468E+02  1.73942597639E+02  0.00000000000E+00  1.
      -24    2    1    2    0    0 -3.25474347381E+02 -6.07915763615E+01 -2.58383253279E+02  4.26976032960E+02  7.69250322562E+01  0.00000000000E+00  1.
        5    1    4    4  501    0 -7.17171862096E-02  4.00674939384E+01  1.22733310678E+01  4.21735268783E+01  4.75000000000E+00  0.00000000000E+00  1.
       24    2    4    4    0    0 -1.50634968121E+01 -1.39154769849E+02  2.88155416772E+01  1.62745202590E+02  7.78762262571E+01  0.00000000000E+00  1.
       -3    1    7    7    0  703 -2.49204085245E+01 -4.83763370630E+00  2.38013115480E+00  2.54969505082E+01  1.23957600254E-06  0.00000000000E+00  1.
        4    1    7    7  703    0  9.85691171243E+00 -1.34317136142E+02  2.64354105224E+01  1.37248252082E+02  1.54512898884E-06  0.00000000000E+00  1.
        3    1    5    5  704    0 -2.89677774312E+02 -5.51260058802E+01 -1.93620004669E+02  3.52761669775E+02  3.81469726562E-06  0.00000000000E+00  1.
       -4    1    5    5    0  704 -3.57965730689E+01 -5.66557048130E+00 -6.47632486104E+01  7.42143631848E+01  3.30362473978E-06  0.00000000000E+00  1.
</event>
<event>
11 117   1.0000000E+00   7.4550000E+01   7.8125000E-03   1.3429423E-01
       21   -1    0    0  501  502  0.00000000000E+00  0.00000000000E+00  7.78734654793E+02  7.78734654793E+02  0.00000000000E+00  0.00000000000E+00  1.
        5   -1    0    0  502    0  0.00000000000E+00  0.00000000000E+00 -7.91853604930E+01  7.91853604930E+01  0.00000000000E+00  0.00000000000E+00  1.
       25    1    1    2    0    0  4.49599505091E+00  3.19705576210E+01  1.52432259560E+02  1.99757163277E+02  1.25000000000E+02  0.00000000000E+00  1.
        6    2    1    2  501    0 -5.20377193703E+01 -1.25352062027E+02  2.45374122365E+02  3.28871549990E+02  1.71834143217E+02  0.00000000000E+00  1.
      -24    2    1    2    0    0  4.75417243193E+01  9.33815044062E+01  3.01742912376E+02  3.29291302019E+02  8.00228436124E+01  0.00000000000E+00  1.
        5    1    4    4  501    0 -6.12106629522E+01 -1.21999455436E+02  1.51495929814E+02  2.03971055878E+02  4.75000000000E+00  0.00000000000E+00  1.
       24    2    4    4    0    0  9.17294358192E+00 -3.35260659087E+00  9.38781925508E+01  1.24900494112E+02  8.18024176168E+01  0.00000000000E+00  1.
      -11    1    7    7    0    0  2.37781509425E+00  2.41165440536E+01 -2.58645025484E+00  2.43711187042E+01  5.10995523827E-04  0.00000000000E+00  1.
       12    1    7    7    0    0  6.79512848767E+00 -2.74691506445E+01  9.64646428057E+01  1.00529375408E+02  2.33601545599E-06  0.00000000000E+00  1.
       13    1    5    5    0    0  2.50952586323E+01 -7.12361362666E+00  3.74174076261E+01  4.56135005718E+01  1.05659999991E-01  0.00000000000E+00  1.
      -14    1    5    5    0    0  2.24464656871E+01  1.00505118033E+02  2.64325504750E+02  2.83677801447E+02  0.00000000000E+00  0.00000000000E+00  1.
</event>
<event>
11 117   1.0000000E+00   7.4550000E+01   7.8125000E-03   1.3429423E-01
       -5   -1    0    0    0  502  0.00000000000E+00  0.00000000000E+00  5.85842499990E+02  5.85842499990E+02  0.00000000000E+00  0.00000000000E+00  1.
       21   -1    0    0  502  501  0.00000000000E+00  0.00000000000E+00 -1.84723547961E+03  1.84723547961E+03  0.00000000000E+00  0.00000000000E+00  1.
       25    1    1    2    0    0 -2.03360906247E+01 -2.02232572428E+01  3.59685912319E+01  1.33196382348E+02  1.25000000000E+02  0.00000000000E+00  1.
       -6    2    1    2    0  501  3.72337913337E+00  1.98588341318E+02 -1.76904315183E+03  1.78856682241E+03  1.73223590621E+02  0.00000000000E+00  1.
       24    2    1    2    0    0  1.66127114913E+01 -1.78365084075E+02  4.71681580972E+02  5.11314774844E+02  8.28806355299E+01  0.00000000000E+00  1.
       -5    1    4    4    0  501  3.22179422593E+00  1.59180015418E+02 -8.46629313923E+02  8.61482684075E+02  4.75000000002E+00  0.00000000000E+00  1.
      -24    2    4    4    0    0  5.01584907441E-01  3.94083259005E+01 -9.22413837904E+02  9.27084138337E+02  8.41691360462E+01  0.00000000000E+00  1.
       11    1    7    7    0    0 -3.66215703902E+01 -2.61343618366E+00 -3.91364498467E+02  3.93082866743E+02  5.11055549347E-04  0.00000000000E+00  1.
      -12    1    7    7    0    0  3.71231552977E+01  4.20217620842E+01 -5.31049339437E+02  5.34001271594E+02  0.00000000000E+00  0.00000000000E+00  1.
       -3    1    5    5    0  703 -4.79820878649E+00 -1.37712287179E+02  4.20660974321E+02  4.42654890591E+02  0.00000000000E+00  0.00000000000E+00  1.
        4    1    5    5  703    0  2.14109202778E+01 -4.06527968964E+01  5.10206066506E+01  6.86598842530E+01  2.23656452171E-06  0.00000000000E+00  1.
</event>
<event>
11 117   1.0000000E+00   7.4550000E+01   7.8125000E-03   1.3429423E-01
       -5   -1    0    0    0  502  0.00000000000E+00  0.00000000000E+00  1.06347602240E+03  1.06347602240E+03  0.00000000000E+00  0.00000000000E+00  1.
       21   -1    0    0  502  501  0.00000000000E+00  0.00000000000E+00 -4.89169067549E+02  4.89169067549E+02  0.00000000000E+00  0.00000000000E+00  1.
       25    1    1    2    0    0 -3.36047823299E+02  2.61886938180E+02  2.10530373335E+02  4.91386758093E+02  1.25000000000E+02  0.00000000000E+00  1.
       -6    2    1    2    0  501 -2.91838126548E+01  1.32773879360E+02 -1.86955300917E+02  2.87215169860E+02  1.70468974583E+02  0.00000000000E+00  1.
       24    2    1    2    0    0  3.65231635953E+02 -3.94660817540E+02  5.50731882438E+02  7.74043162001E+02  8.17673620946E+01  0.00000000000E+00  1.
       -5    1    4    4    0  501  4.63246678916E+01  3.58193519933E+01 -1.38960111815E+01  6.03710399053E+01  4.75000000000E+00  0.00000000000E+00  1.
      -24    2    4    4    0    0 -7.55084805464E+01  9.69545273667E+01 -1.73059289735E+02  2.26844129955E+02  8.00439286881E+01  0.00000000000E+00  1.
        1    1    7    7  704    0 -1.41099084964E+01  7.53140819159E+01 -6.40190150203E+01  9.98485590121E+01  9.53674316406E-07  0.00000000000E+00  1.
       -2    1    7    7    0  704 -6.13985720500E+01  2.16404454508E+01 -1.09040274715E+02  1.26995570943E+02  2.69739830470E-06  0.00000000000E+00  1.
       -1    1    5    5    0  703  8.21451524197E+01 -1.43402652885E+02  1.75421209206E+02  2.41007774895E+02  4.67203091199E-06  0.00000000000E+00  1.
        4    1    5    5  703    0  2.83086483534E+02 -2.51258164655E+02  3.75310673232E+02  5.33035387106E+02  0.00000000000E+00  0.00000000000E+00  1.
</event>
<event>
11 117   1.0000000E+00   7.4550000E+01   7.8125000E-03   1.3429423E-01
       21   -1    0    0  501  502  0.00000000000E+00  0.00000000000E+00  5.14126516963E+02  5.14126516963E+02  0.00000000000E+00  0.00000000000E+00  1.
        5   -1    0    0  502    0  0.00000000000E+00  0.00000000000E+00 -6.30039914998E+02  6.30039914998E+02  0.00000000000E+00  0.00000000000E+00  1.
       25    1    1    2    0    0  2.03928780418E+02 -1.43475386441E+02  7.50798376436E+01  2.88849642578E+02  1.25000000000E+02  0.00000000000E+00  1.
        6    2    1    2  501    0 -3.58230124137E+02 -2.58995094295E+01  1.59197134858E+02  4.29235164828E+02  1.72914697322E+02  0.00000000000E+00  1.
      -24    2    1    2    0    0  1.54301343720E+02  1.69374895870E+02 -3.50190370536E+02  4.26081624555E+02  8.00967860911E+01  0.00000000000E+00  1.
        5    1    4    4  501    0 -1.58679475269E+02 -2.11682192799E+01  1.38578116325E+02  2.11786983082E+02  4.75000000000E+00  0.00000000000E+00  1.
       24    2    4    4    0    0 -1.99550648869E+02 -4.73129014964E+00  2.06190185335E+01  2.17448181746E+02  8.37599023929E+01  0.00000000000E+00  1.
      -11    1    7    7    0    0 -5.29516198317E+01  3.28413244755E+01  2.20748056459E+01  6.61038855187E+01  5.11000544400E-04  0.00000000000E+00  1.
       12    1    7    7    0    0 -1.46599029037E+02 -3.75726146251E+01 -1.45578711234E+00  1.51344296227E+02  2.38744319481E-06  0.00000000000E+00  1.
        3    1    5    5  704    0  1.21079985260E+02  1.21534549080E+02 -3.13133704139E+02  3.57048632708E+02  0.00000000000E+00  0.00000000000E+00  1.
       -4    1    5    5    0  704  3.32213584593E+01  4.78403467898E+01 -3.70566663976E+01  6.90329918470E+01  4.39622137894E-06  0.00000000000E+00  1.
</event>
<event>
11 117   1.0000000E+00   7.4550000E+01   7.8125000E-03   1.3429423E-01
       21   -1    0    0  501  502  0.00000000000E+00  0.00000000000E+00  1.31900040042E+03  1.31900040042E+03  0.00000000000E+00  0.00000000000E+00  1.
        5   -1    0    0  502    0  0.00000000000E+00  0.00000000000E+00 -3.16874266298E+02  3.16874266298E+02  0.00000000000E+00  0.00000000000E+00  1.
       25    1    1    2    0    0  2.08413661286E+02  3.89843087305E+02  7.08651716271E+02  8.44527170613E+02  1.25000000000E+02  0.00000000000E+00  1.
        6    2    1    2  501    0 -1.42947679448E+02 -4.51057770698E+02  3.18120421267E+01  5.03246894329E+02  1.68399165855E+02  0.00000000000E+00  1.
      -24    2    1    2    0    0 -6.54659818384E+01  6.12146833939E+01  2.61662375728E+02  2.88100601779E+02  8.06332786929E+01  0.00000000000E+00  1.
        5    1    4    4  501    0  2.84368544601E+01 -9.20202816331E+01  5.60972147461E+00  9.65940909085E+01  4.75000000000E+00  0.00000000000E+00  1.
       24    2    4    4    0    0 -1.71384533908E+02 -3.59037489065E+02  2.62023206521E+01  4.06652803420E+02  7.99960243077E+01  0.00000000000E+00  1.
       -1    1    7    7    0  703 -6.27211459902E+01 -1.92307550044E+02  4.34545934239E+01  2.06892333468E+02  3.87384338600E-06  0.00000000000E+00  1.
        2    1    7    7  703    0 -1.08663387918E+02 -1.66729939021E+02 -1.72522727718E+01  1.99760469952E+02  6.30796268240E-07  0.00000000000E+00  1.
        3    1    5    5  704    0 -1.63952867769E+01 -9.99017363491E-01  1.51575266757E+02  1.52462667420E+02  1.90734863281E-06  0.00000000000E+00  1.
       -2    1    5    5    0  704 -4.90706950615E+01  6.22137007574E+01  1.10087108971E+02  1.35637934359E+02  2.33601545599E-06  0.00000000000E+00  1.
</event>
<event>
11 117   1.0000000E+00   7.4550000E+01   7.8125000E-03   1.3429423E-01
       21   -1    0    0  501  502  0.00000000000E+00  0.00000000000E+00  6.34842174231E+01  6.34842174231E+01  0.00000000000E+00  0.00000000000E+00  1.
        5   -1    0    0  502    0  0.00000000000E+00  0.00000000000E+00 -9.38344742432E+02  9.38344742432E+02  0.00000000000E+00  0.00000000000E+00  1.
       25    1    1    2    0    0 -5.47957046904E+01  9.07984324569E+01 -4.60555570147E+02  4.88859241278E+02  1.25000000000E+02  0.00000000000E+00  1.
        6    2    1    2  501    0  5.13058772889E+01 -1.13587483460E+02 -3.34969851621E+02  3.96386921953E+02  1.71415813033E+02  0.00000000000E+00  1.
      -24    2    1    2    0    0  3.48982740154E+00  2.27890510036E+01 -7.93351032408E+01  1.16582796624E+02  8.22555172703E+01  0.00000000000E+00  1.
        5    1    4    4  501    0  4.02031136330E+01  2.26177120787E+01 -4.09612571885E+01  6.18727592396E+01  4.75000000000E+00  0.00000000000E+00  1.
       24    2    4    4    0    0  1.11027636559E+01 -1.36205195539E+02 -2.94008594432E+02  3.34514162714E+02  8.23622777944E+01  0.00000000000E+00  1.
       -1    1    7    7    0  703 -1.90018217558E+01 -8.09443465679E+01 -2.30807234901E+02  2.45326386990E+02  2.69739830470E-06  0.00000000000E+00  1.
        2    1    7    7  703    0  3.01045854117E+01 -5.52608489713E+01 -6.32013595316E+01  8.91877757234E+01  6.74349576174E-07  0.00000000000E+00  1.
        3    1    5    5  704    0  2.61190219819E+01  4.59852126616E+01 -5.23337995947E+01  7.44020811056E+01  1.50789149292E-06  0.00000000000E+00  1.
       -2    1    5    5    0  704 -2.26291945804E+01 -2.31961616580E+01 -2.70013036461E+01  4.21807155180E+01  1.43051147461E-06  0.00000000000E+00  1.
</event>
<event>
11 117   1.0000000E+00   7.4550000E+01   7.8125000E-03   1.3429423E-01
       21   -1    0    0  501  502  0.00000000000E+00  0.00000000000E+00  2.60682385590E+02  2.60682385590E+02  0.00000000000E+00  0.00000000000E+00  1.
        5   -1    0    0  502    0  0.00000000000E+00  0.00000000000E+00 -4.33612629632E+02  4.33612629632E+02  0.00000000000E+00  0.00000000000E+00  1.
       25    1    1    2    0    0  1.46065146742E+02 -1.45803125938E+02 -2.46686879321E+02  3.45069551040E+02  1.25000000000E+02  0.00000000000E+00  1.
        6    2    1    2  501    0 -1.29636019403E+02  6.80748268623E+01  8.69052409083E+01  2.38481104042E+02  1.66976155509E+02  0.00000000000E+00  1.
      -24    2    1    2    0    0 -1.64291273385E+01  7.77282990755E+01 -1.31486056296E+01  1.10744360141E+02  7.60251456473E+01  0.00000000000E+00  1.
        5    1    4    4  501    0  2.35213786257E+01 -6.79831996364E+00 -9.61196313529E+00  2.67287250369E+01  4.75000000000E+00  0.00000000000E+00  1.
       24    2    4    4    0    0 -1.53157398029E+02  7.48731468259E+01  9.65172040436E+01  2.11752379005E+02  8.03761323487E+01  0.00000000000E+00  1.
      -13    1    7    7    0    0 -1.22924445147E+02  8.05670485785E+01  4.85847566843E+01  1.54796506024E+02  1.05660000010E-01  0.00000000000E+00  1.
       14    1    7    7    0    0 -3.02329528825E+01 -5.69390175256E+00  4.79324473592E+01  5.69558729808E+01  1.16800772800E-06  0.00000000000E+00  1.
       15    1    5    5    0    0  1.34236101800E+00  3.36350448881E+01 -4.29784717341E+01  5.46207307583E+01  1.77680000000E+00  0.00000000000E+00  1.
      -16    1    5    5    0    0 -1.77714883565E+01  4.40932541874E+01  2.98298661045E+01  5.61236293824E+01  1.71926082395E-06  0.00000000000E+00  1.
</event>
<event>
11 117   1.0000000E+00   7.4550000E+01   7.8125000E-03   1.3429423E-01
       21   -1    0    0  501  502  0.00000000000E+00  0.00000000000E+00  5.37250137039E+02  5.37250137039E+02  0.00000000000E+00  0.00000000000E+00  1.
        5   -1    0    0  502    0  0.00000000000E+00  0.00000000000E+00 -4.16589887031E+02  4.16589887031E+02  0.00000000000E+00  0.00000000000E+00  1.
       25    1    1    2    0    0  2.13635996891E+02 -2.13033505926E+02 -1.89199478314E+02  3.77418940183E+02  1.25000000000E+02  0.00000000000E+00  1.
        6    2    1    2  501    0 -6.47023089007E+01  8.67410424321E-02  2.25591125248E+02  2.91368873093E+02  1.72679089978E+02  0.00000000000E+00  1.
      -24    2    1    2    0    0 -1.48933687990E+02  2.12946764884E+02  8.42686030734E+01  2.85052210794E+02  8.14002292487E+01  0.00000000000E+00  1.
        5    1    4    4  501    0  1.49465127951E+01  3.28533437878E+01 -1.36922509098E+00  3.64304504519E+01  4.75000000000E+00  0.00000000000E+00  1.
       24    2    4    4    0    0 -7.96488216958E+01 -3.27666027454E+01  2.26960350339E+02  2.54938422641E+02  7.78781975883E+01  0.00000000000E+00  1.
       -1    1    7    7    0  703 -5.95047841201E+01 -2.22836734072E+01  6.32288267849E+01  8.96396450813E+01  2.69739830470E-06  0.00000000000E+00  1.
        2    1    7    7  703    0 -2.01440375757E+01 -1.04829293382E+01  1.63731523554E+02  1.65298777559E+02  3.81469726562E-06  0.00000000000E+00  1.
        1    1    5    5  704    0 -1.49008176065E+02  1.64296096737E+02  8.15699980499E+01  2.36326698702E+02  2.86102294922E-06  0.00000000000E+00  1.
       -2    1    5    5    0  704  7.44880750568E-02  4.86506681466E+01  2.69860502348E+00  4.87255120923E+01  1.15154260912E-06  0.00000000000E+00  1.
</event>
<event>
11 117   1.0000000E+00   7.4550000E+01   7.8125000E-03   1.3429423E-01
       21   -1    0    0  501  502  0.00000000000E+00  0.00000000000E+00  1.54605935116E+03  1.54605935116E+03  0.00000000000E+00  0.00000000000E+00  1.
        5   -1    0    0  502    0  0.00000000000E+00  0.00000000000E+00 -1.27319465976E+02  1.27319465976E+02  0.00000000000E+00  0.00000000000E+00  1.
       25    1    1    2    0    0  3.27742764243E+01  2.01887570566E+01  4.15678208873E+02  4.35769563461E+02  1.25000000000E+02  0.00000000000E+00  1.
        6    2    1    2  501    0 -2.05544773709E+00  3.38510053862E+01  1.08857562540E+03  1.10270210423E+03  1.72641023558E+02  0.00000000000E+00  1.
      -24    2    1    2    0    0 -3.07188286872E+01 -5.40397624428E+01 -8.55139490892E+01  1.34907149452E+02  8.38054957842E+01  0.00000000000E+00  1.
        5    1    4    4  501    0 -3.85081795183E+01 -7.53040597152E+00  7.31154267826E+02  7.32221764743E+02  4.74999999998E+00  0.00000000000E+00  1.
       24    2    4    4    0    0  3.64527317812E+01  4.13814113577E+01  3.57421357576E+02  3.70480339483E+02  8.04016929652E+01  0.00000000000E+00  1.
      -15    1    7    7    0    0  9.48591739700E-01 -1.32940635213E+01  1.95017078826E+02  1.95480050142E+02  1.77680000000E+00  0.00000000000E+00  1.
       16    1    7    7    0    0  3.55041400415E+01  5.46754748790E+01  1.62404278750E+02  1.75000289342E+02  1.90734863281E-06  0.00000000000E+00  1.
        1    1    5    5  704    0 -5.17144723584E+01 -1.93557198282E+01 -7.47965882662E+01  9.29707489356E+01  9.53674316406E-07  0.00000000000E+00  1.
       -2    1    5    5    0  704  2.09956436712E+01 -3.46840426146E+01 -1.07173608229E+01  4.19364005163E+01  3.95372484965E-07  0.00000000000E+00  1.
</event>
<event>
11 117   1.0000000E+00   7.4550000E+01   7.8125000E-03   1.3429423E-01
        5   -1    0    0  502    0  0.00000000000E+00  0.00000000000E+00  6.34369960290E+02  6.34369960290E+02  0.00000000000E+00  0.00000000000E+00  1.
       21   -1    0    0  501  502  0.00000000000E+00  0.00000000000E+00 -6.60151686596E+02  6.60151686596E+02  0.00000000000E+00  0.00000000000E+00  1.
       25    1    1    2    0    0 -4.62271462764E+02 -2.38384210488E+02 -2.25342033615E+02  5.80453244637E+02  1.25000000000E+02  0.00000000000E+00  1.
        6    2    1    2  501    0  1.46263161902E+02  2.49696094413E+02  5.40868532376E+00  3.34555200269E+02  1.67800107436E+02  0.00000000000E+00  1.
      -24    2    1    2    0    0  3.16008300861E+02 -1.13118839244E+01  1.94151621986E+02  3.79513201980E+02  7.96631233761E+01  0.00000000000E+00  1.
        5    1    4    4  501    0  1.02245337418E+02  8.17089210991E+01 -4.13569117651E+01  1.37344142437E+02  4.75000000000E+00  0.00000000000E+00  1.
       24    2    4    4    0    0  4.40178244844E+01  1.67987173314E+02  4.67655970888E+01  1.97211057833E+02  8.09192250963E+01  0.00000000000E+00  1.
       -3    1    7    7    0  703  1.95351267655E+01  5.47012170473E+00  2.37850760784E+01  3.12613699838E+01  2.92001931999E-06  0.00000000000E+00  1.
        4    1    7    7  703    0  2.44826977189E+01  1.62517051609E+02  2.29805210104E+01  1.65949687849E+02  2.07848498513E-06  0.00000000000E+00  1.
        3    1    5    5  704    0  5.75872376766E+01  2.57541078666E+01  2.20591437128E+01  6.68294084709E+01  6.12044222498E-06  0.00000000000E+00  1.
       -4    1    5    5    0  704  2.58421063185E+02 -3.70659917910E+01  1.72092478273E+02  3.12683793509E+02  4.67203091199E-06  0.00000000000E+00  1.
</event>
<event>
11 117   1.0000000E+00   7.4550000E+01   7.8125000E-03   1.3429423E-01
       21   -1    0    0  501  502  0.00000000000E+00  0.00000000000E+00  7.08300394519E+02  7.08300394519E+02  0.00000000000E+00  0.00000000000E+00  1.
        5   -1    0    0  502    0  0.00000000000E+00  0.00000000000E+00 -3.66431660888E+02  3.66431660888E+02  0.00000000000E+00  0.00000000000E+00  1.
       25    1    1    2    0    0  2.14741972830E+02  9.06341723865E+01 -2.25341618631E+02  3.47465844633E+02  1.25000000000E+02  0.00000000000E+00  1.
        6    2    1    2  501    0 -7.51121513541E+00  5.86313419420E+01  1.84639976116E+02  2.60776794932E+02  1.74409183772E+02  0.00000000000E+00  1.
      -24    2    1    2    0    0 -2.07230757695E+02 -1.49265514329E+02  3.82570376147E+02  4.66489415842E+02  7.76369865778E+01  0.00000000000E+00  1.
        5    1    4    4  501    0 -3.85419882122E+01  4.29376606932E+01  1.94773235336E+00  5.79265372905E+01  4.75000000000E+00  0.00000000000E+00  1.
       24    2    4    4    0    0  3.10307730767E+01  1.56936812488E+01  1.82692243763E+02  2.02850257641E+02  8.10096943904E+01  0.00000000000E+00  1.
       -3    1    7    7    0  703 -8.65141084805E+00 -1.99180306088E+01  1.37712730323E+01  2.57142531279E+01  3.55235682148E-06  0.00000000000E+00  1.
        4    1    7    7  703    0  3.96821839248E+01  3.56117118576E+01  1.68920970731E+02  1.77136004514E+02  3.30362473978E-06  0.00000000000E+00  1.
       13    1    5    5    0    0 -1.93798721397E+01 -5.16945778596E+01  7.57380902964E+01  9.37239473668E+01  1.05659999918E-01  0.00000000000E+00  1.
      -14    1    5    5    0    0 -1.87850885555E+02 -9.75709364689E+01  3.06832285850E+02  3.72765468475E+02  3.81469726562E-06  0.00000000000E+00  1.
</event>
<event>
11 117   1.0000000E+00   7.4550000E+01   7.8125000E-03   1.3429423E-01
       -5   -1    0    0    0  502  0.00000000000E+00  0.00000000000E+00  2.23371100487E+02  2.23371100487E+02  0.00000000000E+00  0.00000000000E+00  1.
       21   -1    0    0  502  501  0.00000000000E+00  0.00000000000E+00 -5.49611333131E+02  5.49611333131E+02  0.00000000000E+00  0.00000000000E+00  1.
       25    1    1    2    0    0  1.63770321000E+02  2.20971077025E+02 -9.11513900961E+01  3.15566967280E+02  1.25000000000E+02  0.00000000000E+00  1.
       -6    2    1    2    0  501 -1.25465700322E+02 -1.32327513266E+02 -9.15148404095E+01  2.67612783580E+02  1.73174545461E+02  0.00000000000E+00  1.
       24    2    1    2    0    0 -3.83046206779E+01 -8.86435637586E+01 -1.43574002139E+02  1.89802682757E+02  7.80169143871E+01  0.00000000000E+00  1.
       -5    1    4    4    0  501 -1.27136285385E+02 -7.67188287139E+01 -2.91331190237E+01  1.51395887872E+02  4.75000000000E+00  0.00000000000E+00  1.
      -24    2    4    4    0    0  1.67058506243E+00 -5.56086845525E+01 -6.23817213858E+01  1.16216895708E+02  8.07450991255E+01  0.00000000000E+00  1.
       15    1    7    7    0    0 -1.14025167739E+01  1.56881630536E+01 -3.23424473511E+01  3.77535000719E+01  1.77680000000E+00  0.00000000000E+00  1.
      -16    1    7    7    0    0  1.30731018363E+01 -7.12968476061E+01 -3.00392740346E+01  7.84633956359E+01  1.87730976916E-06  0.00000000000E+00  1.
       -3    1    5    5    0  703  8.64085483480E+00 -4.20756613373E+01 -1.54979364062E+01  4.56641181027E+01  1.36961046375E-06  0.00000000000E+00  1.
        4    1    5    5  703    0 -4.69454755127E+01 -4.65679024213E+01 -1.28076065733E+02  1.44138564655E+02  1.90734863281E-06  0.00000000000E+00  1.
</event>
<event>
11 117   1.0000000E+00   7.4550000E+01   7.8125000E-03   1.3429423E-01
       21   -1    0    0  501  502  0.00000000000E+00  0.00000000000E+00  1.31723680962E+03  1.31723680962E+03  0.00000000000E+00  0.00000000000E+00  1.
        5   -1    0    0  502    0  0.00000000000E+00  0.00000000000E+00 -5.77807575372E+02  5.77807575372E+02  0.00000000000E+00  0.00000000000E+00  1.
       25    1    1    2    0    0  1.56214783189E+02 -5.61963670652E+02 -1.08905475782E+02  6.06375814388E+02  1.25000000000E+02  0.00000000000E+00  1.
        6    2    1    2  501    0 -3.58254243838E+01 -1.95001206929E+01  6.23853020544E+02  6.48776059332E+02  1.73361091892E+02  0.00000000000E+00  1.
      -24    2    1    2    0    0 -1.20389358805E+02  5.81463791345E+02  2.24481689484E+02  6.39892511270E+02  8.04776907465E+01  0.00000000000E+00  1.
        5    1    4    4  501    0 -2.06694045995E+01 -7.58231026240E+00  3.74327542675E+00  2.28317832491E+01  4.75000000000E+00  0.00000000000E+00  1.
       24    2    4    4    0    0 -1.51560197843E+01 -1.19178104305E+01  6.20109745117E+02  6.25944276083E+02  8.30566170227E+01  0.00000000000E+00  1.
      -13    1    7    7    0    0 -3.02740275417E+01  2.61480681143E+00  8.23774544367E+01  8.78032466471E+01  1.05660000232E-01  0.00000000000E+00  1.
       14    1    7    7    0    0  1.51180077574E+01 -1.45326172420E+01  5.37732290680E+02  5.38141029436E+02  1.07895932188E-05  0.00000000000E+00  1.
       11    1    5    5    0    0 -1.11315182750E+02  3.45918113716E+02  1.42327024543E+02  3.90265798172E+02  5.10984358804E-04  0.00000000000E+00  1.
      -12    1    5    5    0    0 -9.07417605534E+00  2.35545677629E+02  8.21546649407E+01  2.49626713098E+02  5.64201334295E-06  0.00000000000E+00  1.
</event>
<event>
11 117   1.0000000E+00   7.4550000E+01   7.8125000E-03   1.3429423E-01
       -5   -1    0    0    0  502  0.00000000000E+00  0.00000000000E+00  1.94054559153E+03  1.94054559153E+03  0.00000000000E+00  0.00000000000E+00  1.
       21   -1    0    0  502  501  0.00000000000E+00  0.00000000000E+00 -3.44723760833E+01  3.44723760833E+01  0.00000000000E+00  0.00000000000E+00  1.
       25    1    1    2    0    0 -9.31297143341E+01  2.82295063119E+01  4.52137987647E+02  4.79086431234E+02  1.25000000000E+02  0.00000000000E+00  1.
       -6    2    1    2    0  501 -5.34310980410E+01  4.78389443631E+00  6.84291050227E+02  7.07796234313E+02  1.72752713445E+02  0.00000000000E+00  1.
       24    2    1    2    0    0  1.46560812375E+02 -3.30134007482E+01  7.69644177569E+02  7.88135302064E+02  7.89628896366E+01  0.00000000000E+00  1.
       -5    1    4    4    0  501 -7.90882513889E+01 -1.94435612359E+01  3.47680231502E+02  3.57123381282E+02  4.75000000000E+00  0.00000000000E+00  1.
      -24    2    4    4    0    0  2.56571533478E+01  2.42274556722E+01  3.36610818726E+02  3.50672853031E+02  9.17570021493E+01  0.00000000000E+00  1.
        3    1    7    7  704    0  4.36328202549E+01 -1.39563053259E+01  2.51894537965E+02  2.56026287163E+02  2.69739830470E-06  0.00000000000E+00  1.
       -4    1    7    7    0  704 -1.79756669070E+01  3.81837609981E+01  8.47162807602E+01  9.46465658677E+01  1.65181236989E-06  0.00000000000E+00  1.
       -1    1    5    5    0  703  3.11992121073E+01 -4.20225694694E+01  1.91391010329E+02  1.98418260287E+02  7.62939453125E-06  0.00000000000E+00  1.
        2    1    5    5  703    0  1.15361600268E+02  9.00916872120E+00  5.78253167241E+02  5.89717041776E+02  7.62939453125E-06  0.00000000000E+00  1.
</event>
<event>
11 117   1.0000000E+00   7.4550000E+01   7.8125000E-03   1.3429423E-01
        5   -1    0    0  502    0  0.00000000000E+00  0.00000000000E+00  1.00738588409E+03  1.00738588409E+03  0.00000000000E+00  0.00000000000E+00  1.
       21   -1    0    0  501  502  0.00000000000E+00  0.00000000000E+00 -4.04515063255E+02  4.04515063255E+02  0.00000000000E+00  0.00000000000E+00  1.
       25    1    1    2    0    0 -9.08152906813E+01  4.59386144318E+01  1.75225143509E+02  2.38089529873E+02  1.25000000000E+02  0.00000000000E+00  1.
        6    2    1    2  501    0  3.69708560380E+00 -5.15079112742E+02  2.38671420770E+01  5.43461994518E+02  1.71642471985E+02  0.00000000000E+00  1.
      -24    2    1    2    0    0  8.71182050775E+01  4.69140498310E+02  4.03778535250E+02  6.30349422955E+02  8.13689171592E+01  0.00000000000E+00  1.
        5    1    4    4  501    0 -2.27892961032E+00 -2.08490313962E+01 -3.31342490401E+01  3.95008428996E+01  4.75000000000E+00  0.00000000000E+00  1.
       24    2    4    4    0    0  5.97601521412E+00 -4.94230081346E+02  5.70013911171E+01  5.03961151618E+02  8.01785363175E+01  0.00000000000E+00  1.
      -13    1    7    7    0    0  7.17827477101E+00 -4.50954915212E+01 -1.70863299342E+01  4.87553568224E+01  1.05659999820E-01  0.00000000000E+00  1.
       14    1    7    7    0    0 -1.20225955689E+00 -4.49134589825E+02  7.40877210513E+01  4.55205794796E+02  1.34869915235E-06  0.00000000000E+00  1.
       13    1    5    5    0    0  7.99387338283E+00  9.50984487801E-01  1.34705357995E+01  1.56930838881E+01  1.05660000368E-01  0.00000000000E+00  1.
      -14    1    5    5    0    0  7.91243316947E+01  4.68189513823E+02  3.90307999451E+02  6.14656339066E+02  1.32144989591E-05  0.00000000000E+00  1.
</event>
<event>
11 117   1.0000000E+00   7.4550000E+01   7.8125000E-03   1.3429423E-01
        5   -1    0    0  502    0  0.00000000000E+00  0.00000000000E+00  7.58389775197E+02  7.58389775197E+02  0.00000000000E+00  0.00000000000E+00  1.
       21   -1    0    0  501  502  0.00000000000E+00  0.00000000000E+00 -1.52593555786E+02  1.52593555786E+02  0.00000000000E+00  0.00000000000E+00  1.
       25    1    1    2    0    0  1.03497195457E+00  8.95977430736E+01  1.79583262021E+02  2.36440213858E+02  1.25000000000E+02  0.00000000000E+00  1.
        6    2    1    2  501    0  1.02567421036E+02 -3.73834012563E+01 -2.12675924442E+01  2.05443006153E+02  1.72733678654E+02  0.00000000000E+00  1.
      -24    2    1    2    0    0 -1.03602392991E+02 -5.22143418174E+01  4.47480549834E+02  4.69100110972E+02  7.97262711365E+01  0.00000000000E+00  1.
        5    1    4    4  501    0  9.14242517039E+01  9.48871255727E+00 -5.28721572626E+01  1.06143567771E+02  4.75000000000E+00  0.00000000000E+00  1.
       24    2    4    4    0    0  1.11431693325E+01 -4.68721138135E+01  3.16045648184E+01  9.92994383821E+01  8.08725211027E+01  0.00000000000E+00  1.
      -11    1    7    7    0    0  4.41853284943E+01 -4.08210001332E+01  1.59205554900E+01  6.22266935759E+01  5.10995955753E-04  0.00000000000E+00  1.
       12    1    7    7    0    0 -3.30421591618E+01 -6.05111368036E+00  1.56840093285E+01  3.70727448061E+01  1.92219203670E-06  0.00000000000E+00  1.
       11    1    5    5    0    0 -4.25247153800E+01 -5.43886403646E+01  3.24589874899E+02  3.31850964299E+02  5.10970119505E-04  0.00000000000E+00  1.
      -12    1    5    5    0    0 -6.10776776110E+01  2.17429854728E+00  1.22890674935E+02  1.37249146673E+02  2.69739830470E-06  0.00000000000E+00  1.
</event>
<event>
11 117   1.0000000E+00   7.4550000E+01   7.8125000E-03   1.3429423E-01
       -5   -1    0    0    0  502  0.00000000000E+00  0.00000000000E+00  2.75601939481E+02  2.75601939481E+02  0.00000000000E+00  0.00000000000E+00  1.
       21   -1    0    0  502  501  0.00000000000E+00  0.00000000000E+00 -1.10555768845E+03  1.10555768845E+03  0.00000000000E+00  0.00000000000E+00  1.
       25    1    1    2    0    0  1.26308995130E+02 -1.67385138857E+02  2.84624117317E+01  2.45778062167E+02  1.25000000000E+02  0.00000000000E+00  1.
       -6    2    1    2    0  501  5.59630877191E+00 -7.21862061072E+01 -8.28367285021E+02  8.49368237479E+02  1.73181629857E+02  0.00000000000E+00  1.
       24    2    1    2    0    0 -1.31905303902E+02  2.39571344964E+02 -3.00508756815E+01  2.86013328287E+02  7.81481305137E+01  0.00000000000E+00  1.
       -5    1    4    4    0  501 -3.38197151813E+01  3.08847335477E+01 -3.11017888566E+02  3.14407902905E+02  4.75000000000E+00  0.00000000000E+00  1.
      -24    2    4    4    0    0  3.94160239532E+01 -1.03070939655E+02 -5.17349396455E+02  5.34960334573E+02  7.97177521538E+01  0.00000000000E+00  1.
       13    1    7    7    0    0  5.62700608361E+00  1.35604375109E+01 -5.27803770150E+01  5.47843775618E+01  1.05659999677E-01  0.00000000000E+00  1.
      -14    1    7    7    0    0  3.37890178696E+01 -1.16631377166E+02 -4.64569019440E+02  4.80175957012E+02  5.39479660939E-06  0.00000000000E+00  1.
      -13    1    5    5    0    0 -1.34030720864E+02  1.88463244983E+02 -1.13218682674E+01  2.31540114689E+02  1.05659999880E-01  0.00000000000E+00  1.
       14    1    5    5    0    0  2.12541696219E+00  5.11080999811E+01 -1.87290074141E+01  5.44732135977E+01  1.86210863016E-06  0.00000000000E+00  1.
</event>
<event>
11 117   1.0000000E+00   7.4550000E+01   7.8125000E-03   1.3429423E-01
       -5   -1    0    0    0  502  0.00000000000E+00  0.00000000000E+00  4.11901274273E+02  4.11901274273E+02  0.00000000000E+00  0.00000000000E+00  1.
       21   -1    0    0  502  501  0.00000000000E+00  0.00000000000E+00 -1.62198598388E+02  1.62198598388E+02  0.00000000000E+00  0.00000000000E+00  1.
       25    1    1    2    0    0  1.23039636082E+02 -3.81853003770E+01  7.48016105829E+00  1.79660296175E+02  1.25000000000E+02  0.00000000000E+00  1.
       -6    2    1    2    0  501 -3.95607673295E+01 -1.11367381823E+01  9.62941338970E+01  2.01793845427E+02  1.72508302931E+02  0.00000000000E+00  1.
       24    2    1    2    0    0 -8.34788687527E+01  4.93220385593E+01  1.45928380930E+02  1.92645731059E+02  8.00993153453E+01  0.00000000000E+00  1.
       -5    1    4    4    0  501  1.83560096617E+01  1.16321151134E+01  9.57225362561E+01  9.82731684643E+01  4.75000000000E+00  0.00000000000E+00  1.
      -24    2    4    4    0    0 -5.79167769911E+01 -2.27688532957E+01  5.71597640947E-01  1.03520676963E+02  8.27250270325E+01  0.00000000000E+00  1.
        3    1    7    7  704    0 -7.56841017803E+00  2.93225326745E+01 -5.65599289027E+00  3.08071746618E+01  8.55487590695E-07  0.00000000000E+00  1.
       -4    1    7    7    0  704 -5.03483668131E+01 -5.20913859702E+01  6.22759053121E+00  7.27135023009E+01  1.53127104982E-06  0.00000000000E+00  1.
       -3    1    5    5    0  703 -9.00967595384E+01  2.04838003888E+01  1.28620415763E+02  1.58367368825E+02  0.00000000000E+00  0.00000000000E+00  1.
        4    1    5    5  703    0  6.61789078570E+00  2.88382381705E+01  1.73079651669E+01  3.42783622341E+01  1.75201159199E-06  0.00000000000E+00  1.
</event>
<event>
11 117   1.0000000E+00   7.4550000E+01   7.8125000E-03   1.3429423E-01
       -5   -1    0    0    0  502  0.00000000000E+00  0.00000000000E+00  1.71281395260E+02  1.71281395260E+02  0.00000000000E+00  0.00000000000E+00  1.
       21   -1    0    0  502  501  0.00000000000E+00  0.00000000000E+00 -2.09435148778E+03  2.09435148778E+03  0.00000000000E+00  0.00000000000E+00  1.
       25    1    1    2    0    0 -2.07525647572E+02 -3.41175968449E+02 -2.71431003125E+02  4.98766203050E+02  1.25000000000E+02  0.00000000000E+00  1.
       -6    2    1    2    0  501  2.56572945017E+02  3.75240106146E+01 -7.80808967948E+02  8.39860309437E+02  1.68715640805E+02  0.00000000000E+00  1.
       24    2    1    2    0    0 -4.90472974450E+01  3.03651957834E+02 -8.70830121447E+02  9.27006370553E+02  7.99097099358E+01  0.00000000000E+00  1.
       -5    1    4    4    0  501  1.52478790146E+02 -3.53997673624E+01 -3.17185161471E+02  3.53739896154E+02  4.75000000001E+00  0.00000000000E+00  1.
      -24    2    4    4    0    0  1.04094154871E+02  7.29237779770E+01 -4.63623806478E+02  4.86120413283E+02  7.21980041642E+01  0.00000000000E+00  1.
        1    1    7    7  704    0  8.85492237139E+01  2.77900711362E+01 -3.64080226251E+02  3.75722855602E+02  5.39479660939E-06  0.00000000000E+00  1.
       -2    1    7    7    0  704  1.55449311571E+01  4.51337068408E+01 -9.95435802261E+01  1.10397557682E+02  7.13664510112E-06  0.00000000000E+00  1.
      -15    1    5    5    0    0 -4.14239737929E+01  3.06194612238E+02 -8.57126479697E+02  9.11120214563E+02  1.77680000002E+00  0.00000000000E+00  1.
       16    1    5    5    0    0 -7.62332365213E+00 -2.54265440373E+00 -1.37036417498E+01  1.58861559897E+01  4.89194024293E-06  0.00000000000E+00  1.
</event>
<event>
11 117   1.0000000E+00   7.4550000E+01   7.8125000E-03   1.3429423E-01
       -5   -1    0    0    0  502  0.00000000000E+00  0.00000000000E+00  3.54056525085E+02  3.54056525085E+02  0.00000000000E+00  0.00000000000E+00  1.
       21   -1    0    0  502  501  0.00000000000E+00  0.00000000000E+00 -3.22416852762E+02  3.22416852762E+02  0.00000000000E+00  0.00000000000E+00  1.
       25    1    1    2    0    0 -2.04483148484E+01 -6.48623762822E+01  7.94809548731E+01  1.62995348476E+02  1.25000000000E+02  0.00000000000E+00  1.
       -6    2    1    2    0  501  1.31750522601E+02 -2.69544050561E+01  1.42027839921E+02  2.61981410608E+02  1.74291744020E+02  0.00000000000E+00  1.
       24    2    1    2    0    0 -1.11302207753E+02  9.18167813383E+01 -1.89869122471E+02  2.51496618764E+02  7.98859361590E+01  0.00000000000E+00  1.
       -5    1    4    4    0  501  9.59857530917E+01  4.06656656449E+01  4.69484274269E+01  1.14427612475E+02  4.75000000000E+00  0.00000000000E+00  1.
      -24    2    4    4    0    0  3.57647695093E+01 -6.76200707009E+01  9.50794124942E+01  1.47553798132E+02  8.29483933742E+01  0.00000000000E+00  1.
       13    1    7    7    0    0  2.20839118793E+01 -9.56038586699E+00 -1.05263560949E+01  2.62662421844E+01  1.05659999980E-01  0.00000000000E+00  1.
      -14    1    7    7    0    0  1.36808576300E+01 -5.80596848340E+01  1.05605768589E+02  1.21287555948E+02  2.69739830470E-06  0.00000000000E+00  1.
      -13    1    5    5    0    0  1.26901820916E+01  1.19231259276E+01 -2.08684894168E+01  2.71791587062E+01  1.05659999973E-01  0.00000000000E+00  1.
       14    1    5    5    0    0 -1.23992389844E+02  7.98936554107E+01 -1.69000633054E+02  2.24317460058E+02  3.30362473978E-06  0.00000000000E+00  1.
</event>
<event>
11 117   1.0000000E+00   7.4550000E+01   7.8125000E-03   1.3429423E-01
        5   -1    0    0  502    0  0.00000000000E+00  0.00000000000E+00  7.35982322014E+02  7.35982322014E+02  0.00000000000E+00  0.00000000000E+00  1.
       21   -1    0    0  501  502  0.00000000000E+00  0.00000000000E+00 -1.20882705777E+02  1.20882705777E+02  0.00000000000E+00  0.00000000000E+00  1.
       25    1    1    2    0    0 -5.04177499480E+01 -3.02416949963E+01  2.98499291627E+00  1.38168085348E+02  1.25000000000E+02  0.00000000000E+00  1.
        6    2    1    2  501    0  9.67007944562E+01  7.60202157305E+01  1.92455811689E+02  2.86679316938E+02  1.73250323113E+02  0.00000000000E+00  1.
      -24    2    1    2    0    0 -4.62830445082E+01 -4.57785207342E+01  4.19658811632E+02  4.32017625506E+02  7.92963895644E+01  0.00000000000E+00  1.
        5    1    4    4  501    0 -3.71601344259E+01  7.41766245172E+00  5.51770375685E+01  6.71041375895E+01  4.75000000000E+00  0.00000000000E+00  1.
       24    2    4    4    0    0  1.33860928882E+02  6.86025532788E+01  1.37278774121E+02  2.19575179348E+02  8.21141824782E+01  0.00000000000E+00  1.
       -3    1    7    7    0  703  4.75084231405E+01  5.67559299395E+01  1.00877205473E+02  1.25117930116E+02  1.34869915235E-06  0.00000000000E+00  1.
        4    1    7    7  703    0  8.63525057416E+01  1.18466233393E+01  3.64015686481E+01  9.44572492318E+01  1.43051147461E-06  0.00000000000E+00  1.
        1    1    5    5  704    0 -2.22608388128E+01 -5.99327640581E+01  3.66052440646E+02  3.71593690010E+02  0.00000000000E+00  0.00000000000E+00  1.
       -2    1    5    5    0  704 -2.40222056954E+01  1.41542433239E+01  5.36063709850E+01  6.04239354952E+01  0.00000000000E+00  0.00000000000E+00  1.
</event>
<event>
11 117   1.0000000E+00   7.4550000E+01   7.8125000E-03   1.3429423E-01
       -5   -1    0    0    0  502  0.00000000000E+00  0.00000000000E+00  3.65178680887E+02  3.65178680887E+02  0.00000000000E+00  0.00000000000E+00  1.
       21   -1    0    0  502  501  0.00000000000E+00  0.00000000000E+00 -5.60252962636E+02  5.60252962636E+02  0.00000000000E+00  0.00000000000E+00  1.
       25    1    1    2    0    0  1.00906802703E+02 -3.53927562129E+01 -3.88189095077E+01  1.69016974767E+02  1.25000000000E+02  0.00000000000E+00  1.
       -6    2    1    2    0  501 -1.38228845012E+02 -4.06515166901E+01 -4.14790000239E+02  4.72834095155E+02  1.75389788301E+02  0.00000000000E+00  1.
       24    2    1    2    0    0  3.73220423090E+01  7.60442729030E+01  2.58534627997E+02  2.83580573601E+02  8.00132586924E+01  0.00000000000E+00  1.
       -5    1    4    4    0  501 -7.64304128312E+00 -6.06554793192E+01 -5.65506721101E+01  8.34148923610E+01  4.75000000000E+00  0.00000000000E+00  1.
      -24    2    4    4    0    0 -1.30585803729E+02  2.00039626290E+01 -3.58239328129E+02  3.89419202794E+02  7.65446838780E+01  0.00000000000E+00  1.
        1    1    7    7  704    0  4.38441689490E+00  1.67629902077E+01 -3.30227721186E+01  3.72924178702E+01  4.42200588965E-06  0.00000000000E+00  1.
       -2    1    7    7    0  704 -1.34970220624E+02  3.24097242139E+00 -3.25216556011E+02  3.52126784924E+02  3.81469726562E-06  0.00000000000E+00  1.
      -11    1    5    5    0    0 -8.88556201024E+00  1.31069217701E+01  1.44572449091E+02  1.45437057337E+02  5.10987918567E-04  0.00000000000E+00  1.
       12    1    5    5    0    0  4.62076043193E+01  6.29373511329E+01  1.13962178906E+02  1.38143516264E+02  2.69739830470E-06  0.00000000000E+00  1.
</event>
<event>
11 117   1.0000000E+00   7.4550000E+01   7.8125000E-03   1.3429423E-01
       -5   -1    0    0    0  502  0.00000000000E+00  0.00000000000E+00  3.94692734683E+02  3.94692734683E+02  0.00000000000E+00  0.00000000000E+00  1.
       21   -1    0    0  502  501  0.00000000000E+00  0.00000000000E+00 -2.29000696477E+02  2.29000696477E+02  0.00000000000E+00  0.00000000000E+00  1.
       25    1    1    2    0    0 -4.81261056292E+01  1.99491422697E+02  5.07095440599E+00  2.40340725536E+02  1.25000000000E+02  0.00000000000E+00  1.
       -6    2    1    2    0  501  3.39424429536E+01 -1.06923406842E+02  4.09087159866E+01  2.09729370961E+02  1.72418623228E+02  0.00000000000E+00  1.
       24    2    1    2    0    0  1.41836626756E+01 -9.25680158549E+01  1.19712367813E+02  1.73623334662E+02  8.39285260542E+01  0.00000000000E+00  1.
       -5    1    4    4    0  501  2.59641502858E+01 -1.17730229627E+02  7.00935992820E+00  1.20856268744E+02  4.75000000000E+00  0.00000000000E+00  1.
      -24    2    4    4    0    0  7.97829266780E+00  1.08068227854E+01  3.38993560584E+01  8.88731022173E+01  8.10482657677E+01  0.00000000000E+00  1.
       11    1    7    7    0    0  5.54376432800E-01 -3.09894412247E+01 -4.88011268731E+00  3.13762378362E+01  5.11000200253E-04  0.00000000000E+00  1.
      -12    1    7    7    0    0  7.42391623500E+00  4.17962640101E+01  3.87794687457E+01  5.74968643812E+01  4.76837158203E-07  0.00000000000E+00  1.
       -1    1    5    5    0  703  3.66970936805E-01 -3.87990863238E+01  1.10799200902E+02  1.17396621279E+02  1.34869915235E-06  0.00000000000E+00  1.
        2    1    5    5  703    0  1.38166917388E+01 -5.37689295311E+01  8.91316691155E+00  5.62267133835E+01  1.97686242482E-06  0.00000000000E+00  1.
</event>
<event>
11 117   1.0000000E+00   7.4550000E+01   7.8125000E-03   1.3429423E-01
        5   -1    0    0  502    0  0.00000000000E+00  0.00000000000E+00  1.73440616512E+02  1.73440616512E+02  0.00000000000E+00  0.00000000000E+00  1.
       21   -1    0    0  501  502  0.00000000000E+00  0.00000000000E+00 -1.26098595985E+03  1.26098595985E+03  0.00000000000E+00  0.00000000000E+00  1.
       25    1    1    2    0    0  1.71598423115E+02  2.46353760671E+01  6.40755834949E+01  2.23122390113E+02  1.25000000000E+02  0.00000000000E+00  1.
        6    2    1    2  501    0 -1.52953756366E+02 -9.72213316536E+01 -9.37731064369E+02  9.70906893279E+02  1.74567486722E+02  0.00000000000E+00  1.
      -24    2    1    2    0    0 -1.86446667495E+01  7.25859555865E+01 -2.13889862465E+02  2.40397292971E+02  8.01600939121E+01  0.00000000000E+00  1.
        5    1    4    4  501    0 -9.93438636084E+01 -3.64937688674E+01 -6.85242426705E+02  6.93383547727E+02  4.74999999999E+00  0.00000000000E+00  1.
       24    2    4    4    0    0 -5.36098927571E+01 -6.07275627862E+01 -2.52488637664E+02  2.77523345552E+02  8.18952849287E+01  0.00000000000E+00  1.
      -11    1    7    7    0    0 -5.57165290887E+01 -3.19472065776E+01 -7.97765463300E+01  1.02417054080E+02  5.10996817865E-04  0.00000000000E+00  1.
       12    1    7    7    0    0  2.10663633162E+00 -2.87803562086E+01 -1.72712091334E+02  1.75106291472E+02  1.90734863281E-06  0.00000000000E+00  1.
       15    1    5    5    0    0  9.01151972857E+00  7.87017264395E+01 -1.34479439528E+02  1.56086661526E+02  1.77680000000E+00  0.00000000000E+00  1.
      -16    1    5    5    0    0 -2.76561864781E+01 -6.11577085305E+00 -7.94104229366E+01  8.43106314447E+01  9.53674316406E-07  0.00000000000E+00  1.
</event>
<event>
11 117   1.0000000E+00   7.4550000E+01   7.8125000E-03   1.3429423E-01
       -5   -1    0    0    0  502  0.00000000000E+00  0.00000000000E+00  1.16166737328E+02  1.16166737328E+02  0.00000000000E+00  0.00000000000E+00  1.
       21   -1    0    0  502  501  0.00000000000E+00  0.00000000000E+00 -1.67679671614E+03  1.67679671614E+03  0.00000000000E+00  0.00000000000E+00  1.
       25    1    1    2    0    0  1.18758815561E+02 -1.99394831097E+01 -1.52593291129E+02  2.31108095396E+02  1.25000000000E+02  0.00000000000E+00  1.
       -6    2    1    2    0  501 -5.90485163858E+01 -2.04695237444E+02 -1.22750366121E+03  1.25685785868E+03  1.65950508079E+02  0.00000000000E+00  1.
       24    2    1    2    0    0 -5.97102991755E+01  2.24634720554E+02 -1.80533026472E+02  3.04997499386E+02  8.00326400836E+01  0.00000000000E+00  1.
       -5    1    4    4    0  501 -6.48777360126E+01 -1.49404478451E+02 -9.18097430433E+02  9.32446391531E+02  4.75000000001E+00  0.00000000000E+00  1.
      -24    2    4    4    0    0  5.82921962676E+00 -5.52907589931E+01 -3.09406230774E+02  3.24411467150E+02  8.01220103665E+01  0.00000000000E+00  1.
        3    1    7    7  704    0  1.78899845236E+01 -7.20775178089E+01 -2.68475310016E+02  2.78557376869E+02  0.00000000000E+00  0.00000000000E+00  1.
       -4    1    7    7    0  704 -1.20607648968E+01  1.67867588157E+01 -4.09309207575E+01  4.58540902810E+01  8.25906184945E-07  0.00000000000E+00  1.
       -1    1    5    5    0  703 -6.57322408723E+01  2.24667868971E+02 -1.84268057371E+02  2.97911221348E+02  3.81469726562E-06  0.00000000000E+00  1.
        2    1    5    5  703    0  6.02194169683E+00 -3.31484167176E-02  3.73503089887E+00  7.08627803809E+00  1.33413250957E-06  0.00000000000E+00  1.
</event>
<event>
11 117   1.0000000E+00   7.4550000E+01   7.8125000E-03   1.3429423E-01
       -5   -1    0    0    0  502  0.00000000000E+00  0.00000000000E+00  5.15735598795E+02  5.15735598795E+02  0.00000000000E+00  0.00000000000E+00  1.
       21   -1    0    0  502  501  0.00000000000E+00  0.00000000000E+00 -4.00625220253E+02  4.00625220253E+02  0.00000000000E+00  0.00000000000E+00  1.
       25    1    1    2    0    0 -2.29089905233E+02  1.49522971498E+02 -7.03929010052E+01  3.08900411455E+02  1.25000000000E+02  0.00000000000E+00  1.
       -6    2    1    2    0  501  6.41243151842E+01 -2.51629621785E+01 -1.25490025717E+02  2.25537921393E+02  1.74282830388E+02  0.00000000000E+00  1.
       24    2    1    2    0    0  1.64965590048E+02 -1.24360009319E+02  3.10993305265E+02  3.81922486201E+02  8.04294207874E+01  0.00000000000E+00  1.
       -5    1    4    4    0  501 -2.95853880060E+01  3.85773498994E+01 -2.73093430269E+01  5.59631112903E+01  4.75000000000E+00  0.00000000000E+00  1.
      -24    2    4    4    0    0  9.37097031902E+01 -6.37403120779E+01 -9.81806826902E+01  1.69574810102E+02  7.91949108965E+01  0.00000000000E+00  1.
        3    1    7    7  704    0 -5.39604617598E-01 -4.13645006610E+01 -3.08403793026E+01  5.15988573866E+01  1.16800772800E-06  0.00000000000E+00  1.
       -4    1    7    7    0  704  9.42493078078E+01 -2.23758114169E+01 -6.73403033877E+01  1.17975952716E+02  1.65181236989E-06  0.00000000000E+00  1.
      -11    1    5    5    0    0  1.62464165774E+02 -1.12052554081E+02  2.44308442097E+02  3.14065271746E+02  5.11019955316E-04  0.00000000000E+00  1.
       12    1    5    5    0    0  2.50142427456E+00 -1.23074552380E+01  6.66848631678E+01  6.78572144547E+01  3.30362473978E-06  0.00000000000E+00  1.
</event>
<event>
11 117   1.0000000E+00   7.4550000E+01   7.8125000E-03   1.3429423E-01
       -5   -1    0    0    0  502  0.00000000000E+00  0.00000000000E+00  8.88718921182E+01  8.88718921182E+01  0.00000000000E+00  0.00000000000E+00  1.
       21   -1    0    0  502  501  0.00000000000E+00  0.00000000000E+00 -1.66088636974E+03  1.66088636974E+03  0.00000000000E+00  0.00000000000E+00  1.
       25    1    1    2    0    0  1.19749696471E+01 -2.35999976643E+00  1.89579734129E+01  1.27017220301E+02  1.25000000000E+02  0.00000000000E+00  1.
       -6    2    1    2    0  501 -7.85875874768E+01 -1.71792518715E+01 -1.21028706497E+03  1.22522825937E+03  1.72969281500E+02  0.00000000000E+00  1.
       24    2    1    2    0    0  6.66126178297E+01  1.95392516379E+01 -3.80685386068E+02  3.97512782184E+02  9.09726641632E+01  0.00000000000E+00  1.
       -5    1    4    4    0  501 -1.07863550724E+01 -2.65527839282E+01 -8.17663264324E+02  8.18179180935E+02  4.74999999994E+00  0.00000000000E+00  1.
      -24    2    4    4    0    0 -6.78012324043E+01  9.37353205675E+00 -3.92623800642E+02  4.07049078439E+02  8.27685520494E+01  0.00000000000E+00  1.
        1    1    7    7  704    0 -4.21317661895E+01  4.61304646436E+01 -2.37000773767E+02  2.45096863008E+02  2.69739830470E-06  0.00000000000E+00  1.
       -2    1    7    7    0  704 -2.56694662149E+01 -3.67569325869E+01 -1.55623026876E+02  1.61952215431E+02  0.00000000000E+00  0.00000000000E+00  1.
      -13    1    5    5    0    0  4.94909778468E+01 -3.24324080621E+01 -1.78386074730E+02  1.87943663906E+02  1.05660000021E-01  0.00000000000E+00  1.
       14    1    5    5    0    0  1.71216399829E+01  5.19716597001E+01 -2.02299311339E+02  2.09569118278E+02  0.00000000000E+00  0.00000000000E+00  1.
</event>
<event>
11 117   1.0000000E+00   7.4550000E+01   7.8125000E-03   1.3429423E-01
        5   -1    0    0  502    0  0.00000000000E+00  0.00000000000E+00  7.14066195280E+02  7.14066195280E+02  0.00000000000E+00  0.00000000000E+00  1.
       21   -1    0    0  501  502  0.00000000000E+00  0.00000000000E+00 -5.60601244213E+02  5.60601244213E+02  0.00000000000E+00  0.00000000000E+00  1.
       25    1    1    2    0    0  2.84139594834E+02 -3.06727984477E+02  2.58273080016E+02  5.07096982514E+02  1.25000000000E+02  0.00000000000E+00  1.
        6    2    1    2  501    0 -2.41284292681E+01 -7.77639514205E+01 -2.10720490049E+02  2.84778986376E+02  1.73397038370E+02  0.00000000000E+00  1.
      -24    2    1    2    0    0 -2.60011165566E+02  3.84491935898E+02  1.05912361099E+02  4.82791470603E+02  8.01892814751E+01  0.00000000000E+00  1.
        5    1    4    4  501    0 -1.35885943022E+01 -6.66676107783E+01 -9.77087607372E+00  6.89003101680E+01  4.75000000000E+00  0.00000000000E+00  1.
       24    2    4    4    0    0 -1.05398349659E+01 -1.10963406422E+01 -2.00949613975E+02  2.15878676208E+02  7.73862945736E+01  0.00000000000E+00  1.
      -13    1    7    7    0    0 -1.83776978685E+01  3.05942310822E+01 -1.07017780032E+02  1.12812070106E+02  1.05659999978E-01  0.00000000000E+00  1.
       14    1    7    7    0    0  7.83786290267E+00 -4.16905717244E+01 -9.39318339430E+01  1.03066606103E+02  0.00000000000E+00  0.00000000000E+00  1.
        3    1    5    5  704    0 -6.78370084187E+01  4.88391923418E+01  2.87579948183E+01  8.83976735314E+01  2.21100294483E-06  0.00000000000E+00  1.
       -4    1    5    5    0  704 -1.92174157147E+02  3.35652743556E+02  7.71543662810E+01  3.94393797071E+02  2.52318507296E-06  0.00000000000E+00  1.
</event>
<event>
11 117   1.0000000E+00   7.4550000E+01   7.8125000E-03   1.3429423E-01
       -5   -1    0    0    0  502  0.00000000000E+00  0.00000000000E+00  1.70062175698E+02  1.70062175698E+02  0.00000000000E+00  0.00000000000E+00  1.
       21   -1    0    0  502  501  0.00000000000E+00  0.00000000000E+00 -4.35456958247E+02  4.35456958247E+02  0.00000000000E+00  0.00000000000E+00  1.
       25    1    1    2    0    0 -1.04797502059E+02 -1.15498530879E+02 -5.88532774095E+01  2.08353390505E+02  1.25000000000E+02  0.00000000000E+00  1.
       -6    2    1    2    0  501  6.58410469055E+01  1.52635917985E+02 -1.20404728691E+02  2.67970130218E+02  1.72272821655E+02  0.00000000000E+00  1.
       24    2    1    2    0    0  3.89564551539E+01 -3.71373871064E+01 -8.61367764483E+01  1.29195613222E+02  7.98446698266E+01  0.00000000000E+00  1.
       -5    1    4    4    0  501 -3.86871073234E+01  3.44718950293E+01 -5.29549633950E+01  7.42414605737E+01  4.75000000000E+00  0.00000000000E+00  1.
      -24    2    4    4    0    0  1.04528154229E+02  1.18164022956E+02 -6.74497652961E+01  1.93728669644E+02  8.99580749907E+01  0.00000000000E+00  1.
        1    1    7    7  704    0  2.19679385103E+01  3.60663601415E+00 -4.57293796127E+01  5.08603411853E+01  2.13248059988E-06  0.00000000000E+00  1.
       -2    1    7    7    0  704  8.25602157186E+01  1.14557386942E+02 -2.17203856834E+01  1.42868328459E+02  1.50789149292E-06  0.00000000000E+00  1.
       -3    1    5    5    0  703  2.49798895030E+01 -3.01070782803E+01  2.48870471260E+00  3.91998047610E+01  1.19655489325E-06  0.00000000000E+00  1.
        4    1    5    5  703    0  1.39765656509E+01 -7.03030882620E+00 -8.86254811609E+01  8.99958084612E+01  9.53674316406E-07  0.00000000000E+00  1.
</event>
<event>
11 117   1.0000000E+00   7.4550000E+01   7.8125000E-03   1.3429423E-01
       -5   -1    0    0    0  502  0.00000000000E+00  0.00000000000E+00  3.86674954948E+02  3.86674954948E+02  0.00000000000E+00  0.00000000000E+00  1.
       21   -1    0    0  502  501  0.00000000000E+00  0.00000000000E+00 -1.26414019974E+03  1.26414019974E+03  0.00000000000E+00  0.00000000000E+00  1.
       25    1    1    2    0    0  2.20190267218E+02  1.08282211910E+02  2.49949276590E+02  3.71898416320E+02  1.25000000000E+02  0.00000000000E+00  1.
       -6    2    1    2    0  501 -3.05178568317E+02 -5.16793421402E+01 -1.08478068436E+03  1.14154341385E+03  1.74835693041E+02  0.00000000000E+00  1.
       24    2    1    2    0    0  8.49883010988E+01 -5.66028697702E+01 -4.26338370209E+01  1.37373324526E+02  8.14057125897E+01  0.00000000000E+00  1.
       -5    1    4    4    0  501 -1.58056803723E+02 -3.62249913652E+01 -7.47182331872E+02  7.64590218852E+02  4.75000000002E+00  0.00000000000E+00  1.
      -24    2    4    4    0    0 -1.47121764594E+02 -1.54543507750E+01 -3.37598352492E+02  3.76953194994E+02  7.89772944295E+01  0.00000000000E+00  1.
        1    1    7    7  704    0 -1.23558585854E+01 -1.97576523271E+01 -1.09762424735E+02  1.12208831874E+02  2.33601545599E-06  0.00000000000E+00  1.
       -2    1    7    7    0  704 -1.34765906009E+02  4.30330155209E+00 -2.27835927757E+02  2.64744363119E+02  5.39479660939E-06  0.00000000000E+00  1.
       -1    1    5    5    0  703  3.00204298352E+00 -7.12703965082E+00 -4.08739329788E+01  4.15991027957E+01  1.58148993986E-06  0.00000000000E+00  1.
        2    1    5    5  703    0  8.19862581152E+01 -4.94758301194E+01 -1.75990404212E+00  9.57742217299E+01  5.96791040733E-07  0.00000000000E+00  1.
</event>
<event>
11 117   1.0000000E+00   7.4550000E+01   7.8125000E-03   1.3429423E-01
        5   -1    0    0  502    0  0.00000000000E+00  0.00000000000E+00  1.22156695447E+02  1.22156695447E+02  0.00000000000E+00  0.00000000000E+00  1.
       21   -1    0    0  501  502  0.00000000000E+00  0.00000000000E+00 -7.98076359432E+02  7.98076359432E+02  0.00000000000E+00  0.00000000000E+00  1.
       25    1    1    2    0    0  9.32293517407E+01  1.23394266055E+01 -1.32920444550E+02  2.05272545788E+02  1.25000000000E+02  0.00000000000E+00  1.
        6    2    1    2  501    0 -4.22256330794E+01  1.49251342093E+02 -4.48373481140E+02  5.04620254019E+02  1.71883259716E+02  0.00000000000E+00  1.
      -24    2    1    2    0    0 -5.10037186613E+01 -1.61590768698E+02 -9.46257382941E+01  2.10340255071E+02  8.10927660768E+01  0.00000000000E+00  1.
        5    1    4    4  501    0 -7.16043492071E+00  1.41255819208E+02 -2.91959613924E+02  3.24449467484E+02  4.75000000000E+00  0.00000000000E+00  1.
       24    2    4    4    0    0 -3.50651981587E+01  7.99552288517E+00 -1.56413867217E+02  1.80170786535E+02  8.18701285863E+01  0.00000000000E+00  1.
       -3    1    7    7    0  703 -1.94572392904E+00 -2.59836204653E+01 -1.12637012421E+02  1.15611551937E+02  0.00000000000E+00  0.00000000000E+00  1.
        4    1    7    7  703    0 -3.31194742296E+01  3.39791433504E+01 -4.37768547957E+01  6.45592345980E+01  8.25906184945E-07  0.00000000000E+00  1.
       15    1    5    5    0    0 -4.06468284074E+01 -1.65027093910E+02 -1.00990387646E+02  1.97707667527E+02  1.77680000000E+00  0.00000000000E+00  1.
      -16    1    5    5    0    0 -1.03568902539E+01  3.43632521184E+00  6.36464935148E+00  1.26325875441E+01  3.26468084756E-06  0.00000000000E+00  1.
</event>
<event>
11 117   1.0000000E+00   7.4550000E+01   7.8125000E-03   1.3429423E-01
        5   -1    0    0  502    0  0.00000000000E+00  0.00000000000E+00  4.09980334140E+02  4.09980334140E+02  0.00000000000E+00  0.00000000000E+00  1.
       21   -1    0    0  501  502  0.00000000000E+00  0.00000000000E+00 -6.67458462168E+02  6.67458462168E+02  0.00000000000E+00  0.00000000000E+00  1.
       25    1    1    2    0    0 -3.06786460805E+01  1.71327504758E+02 -3.68852687091E+02  4.26581291182E+02  1.25000000000E+02  0.00000000000E+00  1.
        6    2    1    2  501    0  1.06022344967E+02  4.99951028620E+00 -1.94516949701E+02  2.81022407126E+02  1.72832337398E+02  0.00000000000E+00  1.
      -24    2    1    2    0    0 -7.53436988869E+01 -1.76327015044E+02  3.05891508764E+02  3.69835098001E+02  8.02526970466E+01  0.00000000000E+00  1.
        5    1    4    4  501    0  3.80802538245E+01 -2.49057302063E+01 -1.59775017351E+02  1.66195727375E+02  4.75000000000E+00  0.00000000000E+00  1.
       24    2    4    4    0    0  6.79420911429E+01  2.99052404925E+01 -3.47419323503E+01  1.14826679751E+02  8.04220949824E+01  0.00000000000E+00  1.
       -1    1    7    7    0  703  2.31589771420E+01  1.25833552079E+01  2.62522286268E+01  3.72002494403E+01  1.54512898884E-06  0.00000000000E+00  1.
        2    1    7    7  703    0  4.47831140009E+01  1.73218852846E+01 -6.09941609771E+01  7.76264303104E+01  1.34869915235E-06  0.00000000000E+00  1.
        3    1    5    5  704    0 -4.55240889622E+01 -4.69001701301E+01  5.28505564719E+01  8.40550412138E+01  2.86102294922E-06  0.00000000000E+00  1.
       -4    1    5    5    0  704 -2.98196099248E+01 -1.29426844914E+02  2.53040952292E+02  2.85780056787E+02  0.00000000000E+00  0.00000000000E+00  1.
</event>
<event>
11 117   1.0000000E+00   7.4550000E+01   7.8125000E-03   1.3429423E-01
        5   -1    0    0  502    0  0.00000000000E+00  0.00000000000E+00  3.03609627243E+02  3.03609627243E+02  0.00000000000E+00  0.00000000000E+00  1.
       21   -1    0    0  501  502  0.00000000000E+00  0.00000000000E+00 -2.23175330298E+02  2.23175330298E+02  0.00000000000E+00  0.00000000000E+00  1.
       25    1    1    2    0    0 -2.34774043947E+01 -4.48020173399E+01  1.55939344425E+02  2.06156465857E+02  1.25000000000E+02  0.00000000000E+00  1.
        6    2    1    2  501    0  4.64584551643E+01 -4.74589971120E+01 -2.36932086700E+01  1.86697215601E+02  1.72869134645E+02  0.00000000000E+00  1.
      -24    2    1    2    0    0 -2.29810507696E+01  9.22610144519E+01 -5.18118388098E+01  1.33931276083E+02  7.88219296283E+01  0.00000000000E+00  1.
        5    1    4    4  501    0 -8.55870726686E+00 -7.04606004407E+01 -4.54348251738E+01  8.44087289509E+01  4.75000000000E+00  0.00000000000E+00  1.
       24    2    4    4    0    0  5.50171624312E+01  2.30016033287E+01  2.17416165038E+01  1.02288486650E+02  8.02139308052E+01  0.00000000000E+00  1.
       -1    1    7    7    0  703  6.32800372634E+00 -2.19360337406E+01 -1.42241715482E+01  2.68990755169E+01  1.62579795086E-06  0.00000000000E+00  1.
        2    1    7    7  703    0  4.86891587049E+01  4.49376370693E+01  3.59657880520E+01  7.53894111329E+01  1.43051147461E-06  0.00000000000E+00  1.
        1    1    5    5  704    0  2.65520351593E+01  5.57737689682E+01 -2.98699747873E+01  6.86144246482E+01  1.01152436426E-06  0.00000000000E+00  1.
       -2    1    5    5    0  704 -4.95330859289E+01  3.64872454837E+01 -2.19418640225E+01  6.53168514352E+01  5.33120149970E-07  0.00000000000E+00  1.
</event>
<event>
11 117   1.0000000E+00   7.4550000E+01   7.8125000E-03   1.3429423E-01
       -5   -1    0    0    0  502  0.00000000000E+00  0.00000000000E+00  1.41246344273E+02  1.41246344273E+02  0.00000000000E+00  0.00000000000E+00  1.
       21   -1    0    0  502  501  0.00000000000E+00  0.00000000000E+00 -6.73500787765E+02  6.73500787765E+02  0.00000000000E+00  0.00000000000E+00  1.
       25    1    1    2    0    0 -9.91325262096E+01  1.11210005267E+02 -2.47346859427E+02  3.14643277208E+02  1.25000000000E+02  0.00000000000E+00  1.
       -6    2    1    2    0  501  2.01367465505E+02 -7.66406554108E+01 -2.31005043866E+02  3.61380714741E+02  1.75527902252E+02  0.00000000000E+00  1.
       24    2    1    2    0    0 -1.02234939296E+02 -3.45693498564E+01 -5.39025401989E+01  1.38723140089E+02  6.84952771663E+01  0.00000000000E+00  1.
       -5    1    4    4    0  501  1.05023250782E+02  1.01456970572E+01 -3.31201471380E+01  1.10690220978E+02  4.75000000000E+00  0.00000000000E+00  1.
      -24    2    4    4    0    0  9.63442147230E+01 -8.67863524679E+01 -1.97884896728E+02  2.50690493763E+02  8.29048407789E+01  0.00000000000E+00  1.
       11    1    7    7    0    0 -1.64125555515E+00 -4.79545669745E+01 -5.25627021796E+01  7.11700208950E+01  5.11003492237E-04  0.00000000000E+00  1.
      -12    1    7    7    0    0  9.79854702781E+01 -3.88317854934E+01 -1.45322194549E+02  1.79520472868E+02  1.90734863281E-06  0.00000000000E+00  1.
       -3    1    5    5    0  703 -3.50666245287E+00 -1.08421268066E+01  1.28749268071E+01  1.71933747570E+01  2.05787140150E-06  0.00000000000E+00  1.
        4    1    5    5  703    0 -9.87282768428E+01 -2.37272230499E+01 -6.67774670060E+01  1.21529765332E+02  2.13248059988E-06  0.00000000000E+00  1.
</event>
<event>
11 117   1.0000000E+00   7.4550000E+01   7.8125000E-03   1.3429423E-01
        5   -1    0    0  502    0  0.00000000000E+00  0.00000000000E+00  2.94450760435E+02  2.94450760435E+02  0.00000000000E+00  0.00000000000E+00  1.
       21   -1    0    0  501  502  0.00000000000E+00  0.00000000000E+00 -2.08244472751E+02  2.08244472751E+02  0.00000000000E+00  0.00000000000E+00  1.
       25    1    1    2    0    0 -8.92030714827E+00  1.07665951456E+02 -3.02976237418E+00  1.65244390049E+02  1.25000000000E+02  0.00000000000E+00  1.
        6    2    1    2  501    0  2.07140362689E+01 -3.24712134288E+01 -2.31504014633E+01  1.79943563614E+02  1.74242055767E+02  0.00000000000E+00  1.
      -24    2    1    2    0    0 -1.17937291206E+01 -7.51947380270E+01  1.12386451522E+02  1.57507279524E+02  7.99029908325E+01  0.00000000000E+00  1.
        5    1    4    4  501    0  1.33933490827E+01  5.52165444335E+01 -1.46185339813E+01  5.88601105553E+01  4.75000000000E+00  0.00000000000E+00  1.
       24    2    4    4    0    0  7.32068718619E+00 -8.76877578623E+01 -8.53186748201E+00  1.21083453059E+02  8.27385913710E+01  0.00000000000E+00  1.
      -15    1    7    7    0    0  4.26155325567E+01 -2.68926621823E+01 -1.65125303945E+00  5.04498022710E+01  1.77680000000E+00  0.00000000000E+00  1.
       16    1    7    7    0    0 -3.52948453705E+01 -6.07950956800E+01 -6.88061444256E+00  7.06336507876E+01  1.24172369575E-06  0.00000000000E+00  1.
        1    1    5    5  704    0 -8.99373492385E+00 -7.37074243305E+01  3.86650374275E+01  8.37177208755E+01  1.16800772800E-06  0.00000000000E+00  1.
       -2    1    5    5    0  704 -2.79999419673E+00 -1.48731369645E+00  7.37214140941E+01  7.37895586487E+01  9.53674316406E-07  0.00000000000E+00  1.
</event>
<event>
11 117   1.0000000E+00   7.4550000E+01   7.8125000E-03   1.3429423E-01
       -5   -1    0    0    0  502  0.00000000000E+00  0.00000000000E+00  6.51298157330E+01  6.51298157330E+01  0.00000000000E+00  0.00000000000E+00  1.
       21   -1    0    0  502  501  0.00000000000E+00  0.00000000000E+00 -3.16420507138E+03  3.16420507138E+03  0.00000000000E+00  0.00000000000E+00  1.
       25    1    1    2    0    0  2.98695783713E+01 -2.34060875048E+02 -3.04626271084E+02  4.05091162549E+02  1.25000000000E+02  0.00000000000E+00  1.
       -6    2    1    2    0  501  7.46128985352E+01  1.05702054997E+02 -1.22016926076E+03  1.23927803551E+03  1.73945437756E+02  0.00000000000E+00  1.
       24    2    1    2    0    0 -1.04482476907E+02  1.28358820052E+02 -1.57427972380E+03  1.58496568906E+03  7.97935590216E+01  0.00000000000E+00  1.
       -5    1    4    4    0  501  3.72222841588E+01  1.10786190091E+02 -5.16277377532E+02  5.29361852994E+02  4.75000000001E+00  0.00000000000E+00  1.
      -24    2    4    4    0    0  3.73906143764E+01 -5.08413509477E+00 -7.03891883232E+02  7.09916182513E+02  8.42217100333E+01  0.00000000000E+00  1.
        3    1    7    7  704    0  4.29208437211E+01  2.47502905610E+01 -5.89166586376E+02  5.91246177332E+02  7.62939453125E-06  0.00000000000E+00  1.
       -4    1    7    7    0  704 -5.53022934475E+00 -2.98344256557E+01 -1.14725296857E+02  1.18670005181E+02  6.74349576174E-06  0.00000000000E+00  1.
      -13    1    5    5    0    0 -5.60071413524E+01  9.77291287709E+01 -1.29322045213E+03  1.29811668638E+03  1.05660001329E-01  0.00000000000E+00  1.
       14    1    5    5    0    0 -4.84753355542E+01  3.06296912809E+01 -2.81059271671E+02  2.86849002678E+02  1.78925161736E-05  0.00000000000E+00  1.
</event>
<event>
11 117   1.0000000E+00   7.4550000E+01   7.8125000E-03   1.3429423E-01
       -5   -1    0    0    0  502  0.00000000000E+00  0.00000000000E+00  2.19032187971E+02  2.19032187971E+02  0.00000000000E+00  0.00000000000E+00  1.
       21   -1    0    0  502  501  0.00000000000E+00  0.00000000000E+00 -1.02678519217E+03  1.02678519217E+03  0.00000000000E+00  0.00000000000E+00  1.
       25    1    1    2    0    0 -7.32701545251E+01  1.82161853485E+02 -4.74953737323E+01  2.37554766181E+02  1.25000000000E+02  0.00000000000E+00  1.
       -6    2    1    2    0  501 -2.42381841358E+00 -6.97922236784E+01 -8.18306807545E+02  8.39417036685E+02  1.73545673589E+02  0.00000000000E+00  1.
       24    2    1    2    0    0  7.56939729387E+01 -1.12369629807E+02  5.80491770816E+01  1.68845577271E+02  8.23566072747E+01  0.00000000000E+00  1.
       -5    1    4    4    0  501 -1.08181831589E+01 -4.11229728471E+01 -4.68197745586E+01  6.34254347432E+01  4.75000000001E+00  0.00000000000E+00  1.
      -24    2    4    4    0    0  8.39436474537E+00 -2.86692508313E+01 -7.71487032986E+02  7.75991601942E+02  7.79636640745E+01  0.00000000000E+00  1.
        1    1    7    7  704    0  3.38500572149E+01 -4.11970367709E+01 -5.74985243373E+02  5.77452207814E+02  7.62939453125E-06  0.00000000000E+00  1.
       -2    1    7    7    0  704 -2.54556924696E+01  1.25277859395E+01 -1.96501789613E+02  1.98539394128E+02  0.00000000000E+00  0.00000000000E+00  1.
       -1    1    5    5    0  703  2.96289009401E+01 -8.14023218324E+01  7.08171425393E+01  1.11889577030E+02  1.65181236989E-06  0.00000000000E+00  1.
        2    1    5    5  703    0  4.60650719986E+01 -3.09673079745E+01 -1.27679654577E+01  5.69560002401E+01  4.12953092472E-07  0.00000000000E+00  1.
</event>
<event>
11 117   1.0000000E+00   7.4550000E+01   7.8125000E-03   1.3429423E-01
        5   -1    0    0  502    0  0.00000000000E+00  0.00000000000E+00  4.59032327493E+02  4.59032327493E+02  0.00000000000E+00  0.00000000000E+00  1.
       21   -1    0    0  501  502  0.00000000000E+00  0.00000000000E+00 -2.21623880415E+02  2.21623880415E+02  0.00000000000E+00  0.00000000000E+00  1.
       25    1    1    2    0    0  6.25193443485E+01  1.50476829969E+02  1.41485547457E+02  2.49389464322E+02  1.25000000000E+02  0.00000000000E+00  1.
        6    2    1    2  501    0  5.86610544305E+01  1.48978017307E+00  1.20361019268E+02  2.19756807039E+02  1.74249650011E+02  0.00000000000E+00  1.
      -24    2    1    2    0    0 -1.21180398779E+02 -1.51966610143E+02 -2.44381196471E+01  2.11509936547E+02  7.97539461066E+01  0.00000000000E+00  1.
        5    1    4    4  501    0  7.73308840999E+01  3.91160981455E+01  3.15434971122E+01  9.23454897647E+01  4.75000000000E+00  0.00000000000E+00  1.
       24    2    4    4    0    0 -1.86698296695E+01 -3.76263179725E+01  8.88175221560E+01  1.27411317274E+02  8.11220634822E+01  0.00000000000E+00  1.
       -1    1    7    7    0  703 -4.28836865357E+01 -3.38836527650E+00  2.14761596629E+01  4.80803184683E+01  9.53674316406E-07  0.00000000000E+00  1.
        2    1    7    7  703    0  2.42138568663E+01 -3.42379526960E+01  6.73413624931E+01  7.93309988061E+01  9.53674316406E-07  0.00000000000E+00  1.
        1    1    5    5  704    0 -1.03067038386E+02 -1.54817857642E+02 -3.65359177666E+01  1.89542229420E+02  9.53674316406E-07  0.00000000000E+00  1.
       -2    1    5    5    0  704 -1.81133603932E+01  2.85124749986E+00  1.20977981195E+01  2.19677071262E+01  3.08104705413E-06  0.00000000000E+00  1.
</event>
<event>
11 117   1.0000000E+00   7.4550000E+01   7.8125000E-03   1.3429423E-01
       -5   -1    0    0    0  502  0.00000000000E+00  0.00000000000E+00  4.43875028296E+02  4.43875028296E+02  0.00000000000E+00  0.00000000000E+00  1.
       21   -1    0    0  502  501  0.00000000000E+00  0.00000000000E+00 -4.56632418778E+02  4.56632418778E+02  0.00000000000E+00  0.00000000000E+00  1.
       25    1    1    2    0    0  2.26227920035E+02  3.06647150978E+01 -7.29553283554E+01  2.70308853889E+02  1.25000000000E+02  0.00000000000E+00  1.
       -6    2    1    2    0  501 -4.59785989300E+00 -4.23019088651E+01 -2.07405536316E+02  2.73368217652E+02  1.72923492094E+02  0.00000000000E+00  1.
       24    2    1    2    0    0 -2.21630060142E+02  1.16371937673E+01  2.67603474191E+02  3.56830375533E+02  8.03802815775E+01  0.00000000000E+00  1.
       -5    1    4    4    0  501 -4.88209581470E+01  1.40132370734E+01 -1.39280091487E+02  1.48328564856E+02  4.75000000000E+00  0.00000000000E+00  1.
      -24    2    4    4    0    0  4.42230982540E+01 -5.63151459384E+01 -6.81254448295E+01  1.25039652795E+02  7.65947808715E+01  0.00000000000E+00  1.
       15    1    7    7    0    0  5.08641078852E+01 -1.23178770176E+01 -6.02963747117E+01  7.98604870183E+01  1.77680000000E+00  0.00000000000E+00  1.
      -16    1    7    7    0    0 -6.64100963125E+00 -4.39972689209E+01 -7.82907011781E+00  4.51791657772E+01  8.88089205369E-07  0.00000000000E+00  1.
      -15    1    5    5    0    0 -2.03297270917E+02  3.04284926907E+01  2.55473372830E+02  3.27910772579E+02  1.77680000000E+00  0.00000000000E+00  1.
       16    1    5    5    0    0 -1.83327892249E+01 -1.87912989234E+01  1.21301013608E+01  2.89196029540E+01  1.16800772800E-06  0.00000000000E+00  1.
</event>
<event>
11 117   1.0000000E+00   7.4550000E+01   7.8125000E-03   1.3429423E-01
       -5   -1    0    0    0  502  0.00000000000E+00  0.00000000000E+00  9.34942543598E+02  9.34942543598E+02  0.00000000000E+00  0.00000000000E+00  1.
       21   -1    0    0  502  501  0.00000000000E+00  0.00000000000E+00 -1.39060262567E+02  1.39060262567E+02  0.00000000000E+00  0.00000000000E+00  1.
       25    1    1    2    0    0 -1.45207255186E+02 -1.94374153447E+02  1.61406356687E+02  3.17085903922E+02  1.25000000000E+02  0.00000000000E+00  1.
       -6    2    1    2    0  501  1.84965467036E+02  1.72850791439E+02  5.56148714477E+02  6.34889011425E+02  1.72316697151E+02  0.00000000000E+00  1.
       24    2    1    2    0    0 -3.97582118502E+01  2.15233620074E+01  7.83272098670E+01  1.22027890817E+02  8.19248668608E+01  0.00000000000E+00  1.
       -5    1    4    4    0  501  1.59772732198E+02  1.49187911148E+02  3.94685802800E+02  4.51202619916E+02  4.75000000000E+00  0.00000000000E+00  1.
      -24    2    4    4    0    0  2.51927348385E+01  2.36628802914E+01  1.61462911677E+02  1.83686391510E+02  8.04724349474E+01  0.00000000000E+00  1.
        1    1    7    7  704    0  4.15086142283E+01  1.10239346888E+01  1.56735780160E+02  1.62513374753E+02  1.90734863281E-06  0.00000000000E+00  1.
       -2    1    7    7    0  704 -1.63158793898E+01  1.26389456027E+01  4.72713151682E+00  2.11730167569E+01  1.03410193759E-06  0.00000000000E+00  1.
       -3    1    5    5    0  703 -5.30386656001E+01  4.09178575563E+01  7.05072415227E+01  9.72555511155E+01  9.53674316406E-07  0.00000000000E+00  1.
        4    1    5    5  703    0  1.32804537499E+01 -1.93944955489E+01  7.81996834430E+00  2.47723397019E+01  1.39785282607E-06  0.00000000000E+00  1.
</event>
<event>
11 117   1.0000000E+00   7.4550000E+01   7.8125000E-03   1.3429423E-01
        5   -1    0    0  502    0  0.00000000000E+00  0.00000000000E+00  2.03932219131E+02  2.03932219131E+02  0.00000000000E+00  0.00000000000E+00  1.
       21   -1    0    0  501  502  0.00000000000E+00  0.00000000000E+00 -1.54817508376E+03  1.54817508376E+03  0.00000000000E+00  0.00000000000E+00  1.
       25    1    1    2    0    0  2.69478590679E+01  2.98272853733E+02 -1.36662546073E+02  3.52128575781E+02  1.25000000000E+02  0.00000000000E+00  1.
        6    2    1    2  501    0 -1.91267236677E+02 -2.52710767634E+02 -1.14976474500E+03  1.20574134451E+03  1.77221141778E+02  0.00000000000E+00  1.
      -24    2    1    2    0    0  1.64319377609E+02 -4.55620860983E+01 -5.78155735566E+01  1.94237382609E+02  7.28612291243E+01  0.00000000000E+00  1.
        5    1    4    4  501    0  7.51465832195E-01 -9.81287820855E+01 -2.30067008236E+02  2.50166371347E+02  4.74999999999E+00  0.00000000000E+00  1.
       24    2    4    4    0    0 -1.92018702510E+02 -1.54581985549E+02 -9.19697736767E+02  9.55574973158E+02  8.07021061789E+01  0.00000000000E+00  1.
       -1    1    7    7    0  703 -2.03157275872E+00 -2.68995150081E+01 -5.75838715459E+01  6.35894130950E+01  8.52992239952E-06  0.00000000000E+00  1.
        2    1    7    7  703    0 -1.89987129751E+02 -1.27682470541E+02 -8.62113865221E+02  8.91985560063E+02  1.07895932188E-05  0.00000000000E+00  1.
        3    1    5    5  704    0  3.09031627463E+01 -4.14060553864E+01 -2.10077813891E+01  5.57744903095E+01  1.93692169300E-06  0.00000000000E+00  1.
       -4    1    5    5    0  704  1.33416214863E+02 -4.15603071184E+00 -3.68077921675E+01  1.38462892299E+02  2.33601545599E-06  0.00000000000E+00  1.
</event>
<event>
11 117   1.0000000E+00   7.4550000E+01   7.8125000E-03   1.3429423E-01
        5   -1    0    0  502    0  0.00000000000E+00  0.00000000000E+00  6.43287357327E+02  6.43287357327E+02  0.00000000000E+00  0.00000000000E+00  1.
       21   -1    0    0  501  502  0.00000000000E+00  0.00000000000E+00 -4.76250361603E+02  4.76250361603E+02  0.00000000000E+00  0.00000000000E+00  1.
       25    1    1    2    0    0 -1.47738919550E+02  9.82589304603E+01  7.70007869513E+00  2.17177109698E+02  1.25000000000E+02  0.00000000000E+00  1.
        6    2    1    2  501    0 -1.44468997421E+02 -1.84087501355E+01 -2.82620815178E+02  3.60772261320E+02  1.70504915087E+02  0.00000000000E+00  1.
      -24    2    1    2    0    0  2.92207916971E+02 -7.98501803248E+01  4.41957732206E+02  5.41588347911E+02  7.89289775535E+01  0.00000000000E+00  1.
        5    1    4    4  501    0 -9.99608549533E+01  4.67208359244E+01 -1.66530662779E+02  1.99825006388E+02  4.75000000000E+00  0.00000000000E+00  1.
       24    2    4    4    0    0 -4.45081424678E+01 -6.51295860599E+01 -1.16090152399E+02  1.60947254932E+02  7.87671102671E+01  0.00000000000E+00  1.
       -1    1    7    7    0  703  1.45323260541E+01 -4.06135265102E+01 -6.96729730867E+01  8.19449218371E+01  0.00000000000E+00  0.00000000000E+00  1.
        2    1    7    7  703    0 -5.90404685219E+01 -2.45160595497E+01 -4.64171793126E+01  7.90023330951E+01  6.74349576174E-07  0.00000000000E+00  1.
        3    1    5    5  704    0  2.15707866196E+02 -8.91669122053E+01  3.00505501684E+02  3.80505162006E+02  3.81469726562E-06  0.00000000000E+00  1.
       -4    1    5    5    0  704  7.65000507754E+01  9.31673188046E+00  1.41452230522E+02  1.61083185905E+02  1.90734863281E-06  0.00000000000E+00  1.
</event>
<event>
11 117   1.0000000E+00   7.4550000E+01   7.8125000E-03   1.3429423E-01
        5   -1    0    0  502    0  0.00000000000E+00  0.00000000000E+00  5.64167598490E+02  5.64167598490E+02  0.00000000000E+00  0.00000000000E+00  1.
       21   -1    0    0  501  502  0.00000000000E+00  0.00000000000E+00 -1.19811509416E+03  1.19811509416E+03  0.00000000000E+00  0.00000000000E+00  1.
       25    1    1    2    0    0 -7.20232332060E+01  1.27142137703E+02 -4.21607974864E+02  4.63390498144E+02  1.25000000000E+02  0.00000000000E+00  1.
        6    2    1    2  501    0  4.45971225823E+02  2.99846345687E+02 -4.03733268981E+02  6.94540829565E+02  1.74894957526E+02  0.00000000000E+00  1.
      -24    2    1    2    0    0 -3.73947992617E+02 -4.26988483389E+02  1.91393748171E+02  6.04351364946E+02  8.03289446221E+01  0.00000000000E+00  1.
        5    1    4    4  501    0  1.67402785166E+02  1.93712473895E+02 -1.75904342802E+02  3.10665600510E+02  4.75000000000E+00  0.00000000000E+00  1.
       24    2    4    4    0    0  2.78568440656E+02  1.06133871792E+02 -2.27828926179E+02  3.83875229055E+02  8.11751009055E+01  0.00000000000E+00  1.
       -1    1    7    7    0  703  1.10841869250E+02  7.61248468391E+01 -6.98856437266E+01  1.51541794513E+02  4.47312904341E-06  0.00000000000E+00  1.
        2    1    7    7  703    0  1.67726571406E+02  3.00090249527E+01 -1.57943282453E+02  2.32333434542E+02  1.90734863281E-06  0.00000000000E+00  1.
        3    1    5    5  704    0 -3.45975668885E+02 -4.03781858819E+02  1.98019219182E+02  5.67406877062E+02  1.42732902022E-05  0.00000000000E+00  1.
       -4    1    5    5    0  704 -2.79723237318E+01 -2.32066245705E+01 -6.62547101116E+00  3.69444878843E+01  5.57741525902E-06  0.00000000000E+00  1.
</event>
<event>
11 117   1.0000000E+00   7.4550000E+01   7.8125000E-03   1.3429423E-01
        5   -1    0    0  502    0  0.00000000000E+00  0.00000000000E+00  1.51924394115E+02  1.51924394115E+02  0.00000000000E+00  0.00000000000E+00  1.
       21   -1    0    0  501  502  0.00000000000E+00  0.00000000000E+00 -7.49314234229E+02  7.49314234229E+02  0.00000000000E+00  0.00000000000E+00  1.
       25    1    1    2    0    0  2.38277558408E+01 -6.17425997901E+01  6.69456219948E+01  1.56482033734E+02  1.25000000000E+02  0.00000000000E+00  1.
        6    2    1    2  501    0  2.92762969034E+01  1.14060419867E+02 -5.44864902428E+02  5.84303034223E+02  1.75115370438E+02  0.00000000000E+00  1.
      -24    2    1    2    0    0 -5.31040527441E+01 -5.23178200774E+01 -1.19470559680E+02  1.60453560388E+02  7.69086191215E+01  0.00000000000E+00  1.
        5    1    4    4  501    0 -2.57486578433E+01  9.23579209403E+01 -1.59522323511E+02  1.86179787140E+02  4.75000000000E+00  0.00000000000E+00  1.
       24    2    4    4    0    0  5.50249547466E+01  2.17024989272E+01 -3.85342578917E+02  3.98123247083E+02  8.07122830610E+01  0.00000000000E+00  1.
       -3    1    7    7    0  703  1.30840637686E+01 -2.21624118233E+01 -4.05322826089E+01  4.80128228290E+01  5.68217052832E-06  0.00000000000E+00  1.
        4    1    7    7  703    0  4.19408909780E+01  4.38649107504E+01 -3.44810296308E+02  3.50110424254E+02  6.60724947956E-06  0.00000000000E+00  1.
        1    1    5    5  704    0  6.75581780741E-01  3.16917296598E-01 -7.08679422595E+01  7.08718709180E+01  1.90734863281E-06  0.00000000000E+00  1.
       -4    1    5    5    0  704 -5.37796345249E+01 -5.26347373740E+01 -4.86026174210E+01  8.95816894696E+01  2.13248059988E-06  0.00000000000E+00  1.
</event>
<event>
11 117   1.0000000E+00   7.4550000E+01   7.8125000E-03   1.3429423E-01
        5   -1    0    0  502    0  0.00000000000E+00  0.00000000000E+00  9.69710267097E+02  9.69710267097E+02  0.00000000000E+00  0.00000000000E+00  1.
       21   -1    0    0  501  502  0.00000000000E+00  0.00000000000E+00 -5.15741008818E+01  5.15741008818E+01  0.00000000000E+00  0.00000000000E+00  1.
       25    1    1    2    0    0 -5.61895988873E+01  8.05915412352E+01  3.53957981947E+02  3.88025154501E+02  1.25000000000E+02  0.00000000000E+00  1.
        6    2    1    2  501    0  5.16970281931E+00 -4.04993423100E+01  4.04267170508E+02  4.42093371218E+02  1.74205858596E+02  0.00000000000E+00  1.
      -24    2    1    2    0    0  5.10198960680E+01 -4.00921989252E+01  1.59911013760E+02  1.91165842259E+02  8.22340119153E+01  0.00000000000E+00  1.
        5    1    4    4  501    0  2.94431503434E+01  4.17497937946E+01  2.01794450785E+02  2.08215050492E+02  4.75000000000E+00  0.00000000000E+00  1.
       24    2    4    4    0    0 -2.42734475241E+01 -8.22491361045E+01  2.02472719723E+02  2.33878320725E+02  7.96852936772E+01  0.00000000000E+00  1.
       -3    1    7    7    0  703 -9.76168094866E+00 -7.22546784704E+01  2.03560614075E+02  2.16224310794E+02  2.69739830470E-06  0.00000000000E+00  1.
        4    1    7    7  703    0 -1.45117665754E+01 -9.99445763411E+00 -1.08789435126E+00  1.76540099314E+01  1.62176396104E-06  0.00000000000E+00  1.
        3    1    5    5  704    0  3.52320452163E+01 -2.79612854996E+01  1.89541013361E+01  4.88097168028E+01  1.45024359949E-06  0.00000000000E+00  1.
       -4    1    5    5    0  704  1.57878508517E+01 -1.21309134257E+01  1.40956912424E+02  1.42356125457E+02  1.90734863281E-06  0.00000000000E+00  1.
</event>
<event>
11 117   1.0000000E+00   7.4550000E+01   7.8125000E-03   1.3429423E-01
        5   -1    0    0  502    0  0.00000000000E+00  0.00000000000E+00  7.65672593986E+01  7.65672593986E+01  0.00000000000E+00  0.00000000000E+00  1.
       21   -1    0    0  501  502  0.00000000000E+00  0.00000000000E+00 -1.89700560611E+03  1.89700560611E+03  0.00000000000E+00  0.00000000000E+00  1.
       25    1    1    2    0    0 -1.14814899180E+02  1.25124187854E+00 -1.56030662024E+03  1.56951131752E+03  1.25000000000E+02  0.00000000000E+00  1.
        6    2    1    2  501    0  4.30662430596E+01 -5.55289774686E+01 -1.37494672755E+02  2.32562720033E+02  1.73903608598E+02  0.00000000000E+00  1.
      -24    2    1    2    0    0  7.17486561199E+01  5.42777355901E+01 -1.22637053721E+02  1.71498827953E+02  7.92342022622E+01  0.00000000000E+00  1.
        5    1    4    4  501    0  5.53738116635E+01  1.21228862639E+01  2.92246453083E+00  5.69589912872E+01  4.75000000000E+00  0.00000000000E+00  1.
       24    2    4    4    0    0 -1.23075686039E+01 -6.76518637325E+01 -1.40417137286E+02  1.75603728746E+02  7.99465208407E+01  0.00000000000E+00  1.
       -1    1    7    7    0  703  3.04142451673E+01 -5.10766581110E+01 -7.41886764080E+01  9.50674025103E+01  1.34869915235E-06  0.00000000000E+00  1.
        2    1    7    7  703    0 -4.27218137712E+01 -1.65752056215E+01 -6.62284608781E+01  8.05363262359E+01  1.34869915235E-06  0.00000000000E+00  1.
        3    1    5    5  704    0  3.30098301523E+00  2.96395617612E+01 -8.39811362679E+01  8.91191974780E+01  1.65181236989E-06  0.00000000000E+00  1.
       -4    1    5    5    0  704  6.84476731047E+01  2.46381738289E+01 -3.86559174527E+01  8.23796304749E+01  2.23656452171E-06  0.00000000000E+00  1.
</event>
<event>
11 117   1.0000000E+00   7.4550000E+01   7.8125000E-03   1.3429423E-01
        5   -1    0    0  502    0  0.00000000000E+00  0.00000000000E+00  8.84161728383E+02  8.84161728383E+02  0.00000000000E+00  0.00000000000E+00  1.
       21   -1    0    0  501  502  0.00000000000E+00  0.00000000000E+00 -5.24718997459E+02  5.24718997459E+02  0.00000000000E+00  0.00000000000E+00  1.
       25    1    1    2    0    0 -3.99439131567E+02  2.75817886308E+02  1.73877448325E+02  5.30552064618E+02  1.25000000000E+02  0.00000000000E+00  1.
        6    2    1    2  501    0 -1.26835536723E+02  1.68564397976E+01 -6.16839953610E+01  2.22763078661E+02  1.71601518036E+02  0.00000000000E+00  1.
      -24    2    1    2    0    0  5.26274668290E+02 -2.92674326106E+02  2.47249277960E+02  6.55565582564E+02  7.75289619757E+01  0.00000000000E+00  1.
        5    1    4    4  501    0 -1.11140979274E+01  6.22751531178E+01 -3.19836249318E+00  6.35177919266E+01  4.75000000000E+00  0.00000000000E+00  1.
       24    2    4    4    0    0 -1.15721438796E+02 -4.54187133202E+01 -5.84856328678E+01  1.59245286734E+02  8.05244135556E+01  0.00000000000E+00  1.
       -3    1    7    7    0  703 -5.13097502819E+01  8.02381591359E+00 -5.47550840854E+01  7.54664914317E+01  0.00000000000E+00  0.00000000000E+00  1.
        4    1    7    7  703    0 -6.44116885140E+01 -5.34425292338E+01 -3.73054878238E+00  8.37787953026E+01  4.06449487716E-07  0.00000000000E+00  1.
        3    1    5    5  704    0  2.36305405935E+02 -1.47019823410E+02  1.53337407738E+02  3.17753731625E+02  1.90734863281E-06  0.00000000000E+00  1.
       -4    1    5    5    0  704  2.89969262355E+02 -1.45654502696E+02  9.39118702225E+01  3.37811850939E+02  4.04609745705E-06  0.00000000000E+00  1.
</event>
<event>
11 117   1.0000000E+00   7.4550000E+01   7.8125000E-03   1.3429423E-01
        5   -1    0    0  502    0  0.00000000000E+00  0.00000000000E+00  8.73103668744E+02  8.73103668744E+02  0.00000000000E+00  0.00000000000E+00  1.
       21   -1    0    0  501  502  0.00000000000E+00  0.00000000000E+00 -4.24495200330E+02  4.24495200330E+02  0.00000000000E+00  0.00000000000E+00  1.
       25    1    1    2    0    0  1.37906401491E+02  2.30913546238E+02  2.08748305476E+02  3.62684568803E+02  1.25000000000E+02  0.00000000000E+00  1.
        6    2    1    2  501    0  3.38096980792E+01 -1.92429764934E+02 -2.77576943627E+02  3.80798188190E+02  1.72586182468E+02  0.00000000000E+00  1.
      -24    2    1    2    0    0 -1.71716099570E+02 -3.84837813035E+01  5.17437106564E+02  5.54116112082E+02  9.13021694391E+01  0.00000000000E+00  1.
        5    1    4    4  501    0  2.65082811849E+01 -1.58521877725E+02 -1.19380029328E+02  2.00264896053E+02  4.75000000000E+00  0.00000000000E+00  1.
       24    2    4    4    0    0  7.30141689426E+00 -3.39078872096E+01 -1.58196914298E+02  1.80533292137E+02  7.97681037293E+01  0.00000000000E+00  1.
      -11    1    7    7    0    0 -1.59960584934E+01 -9.05729170426E+00  3.32729658035E-01  1.83852965607E+01  5.10995252528E-04  0.00000000000E+00  1.
       12    1    7    7    0    0  2.32974753876E+01 -2.48505955053E+01 -1.58529643956E+02  1.62147995576E+02  3.30362473978E-06  0.00000000000E+00  1.
        3    1    5    5  704    0 -6.15413601977E+01 -5.90408106973E+01  2.49924499325E+02  2.64074632833E+02  6.03156597170E-06  0.00000000000E+00  1.
       -4    1    5    5    0  704 -1.10174739372E+02  2.05570293938E+01  2.67512607239E+02  2.90041479249E+02  3.81469726562E-06  0.00000000000E+00  1.
</event>
<event>
11 117   1.0000000E+00   7.4550000E+01   7.8125000E-03   1.3429423E-01
        5   -1    0    0  502    0  0.00000000000E+00  0.00000000000E+00  7.04376205512E+02  7.04376205512E+02  0.00000000000E+00  0.00000000000E+00  1.
       21   -1    0    0  501  502  0.00000000000E+00  0.00000000000E+00 -2.23903583469E+03  2.23903583469E+03  0.00000000000E+00  0.00000000000E+00  1.
       25    1    1    2    0    0 -7.49946659877E+02 -4.07629527250E+02  2.70275679181E+02  9.04021994702E+02  1.25000000000E+02  0.00000000000E+00  1.
        6    2    1    2  501    0  3.03621349617E+02  2.94358945658E+02 -1.12666614885E+03  1.21586510155E+03  1.73546020946E+02  0.00000000000E+00  1.
      -24    2    1    2    0    0  4.46325310260E+02  1.13270581592E+02 -6.78269159517E+02  8.23524943953E+02  7.81522445432E+01  0.00000000000E+00  1.
        5    1    4    4  501    0  4.02427124345E+01  2.39325077794E+00 -2.28822021948E+02  2.32394672447E+02  4.75000000000E+00  0.00000000000E+00  1.
       24    2    4    4    0    0  2.63378637183E+02  2.91965694880E+02 -8.97844126897E+02  9.83470429105E+02  8.04843786651E+01  0.00000000000E+00  1.
      -15    1    7    7    0    0  1.60928944606E+02  1.21015918102E+02 -4.22168833126E+02  4.67731395490E+02  1.77680000003E+00  0.00000000000E+00  1.
       16    1    7    7    0    0  1.02449692577E+02  1.70949776778E+02 -4.75675293771E+02  5.15739033615E+02  5.39479660939E-06  0.00000000000E+00  1.
       15    1    5    5    0    0  1.59334877079E+01  1.55802107702E+01 -5.88982214368E+01  6.29982262040E+01  1.77680000003E+00  0.00000000000E+00  1.
      -16    1    5    5    0    0  4.30391822552E+02  9.76903708219E+01 -6.19370938080E+02  7.60526717749E+02  0.00000000000E+00  0.00000000000E+00  1.
</event>
<event>
11 117   1.0000000E+00   7.4550000E+01   7.8125000E-03   1.3429423E-01
        5   -1    0    0  502    0  0.00000000000E+00  0.00000000000E+00  4.14149754759E+02  4.14149754759E+02  0.00000000000E+00  0.00000000000E+00  1.
       21   -1    0    0  501  502  0.00000000000E+00  0.00000000000E+00 -1.35113010495E+03  1.35113010495E+03  0.00000000000E+00  0.00000000000E+00  1.
       25    1    1    2    0    0  8.13463696242E+01 -4.20878523934E+02  1.83610785817E+02  4.82797974756E+02  1.25000000000E+02  0.00000000000E+00  1.
        6    2    1    2  501    0 -1.07032763649E+02  3.70523130419E+02 -1.10228607746E+03  1.18043394313E+03  1.72180994463E+02  0.00000000000E+00  1.
      -24    2    1    2    0    0  2.56863940245E+01  5.03553935143E+01 -1.83050585431E+01  1.02047941822E+02  8.29653588422E+01  0.00000000000E+00  1.
        5    1    4    4  501    0 -5.40769510748E+01  6.35055105421E+01 -3.98392684647E+02  4.07058423555E+02  4.75000000000E+00  0.00000000000E+00  1.
       24    2    4    4    0    0 -5.29558125739E+01  3.07017619877E+02 -7.03893392817E+02  7.73375519576E+02  7.46970469783E+01  0.00000000000E+00  1.
      -15    1    7    7    0    0  5.74872781081E+00  2.57170998652E+01 -1.16530307969E+02  1.19485927165E+02  1.77679999998E+00  0.00000000000E+00  1.
       16    1    7    7    0    0 -5.87045403847E+01  2.81300520012E+02 -5.87363084847E+02  6.53889592410E+02  1.07895932188E-05  0.00000000000E+00  1.
        1    1    5    5  704    0  1.64255169344E+01 -2.18745710440E+01 -8.00285891722E+00  2.85015826889E+01  9.15663927539E-07  0.00000000000E+00  1.
       -2    1    5    5    0  704  9.26087709005E+00  7.22299645582E+01 -1.03021996259E+01  7.35463591328E+01  1.39530896076E-06  0.00000000000E+00  1.
</event>
<event>
11 117   1.0000000E+00   7.4550000E+01   7.8125000E-03   1.3429423E-01
        5   -1    0    0  502    0  0.00000000000E+00  0.00000000000E+00  1.16109557022E+03  1.16109557022E+03  0.00000000000E+00  0.00000000000E+00  1.
       21   -1    0    0  501  502  0.00000000000E+00  0.00000000000E+00 -1.68147959433E+02  1.68147959433E+02  0.00000000000E+00  0.00000000000E+00  1.
       25    1    1    2    0    0 -2.23295041821E+02  2.45235936711E+02  5.78072036364E+02  6.78080835581E+02  1.25000000000E+02  0.00000000000E+00  1.
        6    2    1    2  501    0  1.05959967793E+02 -5.57954506227E+01  4.38362814968E+01  2.11635949284E+02  1.68900883269E+02  0.00000000000E+00  1.
      -24    2    1    2    0    0  1.17335074028E+02 -1.89440486089E+02  3.71039292930E+02  4.39526744793E+02  7.65400883412E+01  0.00000000000E+00  1.
        5    1    4    4  501    0  8.90960787625E+01 -6.73740503159E+01 -1.13609557457E+01  1.12378857986E+02  4.75000000000E+00  0.00000000000E+00  1.
       24    2    4    4    0    0  1.68638890305E+01  1.15785996932E+01  5.51972372425E+01  9.92570912979E+01  7.99173351009E+01  0.00000000000E+00  1.
      -13    1    7    7    0    0  3.59052077022E+01  5.36202945723E+00  6.68588742081E+01  7.60792713191E+01  1.05659999995E-01  0.00000000000E+00  1.
       14    1    7    7    0    0 -1.90413186716E+01  6.21657023596E+00 -1.16616369656E+01  2.31778199788E+01  1.21570098724E-06  0.00000000000E+00  1.
        1    1    5    5  704    0 -1.02730282202E+01 -5.54232562585E+00  2.13915902981E+01  2.43690914406E+01  3.41363455374E-06  0.00000000000E+00  1.
       -2    1    5    5    0  704  1.27608102248E+02 -1.83898160463E+02  3.49647702632E+02  4.15157653352E+02  3.81469726562E-06  0.00000000000E+00  1.
</event>
<event>
11 117   1.0000000E+00   7.4550000E+01   7.8125000E-03   1.3429423E-01
        5   -1    0    0  502    0  0.00000000000E+00  0.00000000000E+00  3.39486813800E+02  3.39486813800E+02  0.00000000000E+00  0.00000000000E+00  1.
       21   -1    0    0  501  502  0.00000000000E+00  0.00000000000E+00 -8.42366748108E+02  8.42366748108E+02  0.00000000000E+00  0.00000000000E+00  1.
       25    1    1    2    0    0 -1.60826344957E+02 -1.51117644688E+01  3.69829566015E+01  2.07572198853E+02  1.25000000000E+02  0.00000000000E+00  1.
        6    2    1    2  501    0  2.03388785923E+02  3.24780138321E+02 -4.93181785095E+02  6.48127736178E+02  1.73182426267E+02  0.00000000000E+00  1.
      -24    2    1    2    0    0 -4.25624409661E+01 -3.09668373852E+02 -4.66811058139E+01  3.26153626877E+02  8.05667396637E+01  0.00000000000E+00  1.
        5    1    4    4  501    0  5.34483915479E+01  1.94895423586E+02 -1.94705266515E+02  2.80666456853E+02  4.75000000000E+00  0.00000000000E+00  1.
       24    2    4    4    0    0  1.49940394375E+02  1.29884714734E+02 -2.98476518580E+02  3.67461279325E+02  8.11627911843E+01  0.00000000000E+00  1.
      -11    1    7    7    0    0  1.62912706156E+01 -2.97613906740E+00 -6.67756144145E+01  6.87985870692E+01  5.10986138689E-04  0.00000000000E+00  1.
       12    1    7    7    0    0  1.33649123759E+02  1.32860853802E+02 -2.31700904165E+02  2.98662692256E+02  6.03156597170E-06  0.00000000000E+00  1.
        3    1    5    5  704    0 -3.72148196534E+01 -3.13007296732E+02 -4.13793729477E+01  3.17916283186E+02  7.10471364296E-06  0.00000000000E+00  1.
       -4    1    5    5    0  704 -5.34762131269E+00  3.33892287998E+00 -5.30173286618E+00  8.23734369118E+00  5.87370432818E-06  0.00000000000E+00  1.
</event>
</LesHouchesEvents>
