<LesHouchesEvents version="1.0">
<!--
Output from the JHUGenerator v7.5.0 described in arXiv:1001.3396 [hep-ph], arXiv:1208.4018 [hep-ph], arXiv:1309.4819 [hep-ph], arXiv:1606.03107 [hep-ph]
   
   Command line: ./JHUGen Seed=765543533 VegasNc0=100000 ReadLHE=compare_to_reference/VBF.lhe DataFile=compare_to_reference/VBF_ZZ DecayMode1=9 DecayMode2=9 ghg2=0.383432074687728,0.918260989345657 ghg3=6294.49296087723,2253.12941717723 ghg4=0.335495485382528,0.17285803562226 ghz1=0.154934976270359,0.453918144016304 ghz2=0.469297059144414,0.745302300947002 ghz3=3947.40921062637,3597.4885961919 ghz4=0.177791270766536,0.920170534486048 ghzgs2=0.0240331049939919,0.232175381101053 ghzgs3=0.331962910170583,0.0450183240308457 ghzgs4=0.808286540247172,0.133184346613754 ghgsgs2=0.530394804029869,0.211218112389125 ghgsgs3=0.914978695198138,0.055650585081425 ghgsgs4=0.694524307167701,0.511424456076726 ghz1_prime=0.143354267833606,0.0910761280837012 ghz1_prime2=7416.7007267243,4861.35525489789 ghz1_prime3=4431.44656075298,4436.48625894176 ghz1_prime4=2441.69123517064,6946.16318931911 ghz1_prime5=78314042.889773,69465359.939181 ghz1_prime6=51233058.8130761,29537873.5850789 ghz1_prime7=47832192.9001564,59559649.963
   
   Input Parameter:
    Collider: P-P, sqrt(s)=13000.00
    Resonance: spin=0, mass= 125.00 width=   0.00407
               (This is ReadLHEFile mode. Resonance mass/width are read from LHE input parameters.)
    DecayMode1: 9  DecayMode2: 9
    Z boson: mass=91.188, width=2.4952
      m(gammastar) >=     4.00 GeV
    Random seed:   765543533
    To reproduce results using this seed, JHUGen should be compiled with the same compiler:
      GNU Fortran (GCC) 6.3.0
    Interference: T
    Intermediate off-shell photons: T
    
    Spin-0-VV couplings: 
      generate_as=F
      kappa_top=  0.10000000E+01  0.00000000E+00i
      kappa_bot=  0.10000000E+01  0.00000000E+00i
      ghg2=  0.38343207E+00  0.91826099E+00i
      ghg3=  0.62944930E+04  0.22531294E+04i
      ghg4=  0.33549549E+00  0.17285804E+00i
      ghz1=  0.15493498E+00  0.45391814E+00i
      ghz2=  0.46929706E+00  0.74530230E+00i
      ghz3=  0.39474092E+04  0.35974886E+04i
      ghz4=  0.17779127E+00  0.92017053E+00i
      ghz1_prime=   0.14335427E+00  0.91076128E-01i,    Lambda_z1=  1.0000E+04
      ghz1_prime2=  0.74167007E+04  0.48613553E+04i,    Lambda_z1=  1.0000E+04
      ghz1_prime3=  0.44314466E+04  0.44364863E+04i,    Lambda_z1=  1.0000E+04
      ghz1_prime4=  0.24416912E+04  0.69461632E+04i,    Lambda_z1=  1.0000E+04
      ghz1_prime5=  0.78314043E+08  0.69465360E+08i,    Lambda_z1=  1.0000E+04
      ghz1_prime6=  0.51233059E+08  0.29537874E+08i,    Lambda_z1=  1.0000E+04
      ghz1_prime7=  0.47832193E+08  0.59559650E+08i,    Lambda_z1=  1.0000E+04
      ghz2_prime=   0.57465793E+00  0.41992191E+00i,    Lambda_z2=  1.0000E+04
      ghz2_prime2=  0.43854587E+04  0.61761246E+04i,    Lambda_z2=  1.0000E+04
      ghz2_prime3=  0.45921696E+04  0.75499391E+04i,    Lambda_z2=  1.0000E+04
      ghz2_prime4=  0.84715906E+04  0.71997238E+04i,    Lambda_z2=  1.0000E+04
      ghz2_prime5=  0.19558280E+08  0.94843889E+08i,    Lambda_z2=  1.0000E+04
      ghz2_prime6=  0.23209661E+08  0.67617823E+08i,    Lambda_z2=  1.0000E+04
      ghz2_prime7=  0.70059904E+07  0.53660191E+08i,    Lambda_z2=  1.0000E+04
      ghz3_prime=   0.40457065E+04  0.19693161E+04i,    Lambda_z3=  1.0000E+04
      ghz3_prime2=  0.33402456E+08  0.37615919E+07i,    Lambda_z3=  1.0000E+04
      ghz3_prime3=  0.44855080E+08  0.12184926E+08i,    Lambda_z3=  1.0000E+04
      ghz3_prime4=  0.27878602E+08  0.78237524E+08i,    Lambda_z3=  1.0000E+04
      ghz3_prime5=  0.93246434E+12  0.63158085E+12i,    Lambda_z3=  1.0000E+04
      ghz3_prime6=  0.35811562E+12  0.41077746E+12i,    Lambda_z3=  1.0000E+04
      ghz3_prime7=  0.62298148E+12  0.61827857E+12i,    Lambda_z3=  1.0000E+04
      ghz4_prime=   0.41653395E+00  0.33115593E+00i,    Lambda_z4=  1.0000E+04
      ghz4_prime2=  0.75883756E+04  0.39234327E+04i,    Lambda_z4=  1.0000E+04
      ghz4_prime3=  0.89560755E+04  0.93020315E+04i,    Lambda_z4=  1.0000E+04
      ghz4_prime4=  0.32034411E+04  0.28637675E+04i,    Lambda_z4=  1.0000E+04
      ghz4_prime5=  0.49012574E+08  0.74595801E+08i,    Lambda_z4=  1.0000E+04
      ghz4_prime6=  0.73323810E+08  0.53968832E+08i,    Lambda_z4=  1.0000E+04
      ghz4_prime7=  0.68563876E+08  0.43025214E+08i,    Lambda_z4=  1.0000E+04
      ghzgs2=  0.24033105E-01  0.23217538E+00i
      ghzgs3=  0.33196291E+00  0.45018324E-01i
      ghzgs4=  0.80828654E+00  0.13318435E+00i
      ghzgs1_prime2=  0.56689643E+04  0.70176759E+04i,  Lambda_zgs1=  1.0000E+04
      ghgsgs2=  0.53039480E+00  0.21121811E+00i
      ghgsgs3=  0.91497870E+00  0.55650585E-01i
      ghgsgs4=  0.69452431E+00  0.51142446E+00i
      Lambda=  1000.0
      Lambda_Q=  10000.0
      Lambda_z11=   1.3888E+02
      Lambda_z21=   1.5452E+02
      Lambda_z31=   1.1998E+02
      Lambda_z41=   1.8136E+02
      Lambda_z12=   1.3667E+02
      Lambda_z22=   1.6659E+02
      Lambda_z32=   1.3884E+02
      Lambda_z42=   4.9064E+01
      Lambda_z10=   9.6973E+00
      Lambda_z20=   1.9326E+02
      Lambda_z30=   8.9204E+01
      Lambda_z40=   1.6167E+02
    
    LHE output: compare_to_reference/VBF_ZZ.lhe
    Histogram output: compare_to_reference/VBF_ZZ.dat
    Log file: compare_to_reference/VBF_ZZ.log
    LHE input: compare_to_reference/VBF.lhe
    

Output from the JHUGenerator v7.5.0 described in arXiv:1001.3396 [hep-ph], arXiv:1208.4018 [hep-ph], arXiv:1309.4819 [hep-ph], arXiv:1606.03107 [hep-ph]

   Command line: ./JHUGen Seed=765543533 PDFSet=3 Process=60 VegasNc0=5000000 VegasNc2=100 DataFile=compare_to_reference/VBF ghg2=0.383432074687728,0.9182609893

   Input Parameter:
    Collider: P-P, sqrt(s)=13000.00
    Resonance: spin=0, mass= 125.00 width=   0.00407
    Z boson: mass=91.188, width=2.4952
    W boson: mass=80.399, width=2.0850
    Jet cuts:
            pT >=    15.00 GeV
        DeltaR >=     0.30
           mJJ >=     0.00 GeV
    Random seed:   765543533
    To reproduce results using this seed, JHUGen should be compiled with the same compiler:
      GNU Fortran (GCC) 6.3.0

    WidthScheme:   2
    PDFSet:   3
    Unweighted: T
    Intermediate off-shell photons: T

    Spin-0-VV couplings:
      generate_as=F
      kappa_top=  0.10000000E+01  0.00000000E+00i
      kappa_bot=  0.10000000E+01  0.00000000E+00i
      ghg2=  0.38343207E+00  0.91826099E+00i
      ghg3=  0.62944930E+04  0.22531294E+04i
      ghg4=  0.33549549E+00  0.17285804E+00i
      ghz1=  0.15493498E+00  0.45391814E+00i
      ghz2=  0.46929706E+00  0.74530230E+00i
      ghz3=  0.39474092E+04  0.35974886E+04i
      ghz4=  0.17779127E+00  0.92017053E+00i
      ghz1_prime=   0.14335427E+00  0.91076128E-01i,    Lambda_z1=  1.0000E+04
      ghz1_prime2=  0.74167007E+04  0.48613553E+04i,    Lambda_z1=  1.0000E+04
      ghz1_prime3=  0.44314466E+04  0.44364863E+04i,    Lambda_z1=  1.0000E+04
      ghz1_prime4=  0.24416912E+04  0.69461632E+04i,    Lambda_z1=  1.0000E+04
      ghz1_prime5=  0.78314043E+08  0.69465360E+08i,    Lambda_z1=  1.0000E+04
      ghz1_prime6=  0.51233059E+08  0.29537874E+08i,    Lambda_z1=  1.0000E+04
      ghz1_prime7=  0.47832193E+08  0.59559650E+08i,    Lambda_z1=  1.0000E+04
      ghz2_prime=   0.57465793E+00  0.41992191E+00i,    Lambda_z2=  1.0000E+04
      ghz2_prime2=  0.43854587E+04  0.61761246E+04i,    Lambda_z2=  1.0000E+04
      ghz2_prime3=  0.45921696E+04  0.75499391E+04i,    Lambda_z2=  1.0000E+04
      ghz2_prime4=  0.84715906E+04  0.71997238E+04i,    Lambda_z2=  1.0000E+04
      ghz2_prime5=  0.19558280E+08  0.94843889E+08i,    Lambda_z2=  1.0000E+04
      ghz2_prime6=  0.23209661E+08  0.67617823E+08i,    Lambda_z2=  1.0000E+04
      ghz2_prime7=  0.70059904E+07  0.53660191E+08i,    Lambda_z2=  1.0000E+04
      ghz3_prime=   0.40457065E+04  0.19693161E+04i,    Lambda_z3=  1.0000E+04
      ghz3_prime2=  0.33402456E+08  0.37615919E+07i,    Lambda_z3=  1.0000E+04
      ghz3_prime3=  0.44855080E+08  0.12184926E+08i,    Lambda_z3=  1.0000E+04
      ghz3_prime4=  0.27878602E+08  0.78237524E+08i,    Lambda_z3=  1.0000E+04
      ghz3_prime5=  0.93246434E+12  0.63158085E+12i,    Lambda_z3=  1.0000E+04
      ghz3_prime6=  0.35811562E+12  0.41077746E+12i,    Lambda_z3=  1.0000E+04
      ghz3_prime7=  0.62298148E+12  0.61827857E+12i,    Lambda_z3=  1.0000E+04
      ghz4_prime=   0.41653395E+00  0.33115593E+00i,    Lambda_z4=  1.0000E+04
      ghz4_prime2=  0.75883756E+04  0.39234327E+04i,    Lambda_z4=  1.0000E+04
      ghz4_prime3=  0.89560755E+04  0.93020315E+04i,    Lambda_z4=  1.0000E+04
      ghz4_prime4=  0.32034411E+04  0.28637675E+04i,    Lambda_z4=  1.0000E+04
      ghz4_prime5=  0.49012574E+08  0.74595801E+08i,    Lambda_z4=  1.0000E+04
      ghz4_prime6=  0.73323810E+08  0.53968832E+08i,    Lambda_z4=  1.0000E+04
      ghz4_prime7=  0.68563876E+08  0.43025214E+08i,    Lambda_z4=  1.0000E+04
      ghzgs2=  0.24033105E-01  0.23217538E+00i
      ghzgs3=  0.33196291E+00  0.45018324E-01i
      ghzgs4=  0.80828654E+00  0.13318435E+00i
      ghzgs1_prime2=  0.56689643E+04  0.70176759E+04i,  Lambda_zgs1=  1.0000E+04
      ghgsgs2=  0.53039480E+00  0.21121811E+00i
      ghgsgs3=  0.91497870E+00  0.55650585E-01i
      ghgsgs4=  0.69452431E+00  0.51142446E+00i
      Lambda=  1000.0
      Lambda_Q=  10000.0
      Lambda_z11=   1.3888E+02
      Lambda_z21=   1.5452E+02
      Lambda_z31=   1.1998E+02
      Lambda_z41=   1.8136E+02
      Lambda_z12=   1.3667E+02
      Lambda_z22=   1.6659E+02
      Lambda_z32=   1.3884E+02
      Lambda_z42=   4.9064E+01
      Lambda_z10=   9.6973E+00
      Lambda_z20=   1.9326E+02
      Lambda_z30=   8.9204E+01
      Lambda_z40=   1.6167E+02

    LHE output: compare_to_reference/VBF.lhe
    Histogram output: compare_to_reference/VBF.dat
    Log file: compare_to_reference/VBF.log

-->
<init>
2212 2212   6500.0000000000000000    6500.0000000000000000 0 0  263000  263000  3  1
 1.1454031E+16  4.8368384E+13  1.0000000E+00  60
</init>
<event>
11  60   1.0000000E+00   1.2500000E+02   7.8125000E-03   1.2380861E-01
        2   -1    0    0  501    0  0.00000000000E+00  0.00000000000E+00  3.88456101404E+03  3.88456101404E+03  0.00000000000E+00  0.00000000000E+00  1.
        2   -1    0    0  502    0  0.00000000000E+00  0.00000000000E+00 -4.81861700526E+03  4.81861700526E+03  0.00000000000E+00  0.00000000000E+00  1.
        2    1    1    2  501    0  5.52232011370E+00  2.55614241744E+01  5.96929075210E+02  5.97501634522E+02  0.00000000000E+00  0.00000000000E+00  1.
        2    1    1    2  502    0  2.68642278243E+02 -1.61237950673E+03  2.93340317682E+03  3.35809329012E+03  0.00000000000E+00  0.00000000000E+00  1.
       25    2    1    2    0    0 -2.74164598357E+02  1.58681808255E+03 -4.46438824326E+03  4.74758309466E+03  1.25000000000E+02  0.00000000000E+00  1.
       23    2    5    5    0    0 -2.35985860165E+02  1.35593551722E+03 -3.73572940649E+03  3.98225696990E+03  9.19017017763E+01  0.00000000000E+00  1.
       23    2    5    5    0    0 -3.81787381923E+01  2.30882565334E+02 -7.28658836773E+02  7.65326124759E+02  4.00022571733E+00  0.00000000000E+00  1.
       -5    1    6    6    0  803 -2.41371582895E+02  1.28047909636E+03 -3.55464146117E+03  3.78594577843E+03  4.75000000008E+00  0.00000000000E+00  1.
        5    1    6    6  803    0  5.38572273009E+00  7.54564208529E+01 -1.81087945319E+02  1.96311191471E+02  4.75000000000E+00  0.00000000000E+00  1.
       -4    1    7    7    0  804 -3.08871717917E+01  1.88664948548E+02 -5.92511213719E+02  6.22591073017E+02  1.27500000001E+00  0.00000000000E+00  1.
        4    1    7    7  804    0 -7.29156640061E+00  4.22176167862E+01 -1.36147623054E+02  1.42735051742E+02  1.27500000000E+00  0.00000000000E+00  1.
</event>
<event>
11  60   1.0000000E+00   1.2500000E+02   7.8125000E-03   1.2380861E-01
        1   -1    0    0  501    0  0.00000000000E+00  0.00000000000E+00  1.87455570296E+03  1.87455570296E+03  0.00000000000E+00  0.00000000000E+00  1.
        2   -1    0    0  502    0  0.00000000000E+00  0.00000000000E+00 -2.88138715873E+03  2.88138715873E+03  0.00000000000E+00  0.00000000000E+00  1.
        2    1    1    2  501    0 -8.56035279136E+02 -7.30103524613E+02 -1.52699156591E+03  1.89672106493E+03  0.00000000000E+00  0.00000000000E+00  1.
        1    1    1    2  502    0 -3.96743613867E+01 -1.24250646495E+01 -9.66438634756E+02  9.67332451607E+02  0.00000000000E+00  0.00000000000E+00  1.
       25    2    1    2    0    0  8.95709640523E+02  7.42528589263E+02  1.48659874490E+03  1.89188934516E+03  1.25000000000E+02  0.00000000000E+00  1.
       23    2    5    5    0    0  8.36046518004E+02  6.72041415775E+02  1.38209723023E+03  1.75143580522E+03  8.19828103809E+01  0.00000000000E+00  1.
       23    2    5    5    0    0  5.96631225188E+01  7.04871734881E+01  1.04501514669E+02  1.40453539943E+02  1.66883342353E+01  0.00000000000E+00  1.
      -13    1    6    6    0    0  2.03334270882E+02  2.09927562051E+02  3.69103053129E+02  4.70798770195E+02  1.05659999907E-01  0.00000000000E+00  1.
       13    1    6    6    0    0  6.32712247122E+02  4.62113853723E+02  1.01299417710E+03  1.28063703502E+03  1.05659998983E-01  0.00000000000E+00  1.
       -2    1    7    7    0  803  2.38914151270E+01  1.73034932579E+01  3.77989561863E+01  4.79475931040E+01  0.00000000000E+00  0.00000000000E+00  1.
        2    1    7    7  803    0  3.57717073918E+01  5.31836802302E+01  6.67025584823E+01  9.25059468393E+01  2.78775199262E-06  0.00000000000E+00  1.
</event>
<event>
11  60   1.0000000E+00   1.2500000E+02   7.8125000E-03   1.2380861E-01
        1   -1    0    0  501    0  0.00000000000E+00  0.00000000000E+00  2.79184065080E+03  2.79184065080E+03  0.00000000000E+00  0.00000000000E+00  1.
        2   -1    0    0  502    0  0.00000000000E+00  0.00000000000E+00 -4.08165955518E+03  4.08165955518E+03  0.00000000000E+00  0.00000000000E+00  1.
        2    1    1    2  502    0  1.06773911813E+02  5.98636091330E+01 -2.17369555103E+03  2.17713956110E+03  0.00000000000E+00  0.00000000000E+00  1.
        1    1    1    2  501    0 -1.98443965828E+03 -5.64262362950E+02 -7.07223923192E+02  2.18095356418E+03  0.00000000000E+00  0.00000000000E+00  1.
       25    2    1    2    0    0  1.87766574646E+03  5.04398753817E+02  1.59110056984E+03  2.51540708070E+03  1.25000000000E+02  0.00000000000E+00  1.
       23    2    5    5    0    0  1.25605034007E+03  3.33940969444E+02  1.10934903663E+03  1.71055400418E+03  7.84900521280E+01  0.00000000000E+00  1.
       23    2    5    5    0    0  6.21615406389E+02  1.70457784373E+02  4.81751533205E+02  8.04853076516E+02  1.55680865095E+01  0.00000000000E+00  1.
       -1    1    6    6    0  804  1.47501290516E+02  5.17506670531E+01  1.64125267101E+02  2.26653624602E+02  4.71216091539E-06  0.00000000000E+00  1.
        1    1    6    6  804    0  1.10854904955E+03  2.82190302390E+02  9.45223769534E+02  1.48390037958E+03  3.57627868652E-05  0.00000000000E+00  1.
      -16    1    7    7    0    0  5.69840950535E+02  1.53281453665E+02  4.36871417395E+02  7.34214238680E+02  1.46000966000E-05  0.00000000000E+00  1.
       16    1    7    7    0    0  5.17744558536E+01  1.71763307083E+01  4.48801158108E+01  7.06388378353E+01  0.00000000000E+00  0.00000000000E+00  1.
</event>
<event>
11  60   1.0000000E+00   1.2500000E+02   7.8125000E-03   1.2380861E-01
        2   -1    0    0  501    0  0.00000000000E+00  0.00000000000E+00  2.42237259323E+03  2.42237259323E+03  0.00000000000E+00  0.00000000000E+00  1.
        3   -1    0    0  502    0  0.00000000000E+00  0.00000000000E+00 -3.70110916875E+03  3.70110916875E+03  0.00000000000E+00  0.00000000000E+00  1.
        4    1    1    2  502    0 -3.66943841348E+00  1.50737306427E+01 -4.12026783449E+02  4.12318750984E+02  0.00000000000E+00  0.00000000000E+00  1.
        1    1    1    2  501    0  2.44281968717E+02 -1.32668070764E+02 -3.27400918050E+03  3.28578919154E+03  0.00000000000E+00  0.00000000000E+00  1.
       25    2    1    2    0    0 -2.40612530304E+02  1.17594340121E+02  2.40729938843E+03  2.42537381946E+03  1.25000000000E+02  0.00000000000E+00  1.
       23    2    5    5    0    0 -1.80134213423E+02  9.90542188724E+01  1.67433613697E+03  1.68930861466E+03  9.00112373913E+01  0.00000000000E+00  1.
       23    2    5    5    0    0 -6.04783168811E+01  1.85401212486E+01  7.32963251456E+02  7.36065204802E+02  2.35689377675E+01  0.00000000000E+00  1.
      -12    1    6    6    0    0 -7.40594903519E+01  8.54540097989E+01  1.02583283989E+03  1.03204661295E+03  1.19209289551E-05  0.00000000000E+00  1.
       12    1    6    6    0    0 -1.06074723071E+02  1.36002090735E+01  6.48503297086E+02  6.57262001711E+02  8.42936970218E-06  0.00000000000E+00  1.
       -2    1    7    7    0  804 -4.67165876815E+01  6.76671244764E+00  6.03204303602E+02  6.05048477269E+02  8.42936970218E-06  0.00000000000E+00  1.
        2    1    7    7  804    0 -1.37617291996E+01  1.17734088009E+01  1.29758947854E+02  1.31016727533E+02  1.49011611938E-06  0.00000000000E+00  1.
</event>
<event>
11  60   1.0000000E+00   1.2500000E+02   7.8125000E-03   1.2380861E-01
        2   -1    0    0  501    0  0.00000000000E+00  0.00000000000E+00  4.68459462287E+03  4.68459462287E+03  0.00000000000E+00  0.00000000000E+00  1.
        2   -1    0    0  502    0  0.00000000000E+00  0.00000000000E+00 -5.07597499101E+03  5.07597499101E+03  0.00000000000E+00  0.00000000000E+00  1.
        2    1    1    2  501    0 -1.30820451264E+02  1.33602298214E+03 -2.58646533340E+02  1.36710256692E+03  0.00000000000E+00  0.00000000000E+00  1.
        2    1    1    2  502    0 -1.02555770042E+02  8.07284579113E+01 -4.13630794395E+03  4.13836660738E+03  0.00000000000E+00  0.00000000000E+00  1.
       25    2    1    2    0    0  2.33376221306E+02 -1.41675144005E+03  4.00357410914E+03  4.25510043958E+03  1.25000000000E+02  0.00000000000E+00  1.
       23    2    5    5    0    0  1.76550340936E+02 -9.36743837418E+02  2.71318669981E+03  2.87714573047E+03  8.90305929795E+01  0.00000000000E+00  1.
       23    2    5    5    0    0  5.68258803698E+01 -4.80007602632E+02  1.29038740933E+03  1.37795470911E+03  4.79947375784E+00  0.00000000000E+00  1.
       -4    1    6    6    0  804  6.66650026248E+01 -2.22099121320E+02  5.74167748290E+02  6.19227317765E+02  1.27500000003E+00  0.00000000000E+00  1.
        4    1    6    6  804    0  1.09885338311E+02 -7.14644716098E+02  2.13901895152E+03  2.25791841270E+03  1.27499999937E+00  0.00000000000E+00  1.
      -13    1    7    7    0    0  6.30642844533E+00 -5.70538895245E+01  1.57513887162E+02  1.67647109019E+02  1.05660000034E-01  0.00000000000E+00  1.
       13    1    7    7    0    0  5.05194519244E+01 -4.22953713107E+02  1.13287352217E+03  1.21030760009E+03  1.05660003690E-01  0.00000000000E+00  1.
</event>
<event>
11  60   1.0000000E+00   1.2500000E+02   7.8125000E-03   1.2380861E-01
        1   -1    0    0  501    0  0.00000000000E+00  0.00000000000E+00  4.95579085550E+03  4.95579085550E+03  0.00000000000E+00  0.00000000000E+00  1.
        2   -1    0    0  502    0  0.00000000000E+00  0.00000000000E+00 -3.20823812321E+03  3.20823812321E+03  0.00000000000E+00  0.00000000000E+00  1.
        2    1    1    2  501    0 -2.07713856935E+03  1.23779036881E+03 -1.45600549771E+03  2.82251335564E+03  0.00000000000E+00  0.00000000000E+00  1.
        1    1    1    2  502    0 -1.21365502310E+01 -6.47190808479E+01 -7.30532544017E+02  7.33494139817E+02  0.00000000000E+00  0.00000000000E+00  1.
       25    2    1    2    0    0  2.08927511958E+03 -1.17307128796E+03  3.93409077402E+03  4.60802148326E+03  1.25000000000E+02  0.00000000000E+00  1.
       23    2    5    5    0    0  5.11992837865E+02 -2.99879010860E+02  1.02153147083E+03  1.18136136086E+03  4.90222891863E+00  0.00000000000E+00  1.
       23    2    5    5    0    0  1.57728228172E+03 -8.73192277100E+02  2.91255930319E+03  3.42666012240E+03  9.33474738527E+01  0.00000000000E+00  1.
      -13    1    6    6    0    0  3.31811240756E+02 -1.91637107010E+02  6.59340718662E+02  7.62596665823E+02  1.05659999319E-01  0.00000000000E+00  1.
       13    1    6    6    0    0  1.80181597109E+02 -1.08241903850E+02  3.62190752171E+02  4.18764695035E+02  1.05660000244E-01  0.00000000000E+00  1.
      -16    1    7    7    0    0  1.05156740573E+03 -5.87365949849E+02  1.86155956347E+03  2.21724982268E+03  2.38418579102E-05  0.00000000000E+00  1.
       16    1    7    7    0    0  5.25714875981E+02 -2.85826327251E+02  1.05099973972E+03  1.20941029972E+03  1.68587394044E-05  0.00000000000E+00  1.
</event>
<event>
11  60   1.0000000E+00   1.2500000E+02   7.8125000E-03   1.2380861E-01
        2   -1    0    0  501    0  0.00000000000E+00  0.00000000000E+00  3.17483048795E+03  3.17483048795E+03  0.00000000000E+00  0.00000000000E+00  1.
        1   -1    0    0  502    0  0.00000000000E+00  0.00000000000E+00 -3.88402179504E+03  3.88402179504E+03  0.00000000000E+00  0.00000000000E+00  1.
        2    1    1    2  502    0  2.35425857614E+03  4.94601529181E+02  1.68380817325E+03  2.93638793082E+03  0.00000000000E+00  0.00000000000E+00  1.
        1    1    1    2  501    0 -4.62835953255E+01 -8.49432920155E+01  4.35885552104E+02  4.46490479840E+02  0.00000000000E+00  0.00000000000E+00  1.
       25    2    1    2    0    0 -2.30797498081E+03 -4.09658237166E+02 -2.82888503244E+03  3.67597387233E+03  1.25000000000E+02  0.00000000000E+00  1.
       23    2    5    5    0    0 -6.91558515317E+02 -1.05312088398E+02 -8.18540218237E+02  1.07678385273E+03  1.05622232976E+01  0.00000000000E+00  1.
       23    2    5    5    0    0 -1.61641646549E+03 -3.04346148768E+02 -2.01034481420E+03  2.59919001960E+03  9.42004129622E+01  0.00000000000E+00  1.
       -2    1    6    6    0  803 -2.99385022858E+02 -4.10377475393E+01 -3.49463451758E+02  4.61995879580E+02  4.21468485109E-06  0.00000000000E+00  1.
        2    1    7    7  804    0 -1.10850425832E+03 -1.64969680444E+02 -1.38177439733E+03  1.77912820541E+03  0.00000000000E+00  0.00000000000E+00  1.
       -2    1    7    7    0  804 -5.07912207168E+02 -1.39376468324E+02 -6.28570416876E+02  8.20061814185E+02  1.68587394044E-05  0.00000000000E+00  1.
        2    1    6    6  803    0 -3.92173492459E+02 -6.42743408591E+01 -4.69076766479E+02  6.14787973151E+02  1.19209289551E-05  0.00000000000E+00  1.
</event>
<event>
11  60   1.0000000E+00   1.2500000E+02   7.8125000E-03   1.2380861E-01
        2   -1    0    0  501    0  0.00000000000E+00  0.00000000000E+00  1.86420889661E+03  1.86420889661E+03  0.00000000000E+00  0.00000000000E+00  1.
        1   -1    0    0  502    0  0.00000000000E+00  0.00000000000E+00 -3.37753501461E+03  3.37753501461E+03  0.00000000000E+00  0.00000000000E+00  1.
        2    1    1    2  502    0  1.50607435301E+03 -1.88893264568E+03 -7.80208486230E+02  2.53871065281E+03  0.00000000000E+00  0.00000000000E+00  1.
        1    1    1    2  501    0 -3.76379304343E+01  5.92766159138E+01  1.71652684090E+02  1.85458822807E+02  0.00000000000E+00  0.00000000000E+00  1.
       25    2    1    2    0    0 -1.46843642258E+03  1.82965602976E+03 -9.04770315859E+02  2.51757443561E+03  1.25000000000E+02  0.00000000000E+00  1.
       23    2    5    5    0    0 -2.50026959160E+02  3.45682258414E+02 -1.45941067239E+02  4.50928525517E+02  5.29489654198E+00  0.00000000000E+00  1.
       23    2    5    5    0    0 -1.21840946342E+03  1.48397377135E+03 -7.58829248620E+02  2.06664591009E+03  9.22155873326E+01  0.00000000000E+00  1.
       -4    1    6    6    0  803 -3.20137167593E+01  4.54739570657E+01 -1.79488320410E+01  5.84512192225E+01  1.27500000000E+00  0.00000000000E+00  1.
        4    1    6    6  803    0 -2.18013242400E+02  3.00208301348E+02 -1.27992235198E+02  3.92477306295E+02  1.27499999998E+00  0.00000000000E+00  1.
       -3    1    7    7    0  804 -8.62430089955E+02  1.06066796462E+03 -4.95530969402E+02  1.45408154271E+03  1.03238273118E-05  0.00000000000E+00  1.
        3    1    7    7  804    0 -3.55979373466E+02  4.23305806729E+02 -2.63298279218E+02  6.12564367379E+02  7.88495335300E-06  0.00000000000E+00  1.
</event>
<event>
11  60   1.0000000E+00   1.2500000E+02   7.8125000E-03   1.2380861E-01
        2   -1    0    0  501    0  0.00000000000E+00  0.00000000000E+00  3.84408887619E+03  3.84408887619E+03  0.00000000000E+00  0.00000000000E+00  1.
        1   -1    0    0  502    0  0.00000000000E+00  0.00000000000E+00 -2.14152793205E+03  2.14152793205E+03  0.00000000000E+00  0.00000000000E+00  1.
        2    1    1    2  502    0 -6.05527332495E+01 -3.54614209749E+01 -6.50750581048E+02  6.54523081805E+02  0.00000000000E+00  0.00000000000E+00  1.
        1    1    1    2  501    0  8.86934155850E+02 -2.07508781583E+03  2.03527526015E+03  3.03891214496E+03  0.00000000000E+00  0.00000000000E+00  1.
       25    2    1    2    0    0 -8.26381422600E+02  2.11054923680E+03  3.18036265038E+02  2.29218158148E+03  1.25000000000E+02  0.00000000000E+00  1.
       23    2    5    5    0    0 -6.65443370004E+02  1.66614435797E+03  2.41531394078E+02  1.81275670117E+03  9.43267886245E+01  0.00000000000E+00  1.
       23    2    5    5    0    0 -1.60938052596E+02  4.44404878835E+02  7.65048709600E+01  4.79424880309E+02  2.44635948604E+01  0.00000000000E+00  1.
       -5    1    6    6    0  803 -3.42295457473E+02  7.48843172462E+02  8.65271837250E+01  8.27914121859E+02  4.74999999998E+00  0.00000000000E+00  1.
        5    1    6    6  803    0 -3.23147912531E+02  9.17301185503E+02  1.55004210353E+02  9.84842579312E+02  4.75000000005E+00  0.00000000000E+00  1.
       -2    1    7    7    0  804 -1.18818384220E+02  2.99449754962E+02  5.80647475672E+01  3.27352224807E+02  5.72289954712E-06  0.00000000000E+00  1.
        2    1    7    7  804    0 -4.21196683760E+01  1.44955123872E+02  1.84401233928E+01  1.52072655503E+02  3.06063829458E-06  0.00000000000E+00  1.
</event>
<event>
11  60   1.0000000E+00   1.2500000E+02   7.8125000E-03   1.2380861E-01
        1   -1    0    0  501    0  0.00000000000E+00  0.00000000000E+00  3.68308650087E+03  3.68308650087E+03  0.00000000000E+00  0.00000000000E+00  1.
        2   -1    0    0  502    0  0.00000000000E+00  0.00000000000E+00 -3.33963462260E+03  3.33963462260E+03  0.00000000000E+00  0.00000000000E+00  1.
        2    1    1    2  501    0 -9.05597717601E+00 -1.79921141730E+01  7.67400602769E+01  7.93395471774E+01  0.00000000000E+00  0.00000000000E+00  1.
        1    1    1    2  502    0  2.34067228495E+03  1.17964783924E+02  2.69609355756E+03  3.57233577745E+03  0.00000000000E+00  0.00000000000E+00  1.
       25    2    1    2    0    0 -2.33161630777E+03 -9.99726697515E+01 -2.42938173956E+03  3.37104579884E+03  1.25000000000E+02  0.00000000000E+00  1.
       23    2    5    5    0    0 -2.36657806241E+02 -2.08862594084E+01 -2.66770147682E+02  3.57380411441E+02  1.05495829593E+01  0.00000000000E+00  1.
       23    2    5    5    0    0 -2.09495850153E+03 -7.90864103431E+01 -2.16261159188E+03  3.01366538740E+03  1.00917721198E+02  0.00000000000E+00  1.
       -2    1    6    6    0  803 -6.91314298827E+01 -5.26311866151E+00 -7.08557880098E+01  9.91332321180E+01  1.05367121277E-06  0.00000000000E+00  1.
        2    1    6    6  803    0 -1.67526376358E+02 -1.56231407468E+01 -1.95914359672E+02  2.58247179323E+02  2.98023223877E-06  0.00000000000E+00  1.
       -3    1    7    7    0  804 -1.55884976319E+03 -3.07868175481E+01 -1.55804283266E+03  2.20419098100E+03  3.76972873231E-05  0.00000000000E+00  1.
        3    1    7    7  804    0 -5.36108738340E+02 -4.82995927951E+01 -6.04568759218E+02  8.09474406396E+02  8.42936970218E-06  0.00000000000E+00  1.
</event>
<event>
11  60   1.0000000E+00   1.2500000E+02   7.8125000E-03   1.2380861E-01
        2   -1    0    0  501    0  0.00000000000E+00  0.00000000000E+00  4.46246634175E+03  4.46246634175E+03  0.00000000000E+00  0.00000000000E+00  1.
        1   -1    0    0  502    0  0.00000000000E+00  0.00000000000E+00 -3.89701336968E+03  3.89701336968E+03  0.00000000000E+00  0.00000000000E+00  1.
        2    1    1    2  501    0 -4.96773804708E+00 -1.49331398312E+01  1.09457985769E+03  1.09469298982E+03  0.00000000000E+00  0.00000000000E+00  1.
        1    1    1    2  502    0 -1.37184088125E+02  2.63489780124E+03  2.23043448602E+03  3.45490143035E+03  0.00000000000E+00  0.00000000000E+00  1.
       25    2    1    2    0    0  1.42151826172E+02 -2.61996466141E+03 -2.75956137164E+03  3.80988529126E+03  1.25000000000E+02  0.00000000000E+00  1.
       23    2    5    5    0    0  7.63828108704E+01 -1.71526092232E+03 -1.76606407087E+03  2.46374578397E+03  5.57370630653E+01  0.00000000000E+00  1.
       23    2    5    5    0    0  6.57690153016E+01 -9.04703739093E+02 -9.93497300769E+02  1.34613950729E+03  4.73314645975E+01  0.00000000000E+00  1.
       -2    1    6    6    0  803  2.35092002095E+01 -6.34453547055E+02 -6.91257383529E+02  9.38573788335E+02  2.06476546236E-05  0.00000000000E+00  1.
        2    1    6    6  803    0  5.28736106610E+01 -1.08080737526E+03 -1.07480668734E+03  1.52517199564E+03  2.38418579102E-05  0.00000000000E+00  1.
       -3    1    7    7    0  804  5.30580081500E+01 -6.15714713096E+02 -7.06621720792E+02  9.38740654519E+02  2.06476546236E-05  0.00000000000E+00  1.
        3    1    7    7  804    0  1.27110071516E+01 -2.88989025997E+02 -2.86875579977E+02  4.07398852768E+02  5.96046447754E-06  0.00000000000E+00  1.
</event>
<event>
11  60   1.0000000E+00   1.2500000E+02   7.8125000E-03   1.2380861E-01
        1   -1    0    0  501    0  0.00000000000E+00  0.00000000000E+00  4.81546262434E+03  4.81546262434E+03  0.00000000000E+00  0.00000000000E+00  1.
        2   -1    0    0  502    0  0.00000000000E+00  0.00000000000E+00 -2.49744505169E+03  2.49744505169E+03  0.00000000000E+00  0.00000000000E+00  1.
        2    1    1    2  501    0  7.81888116597E+01  9.85346723982E+01 -1.89200293546E+03  1.89617975933E+03  0.00000000000E+00  0.00000000000E+00  1.
        1    1    1    2  502    0  2.55385020217E+01  1.66975887755E+02 -5.86386974319E+02  6.10231796802E+02  0.00000000000E+00  0.00000000000E+00  1.
       25    2    1    2    0    0 -1.03727313681E+02 -2.65510560153E+02  4.79640748242E+03  4.80649611990E+03  1.25000000000E+02  0.00000000000E+00  1.
       23    2    5    5    0    0 -2.05424759950E+01 -3.43197178029E+01  3.99113064233E+02  4.01289897337E+02  1.19376427006E+01  0.00000000000E+00  1.
       23    2    5    5    0    0 -8.31848376860E+01 -2.31190842350E+02  4.39729441819E+03  4.40520622256E+03  9.63054530203E+01  0.00000000000E+00  1.
      -13    1    6    6    0    0 -2.00053886348E+01 -3.19107444569E+01  3.31670051079E+02  3.33801655378E+02  1.05659999823E-01  0.00000000000E+00  1.
       13    1    6    6    0    0 -5.37087360147E-01 -2.40897334600E+00  6.74430131539E+01  6.74882419591E+01  1.05659999997E-01  0.00000000000E+00  1.
      -16    1    7    7    0    0 -3.84171204272E+00 -1.50535665115E+02  2.59013214409E+03  2.59450578513E+03  3.37174788087E-05  0.00000000000E+00  1.
       16    1    7    7    0    0 -7.93431256433E+01 -8.06551772351E+01  1.80716227410E+03  1.81070043744E+03  3.37174788087E-05  0.00000000000E+00  1.
</event>
<event>
11  60   1.0000000E+00   1.2500000E+02   7.8125000E-03   1.2380861E-01
        1   -1    0    0  501    0  0.00000000000E+00  0.00000000000E+00  3.72349151097E+03  3.72349151097E+03  0.00000000000E+00  0.00000000000E+00  1.
        1   -1    0    0  502    0  0.00000000000E+00  0.00000000000E+00 -4.40548556851E+03  4.40548556851E+03  0.00000000000E+00  0.00000000000E+00  1.
        1    1    1    2  501    0 -6.01616240909E+01  8.18342693421E+00 -4.20013348624E+02  4.24379078787E+02  0.00000000000E+00  0.00000000000E+00  1.
        1    1    1    2  502    0  2.88474065050E+03  1.05632158575E+03 -2.48700571976E+03  3.95256136743E+03  0.00000000000E+00  0.00000000000E+00  1.
       25    2    1    2    0    0 -2.82457902641E+03 -1.06450501269E+03  2.22502501085E+03  3.75203663327E+03  1.25000000000E+02  0.00000000000E+00  1.
       23    2    5    5    0    0 -1.00786515445E+03 -3.76004667472E+02  8.16745206551E+02  1.35164677294E+03  5.20056426873E+01  0.00000000000E+00  1.
       23    2    5    5    0    0 -1.81671387196E+03 -6.88500345218E+02  1.40827980430E+03  2.40038986033E+03  6.43230628997E+01  0.00000000000E+00  1.
      -12    1    6    6    0    0 -8.52507905805E+02 -3.31217872192E+02  7.11114417805E+02  1.15851574160E+03  1.88486436615E-05  0.00000000000E+00  1.
       12    1    6    6    0    0 -1.55357248641E+02 -4.47867952799E+01  1.05630788746E+02  1.93131031344E+02  6.32202727663E-06  0.00000000000E+00  1.
       -5    1    7    7    0  803 -1.14418419222E+03 -4.14240406458E+02  9.12456260375E+02  1.52097060118E+03  4.75000000003E+00  0.00000000000E+00  1.
        5    1    7    7  803    0 -6.72529679745E+02 -2.74259938760E+02  4.95823543924E+02  8.79419259146E+02  4.75000000003E+00  0.00000000000E+00  1.
</event>
<event>
11  60   1.0000000E+00   1.2500000E+02   7.8125000E-03   1.2380861E-01
        2   -1    0    0  501    0  0.00000000000E+00  0.00000000000E+00  2.78615419781E+03  2.78615419781E+03  0.00000000000E+00  0.00000000000E+00  1.
        3   -1    0    0  502    0  0.00000000000E+00  0.00000000000E+00 -3.62431303613E+03  3.62431303613E+03  0.00000000000E+00  0.00000000000E+00  1.
        4    1    1    2  502    0 -2.01810318634E+03  1.17010979908E+03  1.09906590391E+03  2.57872900355E+03  0.00000000000E+00  0.00000000000E+00  1.
        1    1    1    2  501    0 -3.15605128073E+01  2.71420319792E+01  4.56445709660E+02  4.58339875786E+02  0.00000000000E+00  0.00000000000E+00  1.
       25    2    1    2    0    0  2.04966369914E+03 -1.19725183106E+03 -2.39367045190E+03  3.37339835460E+03  1.25000000000E+02  0.00000000000E+00  1.
       23    2    5    5    0    0  1.41712238947E+03 -8.13475303886E+02 -1.61526173264E+03  2.29943651340E+03  9.14323656444E+01  0.00000000000E+00  1.
       23    2    5    5    0    0  6.32541309675E+02 -3.83776527174E+02 -7.78408719262E+02  1.07396184120E+03  8.99838155949E+00  0.00000000000E+00  1.
       -5    1    6    6    0  804  2.85857654723E+02 -2.06017797023E+02 -3.36488437577E+02  4.87242201145E+02  4.75000000000E+00  0.00000000000E+00  1.
        5    1    6    6  804    0  1.13126473474E+03 -6.07457506863E+02 -1.27877329506E+03  1.81219431226E+03  4.75000000005E+00  0.00000000000E+00  1.
      -16    1    7    7    0    0  5.23480870222E+02 -3.15390506665E+02 -6.47068131803E+02  8.90056492801E+02  0.00000000000E+00  0.00000000000E+00  1.
       16    1    7    7    0    0  1.09060439453E+02 -6.83860205088E+01 -1.31340587459E+02  1.83905348396E+02  1.49011611938E-06  0.00000000000E+00  1.
</event>
<event>
11  60   1.0000000E+00   1.2500000E+02   7.8125000E-03   1.2380861E-01
        1   -1    0    0  501    0  0.00000000000E+00  0.00000000000E+00  3.05986966449E+03  3.05986966449E+03  0.00000000000E+00  0.00000000000E+00  1.
        1   -1    0    0  502    0  0.00000000000E+00  0.00000000000E+00 -2.06694206882E+03  2.06694206882E+03  0.00000000000E+00  0.00000000000E+00  1.
        1    1    1    2  501    0  2.62612682266E+01 -7.86065432702E+00 -1.88247446005E+02  1.90232870511E+02  0.00000000000E+00  0.00000000000E+00  1.
        1    1    1    2  502    0  1.00326154111E+03 -1.36974641454E+02 -1.63996007559E+03  1.92737251765E+03  0.00000000000E+00  0.00000000000E+00  1.
       25    2    1    2    0    0 -1.02952280934E+03  1.44835295781E+02  2.82113511727E+03  3.00920634516E+03  1.25000000000E+02  0.00000000000E+00  1.
       23    2    5    5    0    0 -5.57722898432E+02  1.05230860291E+02  1.54132068937E+03  1.64457642151E+03  8.26666396487E+01  0.00000000000E+00  1.
       23    2    5    5    0    0 -4.71799910908E+02  3.96044354898E+01  1.27981442790E+03  1.36462992365E+03  1.12334954072E+01  0.00000000000E+00  1.
      -16    1    6    6    0    0 -1.03760293318E+02  4.06681052955E+01  3.80190592217E+02  3.96188060986E+02  1.03238273118E-05  0.00000000000E+00  1.
       16    1    6    6    0    0 -4.53962605113E+02  6.45627549957E+01  1.16113009716E+03  1.24838836053E+03  0.00000000000E+00  0.00000000000E+00  1.
       -4    1    7    7    0  804 -3.30666411035E+02  2.88842273990E+01  8.83095880333E+02  9.43416415728E+02  1.27499999987E+00  0.00000000000E+00  1.
        4    1    7    7  804    0 -1.41133499874E+02  1.07202080908E+01  3.96718547563E+02  4.21213507919E+02  1.27500000001E+00  0.00000000000E+00  1.
</event>
<event>
11  60   1.0000000E+00   1.2500000E+02   7.8125000E-03   1.2380861E-01
        1   -1    0    0  501    0  0.00000000000E+00  0.00000000000E+00  3.91360672154E+03  3.91360672154E+03  0.00000000000E+00  0.00000000000E+00  1.
        2   -1    0    0  502    0  0.00000000000E+00  0.00000000000E+00 -4.29945035952E+03  4.29945035952E+03  0.00000000000E+00  0.00000000000E+00  1.
        2    1    1    2  501    0  1.99013542593E+02 -1.61040787202E+03 -3.49165344415E+03  3.85028098695E+03  0.00000000000E+00  0.00000000000E+00  1.
        1    1    1    2  502    0 -8.17066612602E+00 -2.31159141859E+01 -4.46004129722E+02  4.46677499996E+02  0.00000000000E+00  0.00000000000E+00  1.
       25    2    1    2    0    0 -1.90842876467E+02  1.63352378621E+03  3.55181393589E+03  3.91609859411E+03  1.25000000000E+02  0.00000000000E+00  1.
       23    2    5    5    0    0 -6.08446782509E+01  3.95357833121E+02  8.87923532432E+02  9.73893421256E+02  7.09263274774E+00  0.00000000000E+00  1.
       23    2    5    5    0    0 -1.29998198216E+02  1.23816595309E+03  2.66389040346E+03  2.94220517285E+03  1.01512258372E+02  0.00000000000E+00  1.
      -15    1    6    6    0    0 -3.43993884143E+01  2.30961897007E+02  5.11508806761E+02  5.62290967565E+02  1.77680000005E+00  0.00000000000E+00  1.
       15    1    6    6    0    0 -2.64452898366E+01  1.64395936114E+02  3.76414725670E+02  4.11602453691E+02  1.77680000000E+00  0.00000000000E+00  1.
       -5    1    7    7    0  804 -4.79278496053E+01  3.09960708917E+02  7.71457294988E+02  8.32791474698E+02  4.74999999995E+00  0.00000000000E+00  1.
        5    1    7    7  804    0 -8.20703486108E+01  9.28205244172E+02  1.89243310847E+03  2.10941369816E+03  4.75000000002E+00  0.00000000000E+00  1.
</event>
<event>
11  60   1.0000000E+00   1.2500000E+02   7.8125000E-03   1.2380861E-01
        2   -1    0    0  501    0  0.00000000000E+00  0.00000000000E+00  4.30838291204E+03  4.30838291204E+03  0.00000000000E+00  0.00000000000E+00  1.
        1   -1    0    0  502    0  0.00000000000E+00  0.00000000000E+00 -4.30175982331E+03  4.30175982331E+03  0.00000000000E+00  0.00000000000E+00  1.
        2    1    1    2  502    0 -3.43512182118E+01 -1.02194914085E+01 -7.76768659928E+02  7.77595007213E+02  0.00000000000E+00  0.00000000000E+00  1.
        1    1    1    2  501    0  1.72263231364E+03 -3.42566029940E+03 -3.16551093865E+02  3.84744267922E+03  0.00000000000E+00  0.00000000000E+00  1.
       25    2    1    2    0    0 -1.68828109543E+03  3.43587979080E+03  1.09994284252E+03  3.98510504891E+03  1.25000000000E+02  0.00000000000E+00  1.
       23    2    5    5    0    0 -1.25989610867E+03  2.50875240026E+03  7.88685973816E+02  2.91738641722E+03  8.91130274256E+01  0.00000000000E+00  1.
       23    2    5    5    0    0 -4.28384986759E+02  9.27127390541E+02  3.11256868704E+02  1.06771863169E+03  7.95882924974E+00  0.00000000000E+00  1.
       -3    1    6    6    0  804 -6.69135965364E+02  1.38561594993E+03  3.93375252583E+02  1.58821238825E+03  2.73142796454E-05  0.00000000000E+00  1.
        3    1    6    6  804    0 -5.90760143306E+02  1.12313645033E+03  3.95310721233E+02  1.32917402897E+03  2.38418579102E-05  0.00000000000E+00  1.
       -2    1    7    7    0  803 -1.72897933781E+02  3.82377061146E+02  1.25921688040E+02  4.38134892373E+02  6.32202727663E-06  0.00000000000E+00  1.
        2    1    7    7  803    0 -2.55487052978E+02  5.44750329395E+02  1.85335180664E+02  6.29583739313E+02  3.65002414999E-06  0.00000000000E+00  1.
</event>
<event>
11  60   1.0000000E+00   1.2500000E+02   7.8125000E-03   1.2380861E-01
        2   -1    0    0  501    0  0.00000000000E+00  0.00000000000E+00  3.93752802069E+03  3.93752802069E+03  0.00000000000E+00  0.00000000000E+00  1.
        1   -1    0    0  502    0  0.00000000000E+00  0.00000000000E+00 -3.26957223921E+03  3.26957223921E+03  0.00000000000E+00  0.00000000000E+00  1.
        2    1    1    2  502    0  1.74745213416E+03  1.50329434153E+03  2.41808618326E+03  3.34075195549E+03  0.00000000000E+00  0.00000000000E+00  1.
        1    1    1    2  501    0 -2.58057818820E+01 -4.54404671047E+00  5.92538339627E+02  5.93117417268E+02  0.00000000000E+00  0.00000000000E+00  1.
       25    2    1    2    0    0 -1.72164635228E+03 -1.49875029482E+03 -2.34266874141E+03  3.27323088714E+03  1.25000000000E+02  0.00000000000E+00  1.
       23    2    5    5    0    0 -1.57812550876E+03 -1.38857120937E+03 -2.13520065391E+03  2.99770671209E+03  9.24855358385E+01  0.00000000000E+00  1.
       23    2    5    5    0    0 -1.43520843520E+02 -1.10179085453E+02 -2.07468087498E+02  2.75524175054E+02  1.15282398046E+01  0.00000000000E+00  1.
       -3    1    6    6    0  804 -3.96339040572E+01 -4.05389291337E+01 -7.99977569251E+01  9.80504576184E+01  3.65002414999E-06  0.00000000000E+00  1.
        3    1    6    6  804    0 -1.53849160470E+03 -1.34803228023E+03 -2.05520289699E+03  2.89965625447E+03  4.12953092472E-05  0.00000000000E+00  1.
       -4    1    7    7    0  803 -1.32550324649E+02 -1.01590589184E+02 -1.95409347971E+02  2.57053837308E+02  1.27500000001E+00  0.00000000000E+00  1.
        4    1    7    7  803    0 -1.09705188709E+01 -8.58849626910E+00 -1.20587395272E+01  1.84703377459E+01  1.27500000000E+00  0.00000000000E+00  1.
</event>
<event>
11  60   1.0000000E+00   1.2500000E+02   7.8125000E-03   1.2380861E-01
        1   -1    0    0  501    0  0.00000000000E+00  0.00000000000E+00  8.51095883675E+02  8.51095883675E+02  0.00000000000E+00  0.00000000000E+00  1.
        2   -1    0    0  502    0  0.00000000000E+00  0.00000000000E+00 -4.93216918758E+03  4.93216918758E+03  0.00000000000E+00  0.00000000000E+00  1.
        2    1    1    2  502    0  2.16103807593E+01 -8.24897674971E+01 -3.16981520372E+03  3.17096199852E+03  0.00000000000E+00  0.00000000000E+00  1.
        1    1    1    2  501    0  2.77986851689E+02  4.86027789697E+02 -1.63166133555E+03  1.72505606170E+03  0.00000000000E+00  0.00000000000E+00  1.
       25    2    1    2    0    0 -2.99597232448E+02 -4.03538022200E+02  7.20403235373E+02  8.87247011033E+02  1.25000000000E+02  0.00000000000E+00  1.
       23    2    5    5    0    0 -2.79680673819E+02 -3.92909807245E+02  6.72967542804E+02  8.32829185229E+02  9.01096119478E+01  0.00000000000E+00  1.
       23    2    5    5    0    0 -1.99165586294E+01 -1.06282149554E+01  4.74356925694E+01  5.44178258041E+01  1.41960055975E+01  0.00000000000E+00  1.
       -4    1    6    6    0  803 -7.93790043934E+01 -7.39881331045E+01  1.02603326441E+02  1.49346370563E+02  1.27500000000E+00  0.00000000000E+00  1.
        4    1    6    6  803    0 -2.00301669425E+02 -3.18921674140E+02  5.70364216363E+02  6.83482814665E+02  1.27500000001E+00  0.00000000000E+00  1.
       -4    1    7    7    0  804 -1.73136620670E+00 -6.03527005804E+00  5.43449215414E+00  8.40127630713E+00  1.27500000000E+00  0.00000000000E+00  1.
        4    1    7    7  804    0 -1.81851924228E+01 -4.59294489738E+00  4.20012004153E+01  4.60165494970E+01  1.27500000000E+00  0.00000000000E+00  1.
</event>
<event>
11  60   1.0000000E+00   1.2500000E+02   7.8125000E-03   1.2380861E-01
        2   -1    0    0  501    0  0.00000000000E+00  0.00000000000E+00  3.49712568331E+03  3.49712568331E+03  0.00000000000E+00  0.00000000000E+00  1.
        1   -1    0    0  502    0  0.00000000000E+00  0.00000000000E+00 -4.52089051989E+03  4.52089051989E+03  0.00000000000E+00  0.00000000000E+00  1.
        2    1    1    2  502    0 -3.32651052026E+01 -2.97064626524E+01 -3.07026184654E+02  3.10248479787E+02  0.00000000000E+00  0.00000000000E+00  1.
        1    1    1    2  501    0  1.48232855380E+03 -1.82032051372E+03 -3.40448063776E+03  4.13537823264E+03  0.00000000000E+00  0.00000000000E+00  1.
       25    2    1    2    0    0 -1.44906344860E+03  1.85002697637E+03  2.68774198583E+03  3.57238949077E+03  1.25000000000E+02  0.00000000000E+00  1.
       23    2    5    5    0    0 -1.14015616689E+03  1.42691727595E+03  2.07932158891E+03  2.76858251383E+03  7.36333380864E+01  0.00000000000E+00  1.
       23    2    5    5    0    0 -3.08907281708E+02  4.23109700417E+02  6.08420396925E+02  8.03806976941E+02  3.85324474386E+01  0.00000000000E+00  1.
       -1    1    6    6    0  803 -8.41769639550E+02  1.04112235112E+03  1.47542560896E+03  1.99233345694E+03  2.38418579102E-05  0.00000000000E+00  1.
        1    1    6    6  803    0 -2.98386527343E+02  3.85794924833E+02  6.03895979948E+02  7.76249056891E+02  8.42936970218E-06  0.00000000000E+00  1.
       -4    1    7    7    0  804 -2.05068086497E+02  3.01093391686E+02  4.42251329574E+02  5.72972961623E+02  1.27500000001E+00  0.00000000000E+00  1.
        4    1    7    7  804    0 -1.03839195210E+02  1.22016308731E+02  1.66169067351E+02  2.30834015317E+02  1.27499999999E+00  0.00000000000E+00  1.
</event>
<event>
11  60   1.0000000E+00   1.2500000E+02   7.8125000E-03   1.2380861E-01
        2   -1    0    0  501    0  0.00000000000E+00  0.00000000000E+00  2.19146491138E+03  2.19146491138E+03  0.00000000000E+00  0.00000000000E+00  1.
        1   -1    0    0  502    0  0.00000000000E+00  0.00000000000E+00 -1.15267210360E+03  1.15267210360E+03  0.00000000000E+00  0.00000000000E+00  1.
        2    1    1    2  502    0 -1.17638369903E+03  8.33341166847E+02  5.74442798863E+02  1.55187648892E+03  0.00000000000E+00  0.00000000000E+00  1.
        1    1    1    2  501    0 -1.32568505359E+01  1.74149791597E+01  3.16168906882E+02  3.16925548456E+02  0.00000000000E+00  0.00000000000E+00  1.
       25    2    1    2    0    0  1.18964054956E+03 -8.50756146007E+02  1.48181102038E+02  1.47533497760E+03  1.25000000000E+02  0.00000000000E+00  1.
       23    2    5    5    0    0  6.41802810020E+01 -2.64924465573E+01  1.16475061049E+01  7.07825157687E+01  7.31723622720E+00  0.00000000000E+00  1.
       23    2    5    5    0    0  1.12546026856E+03 -8.24263699450E+02  1.36533595933E+02  1.40455246183E+03  8.97481636837E+01  0.00000000000E+00  1.
       -1    1    6    6    0  803  5.61577002400E+01 -2.19573758608E+01  1.23159218248E+01  6.15426322262E+01  1.88578448550E-06  0.00000000000E+00  1.
        1    1    7    7  804    0  6.66823789499E+02 -4.50991670339E+02  4.60196952989E+01  8.06328261511E+02  1.22878123093E-05  0.00000000000E+00  1.
       -1    1    7    7    0  804  4.58636479059E+02 -3.73272029111E+02  9.05139006342E+01  5.98224200320E+02  3.79906558513E-06  0.00000000000E+00  1.
        1    1    6    6  803    0  8.02258076199E+00 -4.53507069647E+00 -6.68415719911E-01  9.23988354252E+00  2.73018130091E-08  0.00000000000E+00  1.
</event>
<event>
11  60   1.0000000E+00   1.2500000E+02   7.8125000E-03   1.2380861E-01
        2   -1    0    0  501    0  0.00000000000E+00  0.00000000000E+00  1.93026382908E+03  1.93026382908E+03  0.00000000000E+00  0.00000000000E+00  1.
        1   -1    0    0  502    0  0.00000000000E+00  0.00000000000E+00 -3.91737429529E+03  3.91737429529E+03  0.00000000000E+00  0.00000000000E+00  1.
        2    1    1    2  501    0 -5.53893148231E+01  4.24259352930E+01  5.72815563807E+02  5.77049050187E+02  0.00000000000E+00  0.00000000000E+00  1.
        1    1    1    2  502    0  3.34201926459E+02  1.07634872509E+03  1.01223977192E+03  1.51487519668E+03  0.00000000000E+00  0.00000000000E+00  1.
       25    2    1    2    0    0 -2.78812611636E+02 -1.11877466038E+03 -3.57216580193E+03  3.75571387750E+03  1.25000000000E+02  0.00000000000E+00  1.
       23    2    5    5    0    0 -2.21165052156E+02 -7.23716766700E+02 -2.42445025461E+03  2.54050755561E+03  5.94950782652E+01  0.00000000000E+00  1.
       23    2    5    5    0    0 -5.76475594796E+01 -3.95057893680E+02 -1.14771554732E+03  1.21520632189E+03  9.02478405294E+00  0.00000000000E+00  1.
       -2    1    6    6    0  803 -1.29572410662E+02 -3.30654755983E+02 -1.17406458604E+03  1.22660068052E+03  2.92001931999E-05  0.00000000000E+00  1.
        2    1    6    6  803    0 -9.15926414942E+01 -3.93062010717E+02 -1.25038566856E+03  1.31390687509E+03  1.68587394044E-05  0.00000000000E+00  1.
       -3    1    7    7    0  804 -1.70934390615E+01 -1.18811999420E+02 -3.32614309591E+02  3.53611023315E+02  0.00000000000E+00  0.00000000000E+00  1.
        3    1    7    7  804    0 -4.05541204181E+01 -2.76245894261E+02 -8.15101237730E+02  8.61595298576E+02  1.19209289551E-05  0.00000000000E+00  1.
</event>
<event>
11  60   1.0000000E+00   1.2500000E+02   7.8125000E-03   1.2380861E-01
        3   -1    0    0  501    0  0.00000000000E+00  0.00000000000E+00  3.59402355950E+03  3.59402355950E+03  0.00000000000E+00  0.00000000000E+00  1.
        2   -1    0    0  502    0  0.00000000000E+00  0.00000000000E+00 -2.96152531549E+03  2.96152531549E+03  0.00000000000E+00  0.00000000000E+00  1.
        4    1    1    2  501    0 -2.49712046738E+02  5.21902338585E+02 -1.84242282927E+03  1.93112921347E+03  0.00000000000E+00  0.00000000000E+00  1.
        1    1    1    2  502    0  6.99546861224E+00  5.74029302210E+01 -1.04505829405E+03  1.04665699776E+03  0.00000000000E+00  0.00000000000E+00  1.
       25    2    1    2    0    0  2.42716578125E+02 -5.79305268806E+02  3.51997936734E+03  3.57776266377E+03  1.25000000000E+02  0.00000000000E+00  1.
       23    2    5    5    0    0  1.90150921292E+02 -4.36147795196E+02  2.56923552656E+03  2.61455931666E+03  9.25578589381E+01  0.00000000000E+00  1.
       23    2    5    5    0    0  5.25656568329E+01 -1.43157473610E+02  9.50743840776E+02  9.63203347111E+02  2.42822277020E+01  0.00000000000E+00  1.
      -14    1    6    6    0    0  1.57450455275E+01 -2.91387087242E+01  8.60798310390E+01  9.22318172675E+01  4.34439770493E-06  0.00000000000E+00  1.
       14    1    6    6    0    0  1.74405875765E+02 -4.07009086472E+02  2.48315569552E+03  2.52232749939E+03  0.00000000000E+00  0.00000000000E+00  1.
       -2    1    7    7    0  804  2.18519652454E+01 -8.31840796657E+01  4.77004215486E+02  4.84695905787E+02  8.42936970218E-06  0.00000000000E+00  1.
        2    1    7    7  804    0  3.07136915875E+01 -5.99733939439E+01  4.73739625290E+02  4.78507441324E+02  1.03238273118E-05  0.00000000000E+00  1.
</event>
<event>
11  60   1.0000000E+00   1.2500000E+02   7.8125000E-03   1.2380861E-01
        1   -1    0    0  501    0  0.00000000000E+00  0.00000000000E+00  2.35718109689E+03  2.35718109689E+03  0.00000000000E+00  0.00000000000E+00  1.
        2   -1    0    0  502    0  0.00000000000E+00  0.00000000000E+00 -2.52902039391E+03  2.52902039391E+03  0.00000000000E+00  0.00000000000E+00  1.
        2    1    1    2  501    0  4.61393865629E+02  7.65547068005E+01 -1.31771928538E+03  1.39825928835E+03  0.00000000000E+00  0.00000000000E+00  1.
        1    1    1    2  502    0  2.37045562145E+01  1.66200485361E+01 -1.14283122632E+03  1.14319785858E+03  0.00000000000E+00  0.00000000000E+00  1.
       25    2    1    2    0    0 -4.85098421843E+02 -9.31747553366E+01  2.28871121469E+03  2.34474434387E+03  1.25000000000E+02  0.00000000000E+00  1.
       23    2    5    5    0    0 -2.31486334784E+02 -5.50921788328E+01  1.10007254533E+03  1.12824531143E+03  7.84653198269E+01  0.00000000000E+00  1.
       23    2    5    5    0    0 -2.53612087059E+02 -3.80825765038E+01  1.18863866936E+03  1.21649903244E+03  3.51942650584E+01  0.00000000000E+00  1.
       -4    1    6    6    0  804 -3.99913712856E+01 -1.04438273616E+01  8.77931565330E+01  9.70445633011E+01  1.27500000000E+00  0.00000000000E+00  1.
        4    1    6    6  804    0 -1.91494963498E+02 -4.46483514712E+01  1.01227938879E+03  1.03120074813E+03  1.27499999976E+00  0.00000000000E+00  1.
      -14    1    7    7    0    0 -2.04139886793E+02 -3.29120354459E+01  1.01648591828E+03  1.03730415863E+03  0.00000000000E+00  0.00000000000E+00  1.
       14    1    7    7    0    0 -4.94722002660E+01 -5.17054105783E+00  1.72152751089E+02  1.79194873815E+02  2.10734242554E-06  0.00000000000E+00  1.
</event>
<event>
11  60   1.0000000E+00   1.2500000E+02   7.8125000E-03   1.2380861E-01
        2   -1    0    0  501    0  0.00000000000E+00  0.00000000000E+00  2.91533340748E+03  2.91533340748E+03  0.00000000000E+00  0.00000000000E+00  1.
        3   -1    0    0  502    0  0.00000000000E+00  0.00000000000E+00 -2.87152286090E+03  2.87152286090E+03  0.00000000000E+00  0.00000000000E+00  1.
        4    1    1    2  502    0  3.03749125787E+01 -9.92833241056E+00 -9.53354355488E+02  9.53889791447E+02  0.00000000000E+00  0.00000000000E+00  1.
        1    1    1    2  501    0  1.73696903949E+03  7.52981444632E+02 -9.32140587140E+02  2.11019633548E+03  0.00000000000E+00  0.00000000000E+00  1.
       25    2    1    2    0    0 -1.76734395207E+03 -7.43053112221E+02  1.92930548920E+03  2.72277014145E+03  1.25000000000E+02  0.00000000000E+00  1.
       23    2    5    5    0    0 -9.25655779854E+02 -3.86866401530E+02  9.93782282126E+02  1.41419452870E+03  7.64114214059E+01  0.00000000000E+00  1.
       23    2    5    5    0    0 -8.41688172216E+02 -3.56186710691E+02  9.35523207074E+02  1.30857561275E+03  4.31104534266E+01  0.00000000000E+00  1.
       -1    1    6    6    0  804 -6.76410901948E+02 -2.80736092388E+02  7.71777179701E+02  1.06394759126E+03  0.00000000000E+00  0.00000000000E+00  1.
        1    1    6    6  804    0 -2.49244877906E+02 -1.06130309142E+02  2.22005102425E+02  3.50246937437E+02  5.96046447754E-06  0.00000000000E+00  1.
       -2    1    7    7    0  803 -3.04894978746E-01  7.52437399059E-01  1.82946501305E-01  8.32221370734E-01  2.55086399104E-07  0.00000000000E+00  1.
        2    1    7    7  803    0 -8.41383277237E+02 -3.56939148090E+02  9.35340260573E+02  1.30774339138E+03  1.68587394044E-05  0.00000000000E+00  1.
</event>
<event>
11  60   1.0000000E+00   1.2500000E+02   7.8125000E-03   1.2380861E-01
        2   -1    0    0  501    0  0.00000000000E+00  0.00000000000E+00  2.79472313239E+03  2.79472313239E+03  0.00000000000E+00  0.00000000000E+00  1.
        1   -1    0    0  502    0  0.00000000000E+00  0.00000000000E+00 -3.16162240645E+03  3.16162240645E+03  0.00000000000E+00  0.00000000000E+00  1.
        2    1    1    2  502    0  1.46612499504E+03 -1.35680624269E+03  1.26667504807E+03  2.36535649717E+03  0.00000000000E+00  0.00000000000E+00  1.
        1    1    1    2  501    0 -5.37034816067E+00  3.00354532599E+01  6.04097163400E+02  6.04867218420E+02  0.00000000000E+00  0.00000000000E+00  1.
       25    2    1    2    0    0 -1.46075464688E+03  1.32677078943E+03 -2.23767148554E+03  2.98612182325E+03  1.25000000000E+02  0.00000000000E+00  1.
       23    2    5    5    0    0 -8.37504985620E+02  7.42383065786E+02 -1.26121253464E+03  1.68618698364E+03  4.71899890934E+00  0.00000000000E+00  1.
       23    2    5    5    0    0 -6.23249661260E+02  5.84387723644E+02 -9.76458950895E+02  1.29993483961E+03  8.00584326578E+01  0.00000000000E+00  1.
      -11    1    6    6    0    0 -3.14452556088E+02  2.78752228788E+02 -4.70110070777E+02  6.30544759498E+02  5.11038141951E-04  0.00000000000E+00  1.
       11    1    6    6    0    0 -5.23052429532E+02  4.63630836998E+02 -7.91102463868E+02  1.05564222414E+03  5.10794765607E-04  0.00000000000E+00  1.
       -5    1    7    7    0  804 -6.17060575409E+01  9.12817973412E+01 -1.11183135105E+02  1.56602222509E+02  4.75000000000E+00  0.00000000000E+00  1.
        5    1    7    7  804    0 -5.61543603720E+02  4.93105926303E+02 -8.65275815791E+02  1.14333261710E+03  4.75000000006E+00  0.00000000000E+00  1.
</event>
<event>
11  60   1.0000000E+00   1.2500000E+02   7.8125000E-03   1.2380861E-01
        2   -1    0    0  501    0  0.00000000000E+00  0.00000000000E+00  5.11169129073E+03  5.11169129073E+03  0.00000000000E+00  0.00000000000E+00  1.
        1   -1    0    0  502    0  0.00000000000E+00  0.00000000000E+00 -4.47979790837E+03  4.47979790837E+03  0.00000000000E+00  0.00000000000E+00  1.
        2    1    1    2  502    0 -2.93092816126E+01 -3.54597680282E+03 -1.43973065376E+03  3.82722286724E+03  0.00000000000E+00  0.00000000000E+00  1.
        1    1    1    2  501    0  4.55138575596E+01  3.38990286918E+01  2.24493917649E+03  2.24565637654E+03  0.00000000000E+00  0.00000000000E+00  1.
       25    2    1    2    0    0 -1.62045759470E+01  3.51207777413E+03 -1.73315140363E+02  3.51860995532E+03  1.25000000000E+02  0.00000000000E+00  1.
       23    2    5    5    0    0 -1.72091043090E+01  1.00012625510E+03 -2.41743843251E+01  1.00059399370E+03  7.43370418711E+00  0.00000000000E+00  1.
       23    2    5    5    0    0  1.00452836201E+00  2.51195151903E+03 -1.49140756038E+02  2.51801596162E+03  9.08844036741E+01  0.00000000000E+00  1.
      -15    1    6    6    0    0 -1.05533477274E+01  6.16010469393E+02 -1.17401828881E+01  6.16215271202E+02  1.77679999997E+00  0.00000000000E+00  1.
       15    1    6    6    0    0 -6.65575658165E+00  3.84115785711E+02 -1.24342014370E+01  3.84378722501E+02  1.77679999998E+00  0.00000000000E+00  1.
      -14    1    7    7    0    0 -2.93681008656E+00  1.22657276903E+03 -1.18206816865E+02  1.23225899637E+03  1.78191970931E-05  0.00000000000E+00  1.
       14    1    7    7    0    0  3.94133844857E+00  1.28537875000E+03 -3.09339391728E+01  1.28575696525E+03  3.26850440637E-05  0.00000000000E+00  1.
</event>
<event>
11  60   1.0000000E+00   1.2500000E+02   7.8125000E-03   1.2380861E-01
        1   -1    0    0  501    0  0.00000000000E+00  0.00000000000E+00  2.50818887779E+03  2.50818887779E+03  0.00000000000E+00  0.00000000000E+00  1.
        2   -1    0    0  502    0  0.00000000000E+00  0.00000000000E+00 -2.29757904309E+03  2.29757904309E+03  0.00000000000E+00  0.00000000000E+00  1.
        4    1    1    2  501    0  1.80654500152E+03  8.16886930707E+02 -9.08866665520E+02  2.18104280466E+03  0.00000000000E+00  0.00000000000E+00  1.
        1    1    1    2  502    0 -7.08985646965E+00 -4.33619716684E+01 -2.35639049169E+02  2.39700413319E+02  0.00000000000E+00  0.00000000000E+00  1.
       25    2    1    2    0    0 -1.79945514505E+03 -7.73524959038E+02  1.35511554939E+03  2.38502470291E+03  1.25000000000E+02  0.00000000000E+00  1.
       23    2    5    5    0    0 -3.52341253066E+02 -1.86952325726E+02  2.67078154129E+02  4.80051377983E+02  4.80149812075E+00  0.00000000000E+00  1.
       23    2    5    5    0    0 -1.44711389198E+03 -5.86572633312E+02  1.08803739526E+03  1.90497332493E+03  8.30176166383E+01  0.00000000000E+00  1.
      -13    1    6    6    0    0 -2.59051129522E+02 -1.35534718466E+02  1.94215387120E+02  3.50993981963E+02  1.05660000223E-01  0.00000000000E+00  1.
       13    1    6    6    0    0 -9.32901235437E+01 -5.14176072597E+01  7.28627670092E+01  1.29057396020E+02  1.05659999986E-01  0.00000000000E+00  1.
      -12    1    7    7    0    0 -2.90317242309E+02 -1.34891658673E+02  2.59612693723E+02  4.12163331100E+02  2.98023223877E-06  0.00000000000E+00  1.
       12    1    7    7    0    0 -1.15679664968E+03 -4.51680974639E+02  8.28424701538E+02  1.49280999383E+03  2.38418579102E-05  0.00000000000E+00  1.
</event>
<event>
11  60   1.0000000E+00   1.2500000E+02   7.8125000E-03   1.2380861E-01
        3   -1    0    0  501    0  0.00000000000E+00  0.00000000000E+00  2.47352944170E+03  2.47352944170E+03  0.00000000000E+00  0.00000000000E+00  1.
        2   -1    0    0  502    0  0.00000000000E+00  0.00000000000E+00 -3.35543733142E+03  3.35543733142E+03  0.00000000000E+00  0.00000000000E+00  1.
        4    1    1    2  501    0 -2.03138620013E+03  1.13866859659E+03 -6.46421437096E+02  2.41680713779E+03  0.00000000000E+00  0.00000000000E+00  1.
        1    1    1    2  502    0 -2.23105237654E+01 -2.04149368286E+01 -9.60322097832E+02  9.60798137332E+02  0.00000000000E+00  0.00000000000E+00  1.
       25    2    1    2    0    0  2.05369672389E+03 -1.11825365976E+03  7.24835645213E+02  2.45136149800E+03  1.25000000000E+02  0.00000000000E+00  1.
       23    2    5    5    0    0  5.53011241431E+02 -2.93698628705E+02  1.74787517921E+02  6.50755172978E+02  2.91770643531E+01  0.00000000000E+00  1.
       23    2    5    5    0    0  1.50068548246E+03 -8.24555031055E+02  5.50048127292E+02  1.80060632502E+03  8.76486102043E+01  0.00000000000E+00  1.
       -2    1    6    6    0  803  4.64312521124E+01 -1.61590989338E+01  1.60211915070E+01  5.17074098015E+01  1.26330740436E-06  0.00000000000E+00  1.
        2    1    7    7  804    0  1.94736296766E+02 -1.24997897925E+02  1.01460142819E+02  2.52667489687E+02  4.47034835815E-06  0.00000000000E+00  1.
       -2    1    7    7    0  804  1.30594918569E+03 -6.99557133130E+02  4.48587984473E+02  1.54793883533E+03  2.45756246186E-05  0.00000000000E+00  1.
        2    1    6    6  803    0  5.06579989319E+02 -2.77539529771E+02  1.58766326414E+02  5.99047763177E+02  1.15423898286E-05  0.00000000000E+00  1.
</event>
<event>
11  60   1.0000000E+00   1.2500000E+02   7.8125000E-03   1.2380861E-01
        2   -1    0    0  501    0  0.00000000000E+00  0.00000000000E+00  3.03620633500E+03  3.03620633500E+03  0.00000000000E+00  0.00000000000E+00  1.
        2   -1    0    0  502    0  0.00000000000E+00  0.00000000000E+00 -1.91985401329E+03  1.91985401329E+03  0.00000000000E+00  0.00000000000E+00  1.
        2    1    1    2  501    0 -2.06029475574E+01 -2.91791103028E+01 -8.31892493597E+01  9.05337126994E+01  0.00000000000E+00  0.00000000000E+00  1.
        2    1    1    2  502    0  1.79585283271E+03 -1.46623858854E+03  1.74255959242E+02  2.32493185590E+03  0.00000000000E+00  0.00000000000E+00  1.
       25    2    1    2    0    0 -1.77524988515E+03  1.49541769884E+03  1.02528561183E+03  2.54059477969E+03  1.25000000000E+02  0.00000000000E+00  1.
       23    2    5    5    0    0 -1.29506355965E+03  1.06347630311E+03  7.57521086643E+02  1.84137032418E+03  9.29247182029E+01  0.00000000000E+00  1.
       23    2    5    5    0    0 -4.80186325504E+02  4.31941395726E+02  2.67764525187E+02  6.99224455510E+02  8.04497931694E+00  0.00000000000E+00  1.
      -16    1    6    6    0    0 -1.13029249126E+03  9.62568888301E+02  6.55777621059E+02  1.62300470388E+03  1.19209289551E-05  0.00000000000E+00  1.
       16    1    6    6    0    0 -1.64771068387E+02  1.00907414813E+02  1.01743465584E+02  2.18365620304E+02  6.49526557854E-06  0.00000000000E+00  1.
       -1    1    7    7    0  804 -3.13337566796E+02  2.84445537760E+02  1.71860292319E+02  4.56755574452E+02  3.65002414999E-06  0.00000000000E+00  1.
        1    1    7    7  804    0 -1.66848758708E+02  1.47495857966E+02  9.59042328678E+01  2.42468881058E+02  1.05367121277E-06  0.00000000000E+00  1.
</event>
<event>
11  60   1.0000000E+00   1.2500000E+02   7.8125000E-03   1.2380861E-01
        1   -1    0    0  501    0  0.00000000000E+00  0.00000000000E+00  3.44025047931E+03  3.44025047931E+03  0.00000000000E+00  0.00000000000E+00  1.
        2   -1    0    0  502    0  0.00000000000E+00  0.00000000000E+00 -2.38299697865E+03  2.38299697865E+03  0.00000000000E+00  0.00000000000E+00  1.
        2    1    1    2  501    0  7.26629280055E+02  8.79201605227E+01 -2.18576623188E+03  2.30505836926E+03  0.00000000000E+00  0.00000000000E+00  1.
        1    1    1    2  502    0 -1.22705491161E+01 -2.54637323693E+01 -9.63488909886E+01  1.00409545545E+02  0.00000000000E+00  0.00000000000E+00  1.
       25    2    1    2    0    0 -7.14358730939E+02 -6.24564281535E+01  3.33936862352E+03  3.41777954316E+03  1.25000000000E+02  0.00000000000E+00  1.
       23    2    5    5    0    0 -2.04615339376E+02 -4.48664259254E+01  8.90856900955E+02  9.16429483098E+02  4.83378343356E+01  0.00000000000E+00  1.
       23    2    5    5    0    0 -5.09743391563E+02 -1.75900022281E+01  2.44851172256E+03  2.50135006006E+03  3.73461378860E+01  0.00000000000E+00  1.
       -5    1    6    6    0  804 -9.90595749178E+01 -8.70799411392E+00  3.35692278647E+02  3.50143537692E+02  4.75000000000E+00  0.00000000000E+00  1.
        5    1    6    6  804    0 -1.05555764458E+02 -3.61584318115E+01  5.55164622308E+02  5.66285945406E+02  4.75000000000E+00  0.00000000000E+00  1.
      -14    1    7    7    0    0 -1.85811421298E+02 -2.35506985266E+01  8.70214401479E+02  8.90142474117E+02  1.19209289551E-05  0.00000000000E+00  1.
       14    1    7    7    0    0 -3.23931970264E+02  5.96069629852E+00  1.57829732109E+03  1.61120758594E+03  2.38418579102E-05  0.00000000000E+00  1.
</event>
<event>
11  60   1.0000000E+00   1.2500000E+02   7.8125000E-03   1.2380861E-01
        2   -1    0    0  501    0  0.00000000000E+00  0.00000000000E+00  2.45587162707E+03  2.45587162707E+03  0.00000000000E+00  0.00000000000E+00  1.
        2   -1    0    0  502    0  0.00000000000E+00  0.00000000000E+00 -1.44075142176E+03  1.44075142176E+03  0.00000000000E+00  0.00000000000E+00  1.
        2    1    1    2  501    0 -4.93173169356E+01  5.25434143410E+01 -4.32104663468E+02  4.38072423614E+02  0.00000000000E+00  0.00000000000E+00  1.
        2    1    1    2  502    0 -1.02591030980E+03 -1.02793660428E+03  7.06091560927E+01  1.45400525415E+03  0.00000000000E+00  0.00000000000E+00  1.
       25    2    1    2    0    0  1.07522762674E+03  9.75393189936E+02  1.37661571268E+03  2.00454537107E+03  1.25000000000E+02  0.00000000000E+00  1.
       23    2    5    5    0    0  6.67496271965E+02  6.03724718244E+02  8.38837136439E+02  1.23370105448E+03  9.13002839241E+01  0.00000000000E+00  1.
       23    2    5    5    0    0  4.07731354775E+02  3.71668471692E+02  5.37778576241E+02  7.70844316592E+02  2.47558648019E+01  0.00000000000E+00  1.
      -12    1    6    6    0    0  1.89217477043E+02  2.26005652668E+02  2.91561920956E+02  4.14596384943E+02  9.42432183077E-06  0.00000000000E+00  1.
       12    1    6    6    0    0  4.78278794922E+02  3.77719065576E+02  5.47275215483E+02  8.19104669535E+02  1.33280037493E-05  0.00000000000E+00  1.
       -1    1    7    7    0  804  1.47339609069E+02  1.20115354808E+02  1.77754690340E+02  2.60256390505E+02  4.21468485109E-06  0.00000000000E+00  1.
        1    1    7    7  804    0  2.60391745706E+02  2.51553116884E+02  3.60023885901E+02  5.10587926087E+02  4.21468485109E-06  0.00000000000E+00  1.
</event>
<event>
11  60   1.0000000E+00   1.2500000E+02   7.8125000E-03   1.2380861E-01
        2   -1    0    0  501    0  0.00000000000E+00  0.00000000000E+00  2.64776651358E+03  2.64776651358E+03  0.00000000000E+00  0.00000000000E+00  1.
        2   -1    0    0  502    0  0.00000000000E+00  0.00000000000E+00 -2.80890943299E+03  2.80890943299E+03  0.00000000000E+00  0.00000000000E+00  1.
        2    1    1    2  501    0 -1.23866170947E+02  2.62802312915E+01 -8.06405108426E+02  8.16285904422E+02  0.00000000000E+00  0.00000000000E+00  1.
        2    1    1    2  502    0  8.18007664825E+02  3.81178734144E+01 -1.86247914277E+03  2.03455598823E+03  0.00000000000E+00  0.00000000000E+00  1.
       25    2    1    2    0    0 -6.94141493878E+02 -6.43981047059E+01  2.50774133178E+03  2.60583405392E+03  1.25000000000E+02  0.00000000000E+00  1.
       23    2    5    5    0    0 -4.55663386664E+02 -5.59623526496E+01  1.62212540259E+03  1.68820983525E+03  8.94467397241E+01  0.00000000000E+00  1.
       23    2    5    5    0    0 -2.38478107214E+02 -8.43575205632E+00  8.85615929194E+02  9.17624218674E+02  2.78507292776E+01  0.00000000000E+00  1.
       -1    1    6    6    0  803 -4.01406927410E+02 -2.39606335816E+01  1.45715591852E+03  1.51162330103E+03  3.37174788087E-05  0.00000000000E+00  1.
        1    1    6    6  803    0 -5.42564592542E+01 -3.20017190680E+01  1.64969484070E+02  1.76586534221E+02  5.16191365590E-06  0.00000000000E+00  1.
       -3    1    7    7    0  804 -2.19844167965E+01  7.34041575269E+00  8.44001224877E+01  8.75247220004E+01  0.00000000000E+00  0.00000000000E+00  1.
        3    1    7    7  804    0 -2.16493690417E+02 -1.57761678090E+01  8.01215806706E+02  8.30099496673E+02  0.00000000000E+00  0.00000000000E+00  1.
</event>
<event>
11  60   1.0000000E+00   1.2500000E+02   7.8125000E-03   1.2380861E-01
        2   -1    0    0  501    0  0.00000000000E+00  0.00000000000E+00  3.29542644409E+03  3.29542644409E+03  0.00000000000E+00  0.00000000000E+00  1.
        2   -1    0    0  502    0  0.00000000000E+00  0.00000000000E+00 -4.04261439017E+03  4.04261439017E+03  0.00000000000E+00  0.00000000000E+00  1.
        2    1    1    2  501    0 -5.04525914558E+00 -6.96621180041E+01 -9.08338999917E+02  9.11020309375E+02  0.00000000000E+00  0.00000000000E+00  1.
        2    1    1    2  502    0  6.74966588950E+02  3.14543616342E+03 -3.47881408484E+02  3.23579511538E+03  0.00000000000E+00  0.00000000000E+00  1.
       25    2    1    2    0    0 -6.69921329804E+02 -3.07577404542E+03  5.09032462313E+02  3.19122540950E+03  1.25000000000E+02  0.00000000000E+00  1.
       23    2    5    5    0    0 -4.96502526144E+02 -2.40121568503E+03  4.08208395066E+02  2.48744812495E+03  9.17199869871E+01  0.00000000000E+00  1.
       23    2    5    5    0    0 -1.73418803660E+02 -6.74558360391E+02  1.00824067247E+02  7.03777284551E+02  5.82328752635E+00  0.00000000000E+00  1.
       -2    1    6    6    0  803 -2.57891953401E+02 -1.18912383752E+03  2.47491763416E+02  1.24168270244E+03  1.15423898286E-05  0.00000000000E+00  1.
        2    1    7    7  804    0 -5.17373301293E+01 -2.05219731682E+02  3.31528716318E+01  2.14221853456E+02  2.47107803103E-06  0.00000000000E+00  1.
       -2    1    7    7    0  804 -1.21681473530E+02 -4.69338628709E+02  6.76711956151E+01  4.89555431095E+02  6.86909590460E-06  0.00000000000E+00  1.
        2    1    6    6  803    0 -2.38610572744E+02 -1.21209184751E+03  1.60716631650E+02  1.24576542251E+03  2.15938340816E-05  0.00000000000E+00  1.
</event>
<event>
11  60   1.0000000E+00   1.2500000E+02   7.8125000E-03   1.2380861E-01
        2   -1    0    0  501    0  0.00000000000E+00  0.00000000000E+00  1.75733467869E+03  1.75733467869E+03  0.00000000000E+00  0.00000000000E+00  1.
        2   -1    0    0  502    0  0.00000000000E+00  0.00000000000E+00 -3.14250958348E+03  3.14250958348E+03  0.00000000000E+00  0.00000000000E+00  1.
        2    1    1    2  501    0  1.77340092298E+03  2.34621179404E+02 -1.15879481277E+03  2.13138531232E+03  0.00000000000E+00  0.00000000000E+00  1.
        2    1    1    2  502    0 -5.39552286811E+01  2.65244009506E+01 -8.97943056128E+02  8.99953578023E+02  0.00000000000E+00  0.00000000000E+00  1.
       25    2    1    2    0    0 -1.71944569430E+03 -2.61145580355E+02  6.71562964104E+02  1.86850537183E+03  1.25000000000E+02  0.00000000000E+00  1.
       23    2    5    5    0    0 -9.99919585977E+02 -1.53702457329E+02  3.97696727044E+02  1.09107554381E+03  9.39123622881E+01  0.00000000000E+00  1.
       23    2    5    5    0    0 -7.19526108323E+02 -1.07443123026E+02  2.73866237060E+02  7.77429828019E+02  1.15141846857E+01  0.00000000000E+00  1.
       -1    1    6    6    0  804 -7.05004433390E+02 -9.32049127535E+01  2.35574275007E+02  7.49141939759E+02  1.22878123093E-05  0.00000000000E+00  1.
        1    1    6    6  804    0 -2.94915152587E+02 -6.04975445758E+01  1.62122452037E+02  3.41933604052E+02  2.98023223877E-06  0.00000000000E+00  1.
       -4    1    7    7    0  803 -2.38955930070E+02 -3.32740144188E+01  9.58508499549E+01  2.59607603150E+02  1.27500000001E+00  0.00000000000E+00  1.
        4    1    7    7  803    0 -4.80570178253E+02 -7.41691086069E+01  1.78015387106E+02  5.17822224870E+02  1.27500000002E+00  0.00000000000E+00  1.
</event>
<event>
11  60   1.0000000E+00   1.2500000E+02   7.8125000E-03   1.2380861E-01
        2   -1    0    0  501    0  0.00000000000E+00  0.00000000000E+00  4.32752319132E+03  4.32752319132E+03  0.00000000000E+00  0.00000000000E+00  1.
        1   -1    0    0  502    0  0.00000000000E+00  0.00000000000E+00 -2.03237181961E+03  2.03237181961E+03  0.00000000000E+00  0.00000000000E+00  1.
        2    1    1    2  502    0  4.38437389920E+02  1.05813449756E+03  2.83110164356E+03  3.05401579498E+03  0.00000000000E+00  0.00000000000E+00  1.
        1    1    1    2  501    0  4.98886973926E+01 -4.64883659146E+01  1.21766398136E+03  1.21957190103E+03  0.00000000000E+00  0.00000000000E+00  1.
       25    2    1    2    0    0 -4.88326087313E+02 -1.01164613165E+03 -1.75361425321E+03  2.08630731492E+03  1.25000000000E+02  0.00000000000E+00  1.
       23    2    5    5    0    0 -1.32020626923E+02 -3.48194728973E+02 -6.01663912429E+02  7.08659562056E+02  3.91138870040E+01  0.00000000000E+00  1.
       23    2    5    5    0    0 -3.56305460390E+02 -6.63451402677E+02 -1.15195034078E+03  1.37764775286E+03  6.16635915871E+01  0.00000000000E+00  1.
       -2    1    6    6    0  804 -7.72987168923E+01 -2.53723531739E+02 -4.29440824335E+02  5.04747604052E+02  1.33280037493E-05  0.00000000000E+00  1.
        2    1    6    6  804    0 -5.47219100304E+01 -9.44711972338E+01 -1.72223088094E+02  2.03911958004E+02  0.00000000000E+00  0.00000000000E+00  1.
      -11    1    7    7    0    0 -1.62442546306E+02 -2.40808633867E+02 -4.55655288202E+02  5.40368504506E+02  5.10864313536E-04  0.00000000000E+00  1.
       11    1    7    7    0    0 -1.93862914085E+02 -4.22642768810E+02 -6.96295052579E+02  8.37279248358E+02  5.11350884188E-04  0.00000000000E+00  1.
</event>
<event>
11  60   1.0000000E+00   1.2500000E+02   7.8125000E-03   1.2380861E-01
        2   -1    0    0  501    0  0.00000000000E+00  0.00000000000E+00  4.25330886184E+03  4.25330886184E+03  0.00000000000E+00  0.00000000000E+00  1.
        1   -1    0    0  502    0  0.00000000000E+00  0.00000000000E+00 -1.90891990284E+03  1.90891990284E+03  0.00000000000E+00  0.00000000000E+00  1.
        2    1    1    2  502    0  2.47551263480E+02  2.06319720916E+03  1.40859580936E+03  2.51041958766E+03  0.00000000000E+00  0.00000000000E+00  1.
        1    1    1    2  501    0  3.80187884932E+00 -2.63487592983E+01  1.51535324022E+03  1.51558706580E+03  0.00000000000E+00  0.00000000000E+00  1.
       25    2    1    2    0    0 -2.51353142329E+02 -2.03684844986E+03 -5.79560090574E+02  2.13622211122E+03  1.25000000000E+02  0.00000000000E+00  1.
       23    2    5    5    0    0 -9.09197603423E+01 -8.59109009672E+02 -2.26106290748E+02  8.95788016972E+02  7.05508562205E+01  0.00000000000E+00  1.
       23    2    5    5    0    0 -1.60433381987E+02 -1.17773944019E+03 -3.53453799826E+02  1.24043409425E+03  3.06283289266E+01  0.00000000000E+00  1.
       -1    1    6    6    0  804 -2.40376201031E+01 -4.65605308846E+02 -9.63260149669E+01  4.76072275989E+02  7.67084221615E-06  0.00000000000E+00  1.
        1    1    6    6  804    0 -6.68821402392E+01 -3.93503700827E+02 -1.29780275781E+02  4.19715740983E+02  5.96046447754E-06  0.00000000000E+00  1.
       -4    1    7    7    0  803 -1.34647969112E+02 -9.38967811186E+02 -2.71304775778E+02  9.86609615306E+02  1.27500000013E+00  0.00000000000E+00  1.
        4    1    7    7  803    0 -2.57854128744E+01 -2.38771629002E+02 -8.21490240485E+01  2.53824478942E+02  1.27500000001E+00  0.00000000000E+00  1.
</event>
<event>
11  60   1.0000000E+00   1.2500000E+02   7.8125000E-03   1.2380861E-01
        1   -1    0    0  501    0  0.00000000000E+00  0.00000000000E+00  4.21525140545E+03  4.21525140545E+03  0.00000000000E+00  0.00000000000E+00  1.
        2   -1    0    0  502    0  0.00000000000E+00  0.00000000000E+00 -4.41434172962E+03  4.41434172962E+03  0.00000000000E+00  0.00000000000E+00  1.
        2    1    1    2  501    0 -3.05177337298E+02 -6.63248788947E+02 -4.17318057571E+03  4.23656326292E+03  0.00000000000E+00  0.00000000000E+00  1.
        1    1    1    2  502    0  2.82830847710E+00  2.76190623059E+01 -1.77844839952E+02  1.79998886188E+02  0.00000000000E+00  0.00000000000E+00  1.
       25    2    1    2    0    0  3.02349028821E+02  6.35629726641E+02  4.15193509149E+03  4.21303098595E+03  1.25000000000E+02  0.00000000000E+00  1.
       23    2    5    5    0    0  2.50143921574E+02  5.39313732035E+02  3.56161040465E+03  3.61199865116E+03  8.96342478133E+01  0.00000000000E+00  1.
       23    2    5    5    0    0  5.22051072468E+01  9.63159946056E+01  5.90324686836E+02  6.01032334790E+02  2.74679364957E+01  0.00000000000E+00  1.
       -4    1    6    6    0  803  9.01963651816E+01  1.77131641167E+02  9.52734654724E+02  9.73250199349E+02  1.27499999998E+00  0.00000000000E+00  1.
        4    1    6    6  803    0  1.59947556393E+02  3.62182090868E+02  2.60887574993E+03  2.63874845181E+03  1.27499999959E+00  0.00000000000E+00  1.
       -2    1    7    7    0  804  1.75154288759E+01  4.80983830912E+01  2.13235574191E+02  2.19293535713E+02  6.66400187463E-06  0.00000000000E+00  1.
        2    1    7    7  804    0  3.46896783709E+01  4.82176115143E+01  3.77089112645E+02  3.81738799077E+02  4.21468485109E-06  0.00000000000E+00  1.
</event>
<event>
11  60   1.0000000E+00   1.2500000E+02   7.8125000E-03   1.2380861E-01
        1   -1    0    0  501    0  0.00000000000E+00  0.00000000000E+00  3.20367737418E+03  3.20367737418E+03  0.00000000000E+00  0.00000000000E+00  1.
        2   -1    0    0  502    0  0.00000000000E+00  0.00000000000E+00 -2.96605389529E+03  2.96605389529E+03  0.00000000000E+00  0.00000000000E+00  1.
        2    1    1    2  501    0  2.83431592463E+02  1.94957472709E+03 -9.72286749578E+02  2.19693345541E+03  0.00000000000E+00  0.00000000000E+00  1.
        1    1    1    2  502    0 -1.62902426377E+01  1.00157257972E+02 -9.64636196733E+02  9.69958679727E+02  0.00000000000E+00  0.00000000000E+00  1.
       25    2    1    2    0    0 -2.67141349826E+02 -2.04973198506E+03  2.17454642519E+03  3.00283913433E+03  1.25000000000E+02  0.00000000000E+00  1.
       23    2    5    5    0    0 -2.11834661722E+02 -1.45863201410E+03  1.54528146743E+03  2.13744166374E+03  9.09987683845E+01  0.00000000000E+00  1.
       23    2    5    5    0    0 -5.53066881038E+01 -5.91099970958E+02  6.29264957764E+02  8.65397470591E+02  2.19177923103E+01  0.00000000000E+00  1.
       -5    1    6    6    0  803 -1.09805657339E+02 -9.49618617530E+02  9.53082023820E+02  1.34989655447E+03  4.75000000003E+00  0.00000000000E+00  1.
        5    1    6    6  803    0 -1.02029004384E+02 -5.09013396571E+02  5.92199443606E+02  7.87545109268E+02  4.74999999999E+00  0.00000000000E+00  1.
       -1    1    7    7    0  804 -4.45420426696E+00 -4.62745987546E+01  4.10460482385E+01  6.20157762312E+01  1.05367121277E-06  0.00000000000E+00  1.
        1    1    7    7  804    0 -5.08524838368E+01 -5.44825372204E+02  5.88218909525E+02  8.03381694360E+02  8.42936970218E-06  0.00000000000E+00  1.
</event>
<event>
11  60   1.0000000E+00   1.2500000E+02   7.8125000E-03   1.2380861E-01
        1   -1    0    0  501    0  0.00000000000E+00  0.00000000000E+00  1.40373786847E+03  1.40373786847E+03  0.00000000000E+00  0.00000000000E+00  1.
        2   -1    0    0  502    0  0.00000000000E+00  0.00000000000E+00 -3.94415353654E+03  3.94415353654E+03  0.00000000000E+00  0.00000000000E+00  1.
        2    1    1    2  501    0 -1.09564167052E+02  8.40794661581E+02 -2.90919473739E+03  3.03023992280E+03  0.00000000000E+00  0.00000000000E+00  1.
        1    1    1    2  502    0 -2.68383960498E+01 -2.86806828683E+01 -8.44813028332E+02  8.45725684789E+02  0.00000000000E+00  0.00000000000E+00  1.
       25    2    1    2    0    0  1.36402563102E+02 -8.12113978713E+02  1.21359209766E+03  1.47192579743E+03  1.25000000000E+02  0.00000000000E+00  1.
       23    2    5    5    0    0  9.04395641349E+01 -5.90250701799E+02  9.30894119140E+02  1.10960232584E+03  8.98791117743E+01  0.00000000000E+00  1.
       23    2    5    5    0    0  4.59629989671E+01 -2.21863276914E+02  2.82697978520E+02  3.62323471587E+02  4.92342217713E+00  0.00000000000E+00  1.
      -12    1    6    6    0    0  1.49361323645E+01 -2.63450009642E+02  3.42984278319E+02  4.32743816599E+02  5.96046447754E-06  0.00000000000E+00  1.
       12    1    6    6    0    0  7.55034317704E+01 -3.26800692157E+02  5.87909840820E+02  6.76858509245E+02  1.46000966000E-05  0.00000000000E+00  1.
       -4    1    7    7    0  804  4.37186396501E+00 -2.01353808031E+01  2.48273882113E+01  3.22888771098E+01  1.27500000000E+00  0.00000000000E+00  1.
        4    1    7    7  804    0  4.15911350021E+01 -2.01727896111E+02  2.57870590309E+02  3.30034594477E+02  1.27500000000E+00  0.00000000000E+00  1.
</event>
<event>
11  60   1.0000000E+00   1.2500000E+02   7.8125000E-03   1.2380861E-01
        1   -1    0    0  501    0  0.00000000000E+00  0.00000000000E+00  1.51252874525E+03  1.51252874525E+03  0.00000000000E+00  0.00000000000E+00  1.
        2   -1    0    0  502    0  0.00000000000E+00  0.00000000000E+00 -2.25853424749E+03  2.25853424749E+03  0.00000000000E+00  0.00000000000E+00  1.
        2    1    1    2  501    0  2.82416643210E+01  3.70866048279E+01  3.58536529589E+02  3.61554215728E+02  0.00000000000E+00  0.00000000000E+00  1.
        1    1    1    2  502    0  5.14433935795E+02 -9.63679427323E+02  7.06071058505E+02  1.30071390113E+03  0.00000000000E+00  0.00000000000E+00  1.
       25    2    1    2    0    0 -5.42675600116E+02  9.26592822495E+02 -1.81061309033E+03  2.10879487588E+03  1.25000000000E+02  0.00000000000E+00  1.
       23    2    5    5    0    0 -1.86627737378E+02  3.03441526893E+02 -5.61474937924E+02  6.65074590278E+02  1.27840570651E+01  0.00000000000E+00  1.
       23    2    5    5    0    0 -3.56047862738E+02  6.23151295602E+02 -1.24913815241E+03  1.44372028560E+03  9.43107708114E+01  0.00000000000E+00  1.
       -2    1    6    6    0  804 -1.56226956634E+02  2.52962089666E+02 -4.59554733425E+02  5.47345625542E+02  1.19209289551E-05  0.00000000000E+00  1.
        2    1    6    6  804    0 -3.04007807440E+01  5.04794372263E+01 -1.01920204500E+02  1.17728964736E+02  1.49011611938E-06  0.00000000000E+00  1.
       -3    1    7    7    0  803 -2.02941597953E+02  2.92708626970E+02 -5.46820166729E+02  6.52591700241E+02  1.03238273118E-05  0.00000000000E+00  1.
        3    1    7    7  803    0 -1.53106264785E+02  3.30442668633E+02 -7.02317985677E+02  7.91128585361E+02  1.68587394044E-05  0.00000000000E+00  1.
</event>
<event>
11  60   1.0000000E+00   1.2500000E+02   7.8125000E-03   1.2380861E-01
        1   -1    0    0  501    0  0.00000000000E+00  0.00000000000E+00  4.07572379913E+03  4.07572379913E+03  0.00000000000E+00  0.00000000000E+00  1.
        2   -1    0    0  502    0  0.00000000000E+00  0.00000000000E+00 -3.98069853725E+03  3.98069853725E+03  0.00000000000E+00  0.00000000000E+00  1.
        2    1    1    2  501    0 -2.85861877313E+03 -1.90504719975E+03 -1.07828817229E+03  3.60050156309E+03  0.00000000000E+00  0.00000000000E+00  1.
        1    1    1    2  502    0 -1.62966482935E+01  1.32475770959E+01 -5.87645972760E+02  5.88021146172E+02  0.00000000000E+00  0.00000000000E+00  1.
       25    2    1    2    0    0  2.87491542142E+03  1.89179962265E+03  1.76095940693E+03  3.86789962712E+03  1.25000000000E+02  0.00000000000E+00  1.
       23    2    5    5    0    0  2.03868620056E+03  1.33438011422E+03  1.26528847052E+03  2.74699148337E+03  9.05294566068E+01  0.00000000000E+00  1.
       23    2    5    5    0    0  8.36229220864E+02  5.57419508427E+02  4.95670936406E+02  1.12090814375E+03  2.73783001324E+01  0.00000000000E+00  1.
       -4    1    6    6    0  804  1.00144635145E+03  6.83851974397E+02  5.86216941862E+02  1.34692250938E+03  1.27499999998E+00  0.00000000000E+00  1.
        4    1    6    6  804    0  1.03723984911E+03  6.50528139826E+02  6.79071528662E+02  1.40006897400E+03  1.27500000020E+00  0.00000000000E+00  1.
      -14    1    7    7    0    0  9.43899796080E+01  5.32508217358E+01  5.64623524190E+01  1.22201127272E+02  7.45058059692E-07  0.00000000000E+00  1.
       14    1    7    7    0    0  7.41839241256E+02  5.04168686691E+02  4.39208583987E+02  9.98707016475E+02  1.88486436615E-05  0.00000000000E+00  1.
</event>
<event>
11  60   1.0000000E+00   1.2500000E+02   7.8125000E-03   1.2380861E-01
        1   -1    0    0  501    0  0.00000000000E+00  0.00000000000E+00  2.08894964636E+03  2.08894964636E+03  0.00000000000E+00  0.00000000000E+00  1.
        2   -1    0    0  502    0  0.00000000000E+00  0.00000000000E+00 -1.99385662632E+03  1.99385662632E+03  0.00000000000E+00  0.00000000000E+00  1.
        2    1    1    2  501    0 -8.78148900829E+02 -2.30820862777E+02 -1.28698160053E+03  1.57503822266E+03  0.00000000000E+00  0.00000000000E+00  1.
        1    1    1    2  502    0 -1.85411769697E+01 -4.97671911851E+01 -4.45695256309E+02  4.48848315200E+02  0.00000000000E+00  0.00000000000E+00  1.
       25    2    1    2    0    0  8.96690077798E+02  2.80588053962E+02  1.82776987688E+03  2.05891973483E+03  1.25000000000E+02  0.00000000000E+00  1.
       23    2    5    5    0    0  4.95242476466E+02  1.32478809407E+02  9.96025907058E+02  1.12303430062E+03  7.95153281168E+01  0.00000000000E+00  1.
       23    2    5    5    0    0  4.01447601332E+02  1.48109244555E+02  8.31743969822E+02  9.35885434207E+02  3.14163920418E+01  0.00000000000E+00  1.
       -2    1    6    6    0  804  2.27184403223E+02  6.90249909678E+01  3.77841906249E+02  4.46252964767E+02  0.00000000000E+00  0.00000000000E+00  1.
        2    1    6    6  804    0  2.68058073243E+02  6.34538184393E+01  6.18184000809E+02  6.76781335855E+02  1.19209289551E-05  0.00000000000E+00  1.
       -4    1    7    7    0  803  4.94031520440E+01  1.19216324537E+01  1.17652704166E+02  1.28166224782E+02  1.27500000000E+00  0.00000000000E+00  1.
        4    1    7    7  803    0  3.52044449288E+02  1.36187612101E+02  7.14091265656E+02  8.07719209425E+02  1.27499999995E+00  0.00000000000E+00  1.
</event>
<event>
11  60   1.0000000E+00   1.2500000E+02   7.8125000E-03   1.2380861E-01
        2   -1    0    0  501    0  0.00000000000E+00  0.00000000000E+00  4.66434678312E+03  4.66434678312E+03  0.00000000000E+00  0.00000000000E+00  1.
        1   -1    0    0  502    0  0.00000000000E+00  0.00000000000E+00 -2.68253229899E+03  2.68253229899E+03  0.00000000000E+00  0.00000000000E+00  1.
        2    1    1    2  502    0 -1.75880728603E+03  1.63029607381E+03  1.76902163343E+03  2.98005132459E+03  0.00000000000E+00  0.00000000000E+00  1.
        1    1    1    2  501    0 -1.59631489315E+02 -9.47733930484E+01  1.55366798390E+03  1.56471991507E+03  0.00000000000E+00  0.00000000000E+00  1.
       25    2    1    2    0    0  1.91843877535E+03 -1.53552268076E+03 -1.34087513320E+03  2.80210784245E+03  1.25000000000E+02  0.00000000000E+00  1.
       23    2    5    5    0    0  1.46792606777E+03 -1.14435378232E+03 -1.03449624423E+03  2.13137012667E+03  9.05738263458E+01  0.00000000000E+00  1.
       23    2    5    5    0    0  4.50512707585E+02 -3.91168898443E+02 -3.06378888975E+02  6.70737715779E+02  6.80095253356E+00  0.00000000000E+00  1.
       -3    1    6    6    0  804  5.35795517405E+02 -3.97491077012E+02 -3.24818926736E+02  7.42013024105E+02  4.21468485109E-06  0.00000000000E+00  1.
        3    1    6    6  804    0  9.32130550360E+02 -7.46862705305E+02 -7.09677317489E+02  1.38935710257E+03  1.19209289551E-05  0.00000000000E+00  1.
       -4    1    7    7    0  803  3.09206251231E+01 -2.55032158104E+01 -2.11464145442E+01  4.53353675153E+01  1.27500000000E+00  0.00000000000E+00  1.
        4    1    7    7  803    0  4.19592082461E+02 -3.65665682633E+02 -2.85232474431E+02  6.25402348264E+02  1.27499999994E+00  0.00000000000E+00  1.
</event>
<event>
11  60   1.0000000E+00   1.2500000E+02   7.8125000E-03   1.2380861E-01
        2   -1    0    0  501    0  0.00000000000E+00  0.00000000000E+00  2.82413618748E+03  2.82413618748E+03  0.00000000000E+00  0.00000000000E+00  1.
        3   -1    0    0  502    0  0.00000000000E+00  0.00000000000E+00 -1.52032404283E+03  1.52032404283E+03  0.00000000000E+00  0.00000000000E+00  1.
        4    1    1    2  502    0 -1.80323326136E+03 -8.51797804298E+01  6.93026224263E+02  1.93369882282E+03  0.00000000000E+00  0.00000000000E+00  1.
        1    1    1    2  501    0 -5.30475615001E+01  4.01378060683E+01  5.44503148616E+02  5.48551516369E+02  0.00000000000E+00  0.00000000000E+00  1.
       25    2    1    2    0    0  1.85628082286E+03  4.50419743615E+01  6.62827717691E+01  1.86220989112E+03  1.25000000000E+02  0.00000000000E+00  1.
       23    2    5    5    0    0  6.76688514599E+02 -4.83660899006E+00  1.53044413125E+01  6.77005747792E+02  1.31079381525E+01  0.00000000000E+00  1.
       23    2    5    5    0    0  1.17959230826E+03  4.98785833516E+01  5.09783304566E+01  1.18520414333E+03  9.04664821929E+01  0.00000000000E+00  1.
       -2    1    6    6    0  804  2.73977311508E+02 -1.83803789950E+00  1.26318215529E+01  2.74274513070E+02  2.15616764553E-06  0.00000000000E+00  1.
        2    1    6    6  804    0  4.02711203092E+02 -2.99857109056E+00  2.67261975961E+00  4.02731234722E+02  8.42936970218E-06  0.00000000000E+00  1.
      -11    1    7    7    0    0  6.45804450013E+02  6.20042115614E+01  5.67082935236E+01  6.51247833365E+02  5.10927333170E-04  0.00000000000E+00  1.
       11    1    7    7    0    0  5.33787858247E+02 -1.21256282099E+01 -5.72996306703E+00  5.33956309962E+02  5.10951095088E-04  0.00000000000E+00  1.
</event>
<event>
11  60   1.0000000E+00   1.2500000E+02   7.8125000E-03   1.2380861E-01
        2   -1    0    0  501    0  0.00000000000E+00  0.00000000000E+00  4.24942965353E+03  4.24942965353E+03  0.00000000000E+00  0.00000000000E+00  1.
        3   -1    0    0  502    0  0.00000000000E+00  0.00000000000E+00 -4.38421051576E+03  4.38421051576E+03  0.00000000000E+00  0.00000000000E+00  1.
        2    1    1    2  501    0  1.02051710084E+03  1.85619979787E+03 -6.49300173215E+02  2.21551880102E+03  0.00000000000E+00  0.00000000000E+00  1.
        3    1    1    2  502    0 -5.79470860296E+01  1.61163281766E+01 -2.63064339078E+03  2.63133088954E+03  0.00000000000E+00  0.00000000000E+00  1.
       25    2    1    2    0    0 -9.62570014811E+02 -1.87231612605E+03  3.14516270176E+03  3.78679047873E+03  1.25000000000E+02  0.00000000000E+00  1.
       23    2    5    5    0    0 -4.28651562625E+02 -8.17620903346E+02  1.36228275321E+03  1.64562457097E+03  4.45254576389E+00  0.00000000000E+00  1.
       23    2    5    5    0    0 -5.33918452186E+02 -1.05469522270E+03  1.78287994855E+03  2.14116590776E+03  9.20847828076E+01  0.00000000000E+00  1.
      -13    1    6    6    0    0 -1.15344166773E+02 -2.16251124770E+02  3.60063386881E+02  4.35562256755E+02  1.05660000076E-01  0.00000000000E+00  1.
       13    1    6    6    0    0 -3.13307395852E+02 -6.01369778576E+02  1.00221936633E+03  1.21006231422E+03  1.05659998983E-01  0.00000000000E+00  1.
      -15    1    7    7    0    0 -2.77182915543E+02 -6.21714423669E+02  9.69006561378E+02  1.18420271334E+03  1.77679999994E+00  0.00000000000E+00  1.
       15    1    7    7    0    0 -2.56735536644E+02 -4.32980799035E+02  8.13873387170E+02  9.56963194418E+02  1.77679999994E+00  0.00000000000E+00  1.
</event>
<event>
11  60   1.0000000E+00   1.2500000E+02   7.8125000E-03   1.2380861E-01
        1   -1    0    0  501    0  0.00000000000E+00  0.00000000000E+00  2.29091152162E+03  2.29091152162E+03  0.00000000000E+00  0.00000000000E+00  1.
        2   -1    0    0  502    0  0.00000000000E+00  0.00000000000E+00 -2.10828633008E+03  2.10828633008E+03  0.00000000000E+00  0.00000000000E+00  1.
        2    1    1    2  502    0 -3.54826584567E+02 -1.91390558702E+03  9.50496809295E+02  2.16619036228E+03  0.00000000000E+00  0.00000000000E+00  1.
        1    1    1    2  501    0 -9.92305661985E+00  1.91104542341E+01  1.08094660444E+02  1.10218565270E+02  0.00000000000E+00  0.00000000000E+00  1.
       25    2    1    2    0    0  3.64749641187E+02  1.89479513279E+03 -8.75966278203E+02  2.12278892416E+03  1.25000000000E+02  0.00000000000E+00  1.
       23    2    5    5    0    0  2.76334860651E+02  1.51652656545E+03 -6.75310888648E+02  1.68552029533E+03  9.33814258465E+01  0.00000000000E+00  1.
       23    2    5    5    0    0  8.84147805357E+01  3.78268567338E+02 -2.00655389555E+02  4.37268628835E+02  6.08160773388E+00  0.00000000000E+00  1.
      -16    1    6    6    0    0  2.62422265324E+02  1.41554736985E+03 -6.54622532917E+02  1.58150891943E+03  1.88486436615E-05  0.00000000000E+00  1.
       16    1    6    6    0    0  1.39125953270E+01  1.00979195602E+02 -2.06883557310E+01  1.04011375897E+02  2.62097404887E-06  0.00000000000E+00  1.
       -4    1    7    7    0  803  8.79133209949E+00  3.25871199725E+01 -1.74166591567E+01  3.80022834756E+01  1.27500000000E+00  0.00000000000E+00  1.
        4    1    7    7  803    0  7.96234484362E+01  3.45681447365E+02 -1.83238730399E+02  3.99266345359E+02  1.27499999999E+00  0.00000000000E+00  1.
</event>
<event>
11  60   1.0000000E+00   1.2500000E+02   7.8125000E-03   1.2380861E-01
        2   -1    0    0  501    0  0.00000000000E+00  0.00000000000E+00  2.72251452916E+03  2.72251452916E+03  0.00000000000E+00  0.00000000000E+00  1.
        1   -1    0    0  502    0  0.00000000000E+00  0.00000000000E+00 -3.48871718423E+03  3.48871718423E+03  0.00000000000E+00  0.00000000000E+00  1.
        2    1    1    2  502    0  1.74116091868E+03  5.72550374146E+02  1.57598799647E+03  2.41726983200E+03  0.00000000000E+00  0.00000000000E+00  1.
        3    1    1    2  501    0  1.37333440367E+01 -3.45260576503E+01  4.49245785557E+02  4.50779801273E+02  0.00000000000E+00  0.00000000000E+00  1.
       25    2    1    2    0    0 -1.75489426272E+03 -5.38024316496E+02 -2.79143643709E+03  3.34318208011E+03  1.25000000000E+02  0.00000000000E+00  1.
       23    2    5    5    0    0 -1.02179548763E+03 -3.30026503906E+02 -1.63487360686E+03  1.95805351826E+03  9.04342753637E+01  0.00000000000E+00  1.
       23    2    5    5    0    0 -7.33098775087E+02 -2.07997812590E+02 -1.15656283023E+03  1.38512856185E+03  1.57050466059E+01  0.00000000000E+00  1.
      -14    1    6    6    0    0 -5.91862752873E+02 -1.67214382556E+02 -8.64972340509E+02  1.06133845583E+03  1.19209289551E-05  0.00000000000E+00  1.
       14    1    6    6    0    0 -4.29932734760E+02 -1.62812121350E+02 -7.69901266349E+02  8.96715062438E+02  0.00000000000E+00  0.00000000000E+00  1.
      -16    1    7    7    0    0 -2.08766781493E+02 -5.20441452997E+01 -3.23823528260E+02  3.88785081465E+02  4.21468485109E-06  0.00000000000E+00  1.
       16    1    7    7    0    0 -5.24331993594E+02 -1.55953667290E+02 -8.32739301972E+02  9.96343480380E+02  0.00000000000E+00  0.00000000000E+00  1.
</event>
<event>
11  60   1.0000000E+00   1.2500000E+02   7.8125000E-03   1.2380861E-01
        2   -1    0    0  501    0  0.00000000000E+00  0.00000000000E+00  4.36919930898E+03  4.36919930898E+03  0.00000000000E+00  0.00000000000E+00  1.
        1   -1    0    0  502    0  0.00000000000E+00  0.00000000000E+00 -2.28930889834E+03  2.28930889834E+03  0.00000000000E+00  0.00000000000E+00  1.
        2    1    1    2  502    0  1.08066218475E+03 -2.28685173350E+03  1.42722506846E+03  2.90421986161E+03  0.00000000000E+00  0.00000000000E+00  1.
        1    1    1    2  501    0  2.48399187174E+01  3.82602872884E+01  1.18813499488E+03  1.18901036043E+03  0.00000000000E+00  0.00000000000E+00  1.
       25    2    1    2    0    0 -1.10550210347E+03  2.24859144621E+03 -5.35469652707E+02  2.56527798527E+03  1.25000000000E+02  0.00000000000E+00  1.
       23    2    5    5    0    0 -2.48702781327E+02  4.30583981553E+02 -9.67545880009E+01  5.06599258929E+02  5.07151244750E+00  0.00000000000E+00  1.
       23    2    5    5    0    0 -8.56799322143E+02  1.81800746466E+03 -4.38715064706E+02  2.05867872634E+03  8.01933308643E+01  0.00000000000E+00  1.
      -11    1    6    6    0    0 -1.08810006799E+02  1.88457006018E+02 -4.49067735821E+01  2.22198737644E+02  5.10988987099E-04  0.00000000000E+00  1.
       11    1    6    6    0    0 -1.39892774528E+02  2.42126975535E+02 -5.18478144188E+01  2.84400521285E+02  5.10977308732E-04  0.00000000000E+00  1.
      -16    1    7    7    0    0 -5.47668714524E+02  1.24957599432E+03 -3.01051401999E+02  1.39714463571E+03  1.03238273118E-05  0.00000000000E+00  1.
       16    1    7    7    0    0 -3.09130607619E+02  5.68431470341E+02 -1.37663662707E+02  6.61534090633E+02  1.23778341158E-05  0.00000000000E+00  1.
</event>
<event>
11  60   1.0000000E+00   1.2500000E+02   7.8125000E-03   1.2380861E-01
        2   -1    0    0  501    0  0.00000000000E+00  0.00000000000E+00  5.36806211503E+03  5.36806211503E+03  0.00000000000E+00  0.00000000000E+00  1.
        2   -1    0    0  502    0  0.00000000000E+00  0.00000000000E+00 -2.80433142359E+03  2.80433142359E+03  0.00000000000E+00  0.00000000000E+00  1.
        2    1    1    2  501    0 -6.28187637439E+01 -2.78023240848E+01  1.71308796168E+03  1.71446479426E+03  0.00000000000E+00  0.00000000000E+00  1.
        2    1    1    2  502    0 -1.64178730888E+03  1.86722292331E+03  2.44213673086E+03  3.48511388984E+03  0.00000000000E+00  0.00000000000E+00  1.
       25    2    1    2    0    0  1.70460607263E+03 -1.83942059922E+03 -1.59149400110E+03  2.97281485451E+03  1.25000000000E+02  0.00000000000E+00  1.
       23    2    5    5    0    0  5.33587629286E+02 -5.73310172479E+02 -4.81053144838E+02  9.19188955682E+02  9.79265514294E+00  0.00000000000E+00  1.
       23    2    5    5    0    0  1.17101844334E+03 -1.26611042674E+03 -1.11044085626E+03  2.05362589883E+03  9.99031016842E+01  0.00000000000E+00  1.
       -2    1    6    6    0  804  2.44869416246E+02 -2.68421902072E+02 -2.19318953421E+02  4.24396220358E+02  9.42432183077E-06  0.00000000000E+00  1.
        2    1    6    6  804    0  2.88718213040E+02 -3.04888270407E+02 -2.61734191418E+02  4.94792735324E+02  4.21468485109E-06  0.00000000000E+00  1.
      -14    1    7    7    0    0  5.94901210283E+02 -6.37589948598E+02 -5.02245235163E+02  1.00631936720E+03  1.03238273118E-05  0.00000000000E+00  1.
       14    1    7    7    0    0  5.76117233061E+02 -6.28520478144E+02 -6.08195621099E+02  1.04730653163E+03  1.46000966000E-05  0.00000000000E+00  1.
</event>
<event>
11  60   1.0000000E+00   1.2500000E+02   7.8125000E-03   1.2380861E-01
        3   -1    0    0  501    0  0.00000000000E+00  0.00000000000E+00  3.55600764655E+03  3.55600764655E+03  0.00000000000E+00  0.00000000000E+00  1.
        2   -1    0    0  502    0  0.00000000000E+00  0.00000000000E+00 -2.96793315590E+03  2.96793315590E+03  0.00000000000E+00  0.00000000000E+00  1.
        4    1    1    2  501    0  3.74737482860E+00 -2.40195759022E+03 -7.85459601692E+02  2.52712506495E+03  0.00000000000E+00  0.00000000000E+00  1.
        1    1    1    2  502    0 -7.86761149183E-01  2.07776666395E+01 -7.82119621570E+02  7.82395956578E+02  0.00000000000E+00  0.00000000000E+00  1.
       25    2    1    2    0    0 -2.96061367942E+00  2.38117992358E+03  2.15565371391E+03  3.21441978092E+03  1.25000000000E+02  0.00000000000E+00  1.
       23    2    5    5    0    0 -3.20931365841E+01  1.54150692002E+03  1.37864774674E+03  2.06995475216E+03  8.22770473833E+01  0.00000000000E+00  1.
       23    2    5    5    0    0  2.91325229047E+01  8.39673003561E+02  7.77005967169E+02  1.14446502876E+03  1.27464595648E+01  0.00000000000E+00  1.
      -16    1    6    6    0    0 -2.60530961478E+01  7.37008808727E+02  7.12625164584E+02  1.02552200033E+03  1.68587394044E-05  0.00000000000E+00  1.
       16    1    6    6    0    0 -6.04004043632E+00  8.04498111293E+02  6.66022582157E+02  1.04443275183E+03  8.42936970218E-06  0.00000000000E+00  1.
       -1    1    7    7    0  804  3.83119264443E+00  6.02610417071E+01  5.20884725840E+01  7.97450949014E+01  1.66600046866E-06  0.00000000000E+00  1.
        1    1    7    7  804    0  2.53013302603E+01  7.79411961854E+02  7.24917494585E+02  1.06471993386E+03  1.68587394044E-05  0.00000000000E+00  1.
</event>
<event>
11  60   1.0000000E+00   1.2500000E+02   7.8125000E-03   1.2380861E-01
        1   -1    0    0  501    0  0.00000000000E+00  0.00000000000E+00  2.36560066232E+03  2.36560066232E+03  0.00000000000E+00  0.00000000000E+00  1.
        2   -1    0    0  502    0  0.00000000000E+00  0.00000000000E+00 -1.32813827880E+03  1.32813827880E+03  0.00000000000E+00  0.00000000000E+00  1.
        2    1    1    2  501    0 -8.16676720236E+02  1.04536439128E+03  1.02986113379E+01  1.32659475249E+03  0.00000000000E+00  0.00000000000E+00  1.
        1    1    1    2  502    0 -1.41972634854E+02  5.57462457321E+01 -3.34002938144E+02  3.67180930400E+02  0.00000000000E+00  0.00000000000E+00  1.
       25    2    1    2    0    0  9.58649355090E+02 -1.10111063701E+03  1.36116671032E+03  1.99996325823E+03  1.25000000000E+02  0.00000000000E+00  1.
       23    2    5    5    0    0  6.86595146059E+02 -7.98466766812E+02  1.01938969332E+03  1.46848936441E+03  9.13432768438E+01  0.00000000000E+00  1.
       23    2    5    5    0    0  2.72054209031E+02 -3.02643870198E+02  3.41777016997E+02  5.31473893824E+02  6.79453085274E+00  0.00000000000E+00  1.
       -4    1    6    6    0  804  5.70488669827E+01 -9.23082972640E+01  1.37368198218E+02  1.75062967171E+02  1.27500000000E+00  0.00000000000E+00  1.
        4    1    6    6  804    0  6.29546279077E+02 -7.06158469548E+02  8.82021495104E+02  1.29342639724E+03  1.27499999992E+00  0.00000000000E+00  1.
      -15    1    7    7    0    0  5.06600425499E+01 -5.87074415247E+01  6.35457924321E+01  1.00270775182E+02  1.77680000000E+00  0.00000000000E+00  1.
       15    1    7    7    0    0  2.21394166481E+02 -2.43936428673E+02  2.78231224565E+02  4.31203118642E+02  1.77680000000E+00  0.00000000000E+00  1.
</event>
<event>
11  60   1.0000000E+00   1.2500000E+02   7.8125000E-03   1.2380861E-01
        2   -1    0    0  501    0  0.00000000000E+00  0.00000000000E+00  3.13281279850E+03  3.13281279850E+03  0.00000000000E+00  0.00000000000E+00  1.
        1   -1    0    0  502    0  0.00000000000E+00  0.00000000000E+00 -2.58065147165E+03  2.58065147165E+03  0.00000000000E+00  0.00000000000E+00  1.
        2    1    1    2  501    0 -4.15821325251E+01 -7.42311523341E+01  1.83866910289E+03  1.84063668540E+03  0.00000000000E+00  0.00000000000E+00  1.
        1    1    1    2  502    0 -1.54704794551E+02  8.04265876542E+02  1.09710170618E+03  1.36909069361E+03  0.00000000000E+00  0.00000000000E+00  1.
       25    2    1    2    0    0  1.96286927076E+02 -7.30034724208E+02 -2.38360948222E+03  2.50373689114E+03  1.25000000000E+02  0.00000000000E+00  1.
       23    2    5    5    0    0  7.95522959908E+01 -2.73846108810E+02 -8.42853429162E+02  8.90202490449E+02  2.71718943744E+01  0.00000000000E+00  1.
       23    2    5    5    0    0  1.16734631085E+02 -4.56188615398E+02 -1.54075605306E+03  1.61353440069E+03  8.84817510263E+01  0.00000000000E+00  1.
       -3    1    6    6    0  803  1.56579262062E+01 -5.77741444837E+01 -1.44791867060E+02  1.56677079340E+02  2.98023223877E-06  0.00000000000E+00  1.
        3    1    6    6  803    0  6.38943697846E+01 -2.16071964326E+02 -6.98061562102E+02  7.33525411109E+02  1.19209289551E-05  0.00000000000E+00  1.
       -4    1    7    7    0  804  7.37677351730E+01 -1.80344458887E+02 -7.51841356420E+02  7.76680663756E+02  1.27499999992E+00  0.00000000000E+00  1.
        4    1    7    7  804    0  4.29668959123E+01 -2.75844156512E+02 -7.88914696638E+02  8.36853736935E+02  1.27500000006E+00  0.00000000000E+00  1.
</event>
<event>
11  60   1.0000000E+00   1.2500000E+02   7.8125000E-03   1.2380861E-01
        1   -1    0    0  501    0  0.00000000000E+00  0.00000000000E+00  2.55362952359E+03  2.55362952359E+03  0.00000000000E+00  0.00000000000E+00  1.
        2   -1    0    0  502    0  0.00000000000E+00  0.00000000000E+00 -3.29891524704E+03  3.29891524704E+03  0.00000000000E+00  0.00000000000E+00  1.
        2    1    1    2  502    0 -9.39085934061E+01 -3.53013515395E-01 -4.85812318545E+02  4.94805575336E+02  0.00000000000E+00  0.00000000000E+00  1.
        1    1    1    2  501    0  1.85176962819E+03 -7.90366124423E+02 -1.94110789198E+03  2.79671757866E+03  0.00000000000E+00  0.00000000000E+00  1.
       25    2    1    2    0    0 -1.75786103478E+03  7.90719137938E+02  1.68163448707E+03  2.56102161662E+03  1.25000000000E+02  0.00000000000E+00  1.
       23    2    5    5    0    0 -1.06490420560E+03  4.80415243456E+02  9.90842609036E+02  1.53388329137E+03  7.87978580346E+01  0.00000000000E+00  1.
       23    2    5    5    0    0 -6.92956829184E+02  3.10303894482E+02  6.90791878034E+02  1.02713832525E+03  3.66339513317E+01  0.00000000000E+00  1.
       -2    1    6    6    0  804 -4.63688578130E+02  1.66843291557E+02  4.23381456507E+02  6.49688878725E+02  8.42936970218E-06  0.00000000000E+00  1.
        2    1    6    6  804    0 -6.01215627466E+02  3.13571951900E+02  5.67461152529E+02  8.84194412648E+02  8.42936970218E-06  0.00000000000E+00  1.
       -5    1    7    7    0  803 -3.78070142400E+02  1.67243997861E+02  3.99720902896E+02  5.75071256547E+02  4.75000000002E+00  0.00000000000E+00  1.
        5    1    7    7  803    0 -3.14886686784E+02  1.43059896621E+02  2.91070975138E+02  4.52067068700E+02  4.74999999999E+00  0.00000000000E+00  1.
</event>
<event>
11  60   1.0000000E+00   1.2500000E+02   7.8125000E-03   1.2380861E-01
        1   -1    0    0  501    0  0.00000000000E+00  0.00000000000E+00  1.48882898562E+03  1.48882898562E+03  0.00000000000E+00  0.00000000000E+00  1.
        2   -1    0    0  502    0  0.00000000000E+00  0.00000000000E+00 -2.63471440303E+03  2.63471440303E+03  0.00000000000E+00  0.00000000000E+00  1.
        2    1    1    2  501    0  5.01920321349E+02 -5.86369743945E+02 -1.07214372321E+03  1.32107745754E+03  0.00000000000E+00  0.00000000000E+00  1.
        1    1    1    2  502    0 -1.18830270879E+02  1.42042722278E+01 -1.34553202689E+03  1.35084374744E+03  0.00000000000E+00  0.00000000000E+00  1.
       25    2    1    2    0    0 -3.83090050470E+02  5.72165471717E+02  1.27179033268E+03  1.45162218366E+03  1.25000000000E+02  0.00000000000E+00  1.
       23    2    5    5    0    0 -3.16153006568E+02  4.93434316419E+02  1.12566547320E+03  1.27254551880E+03  9.39105515487E+01  0.00000000000E+00  1.
       23    2    5    5    0    0 -6.69370439018E+01  7.87311552976E+01  1.46124859483E+02  1.79076664858E+02  6.06750995194E+00  0.00000000000E+00  1.
      -13    1    6    6    0    0 -1.94638381654E+02  3.79639421387E+02  8.30386635314E+02  9.33569582386E+02  1.05659998983E-01  0.00000000000E+00  1.
       13    1    6    6    0    0 -1.21514624914E+02  1.13794895032E+02  2.95278837883E+02  3.38975936416E+02  1.05659999655E-01  0.00000000000E+00  1.
       -1    1    7    7    0  803 -2.57487226282E+01  3.48178240246E+01  6.21410648262E+01  7.57415970556E+01  7.45058059692E-07  0.00000000000E+00  1.
        1    1    7    7  803    0 -4.11883212736E+01  4.39133312730E+01  8.39837946565E+01  1.03335067802E+02  1.05367121277E-06  0.00000000000E+00  1.
</event>
<event>
11  60   1.0000000E+00   1.2500000E+02   7.8125000E-03   1.2380861E-01
        2   -1    0    0  501    0  0.00000000000E+00  0.00000000000E+00  4.11611872736E+03  4.11611872736E+03  0.00000000000E+00  0.00000000000E+00  1.
        1   -1    0    0  502    0  0.00000000000E+00  0.00000000000E+00 -2.45181822408E+03  2.45181822408E+03  0.00000000000E+00  0.00000000000E+00  1.
        2    1    1    2  502    0  2.17184176635E+03  1.00454664842E+03 -4.40119311612E+02  2.43304657485E+03  0.00000000000E+00  0.00000000000E+00  1.
        1    1    1    2  501    0  3.40228172281E+01  1.19856619633E+02  1.60023557732E+03  1.60507852278E+03  0.00000000000E+00  0.00000000000E+00  1.
       25    2    1    2    0    0 -2.20586458358E+03 -1.12440326805E+03  5.04184237575E+02  2.52981185382E+03  1.25000000000E+02  0.00000000000E+00  1.
       23    2    5    5    0    0 -1.00510926911E+03 -5.00327178550E+02  2.23741341499E+02  1.14489806103E+03  1.26275020488E+01  0.00000000000E+00  1.
       23    2    5    5    0    0 -1.20075531447E+03 -6.24076089500E+02  2.80442896076E+02  1.38491379279E+03  8.97424358185E+01  0.00000000000E+00  1.
      -13    1    6    6    0    0 -1.05102110051E+02 -4.81160601918E+01  2.22708576982E+01  1.17718354780E+02  1.05659999997E-01  0.00000000000E+00  1.
       13    1    6    6    0    0 -9.00007159063E+02 -4.52211118359E+02  2.01470483801E+02  1.02717970625E+03  1.05659998478E-01  0.00000000000E+00  1.
       -2    1    7    7    0  803 -8.66536123931E+02 -4.49175889874E+02  1.60900430015E+02  9.89208159338E+02  2.17985195493E-05  0.00000000000E+00  1.
        2    1    7    7  803    0 -3.34219190535E+02 -1.74900199626E+02  1.19542466061E+02  3.95705633449E+02  4.94215606206E-06  0.00000000000E+00  1.
</event>
<event>
11  60   1.0000000E+00   1.2500000E+02   7.8125000E-03   1.2380861E-01
        1   -1    0    0  501    0  0.00000000000E+00  0.00000000000E+00  2.37953165267E+03  2.37953165267E+03  0.00000000000E+00  0.00000000000E+00  1.
        2   -1    0    0  502    0  0.00000000000E+00  0.00000000000E+00 -3.48162218390E+03  3.48162218390E+03  0.00000000000E+00  0.00000000000E+00  1.
        2    1    1    2  501    0 -6.60791262072E+01  4.47257853803E+02 -2.42572624227E+03  2.46749951188E+03  0.00000000000E+00  0.00000000000E+00  1.
        1    1    1    2  502    0  5.91831249135E+01 -3.20306572247E+01 -1.01394869603E+03  1.01617939532E+03  0.00000000000E+00  0.00000000000E+00  1.
       25    2    1    2    0    0  6.89600129367E+00 -4.15227196578E+02  2.33758440707E+03  2.37747492937E+03  1.25000000000E+02  0.00000000000E+00  1.
       23    2    5    5    0    0 -3.70401710173E+00 -2.87602100752E+02  1.72175829295E+03  1.74818460419E+03  9.47053476759E+01  0.00000000000E+00  1.
       23    2    5    5    0    0  1.06000183954E+01 -1.27625095826E+02  6.15826114122E+02  6.29290325184E+02  1.90783925127E+01  0.00000000000E+00  1.
      -14    1    6    6    0    0 -2.23369573265E+01 -2.38278432423E+02  1.19054939555E+03  1.21436543687E+03  1.68587394044E-05  0.00000000000E+00  1.
       14    1    6    6    0    0  1.86329402247E+01 -4.93236683281E+01  5.31208897402E+02  5.33819167319E+02  1.19209289551E-05  0.00000000000E+00  1.
      -15    1    7    7    0    0  2.62407273243E+00 -1.05995129406E+02  5.21431461508E+02  5.32105045347E+02  1.77680000000E+00  0.00000000000E+00  1.
       15    1    7    7    0    0  7.97594566296E+00 -2.16299664201E+01  9.43946526141E+01  9.71852798367E+01  1.77680000000E+00  0.00000000000E+00  1.
</event>
<event>
11  60   1.0000000E+00   1.2500000E+02   7.8125000E-03   1.2380861E-01
        1   -1    0    0  501    0  0.00000000000E+00  0.00000000000E+00  2.36873179300E+03  2.36873179300E+03  0.00000000000E+00  0.00000000000E+00  1.
        2   -1    0    0  502    0  0.00000000000E+00  0.00000000000E+00 -3.24859481951E+03  3.24859481951E+03  0.00000000000E+00  0.00000000000E+00  1.
        2    1    1    2  501    0  2.64933803268E+01  2.44661039059E+01  9.05838575585E+02  9.06556128687E+02  0.00000000000E+00  0.00000000000E+00  1.
        1    1    1    2  502    0  1.16397313127E+03  7.89028275310E+01  1.08848253402E+03  1.59557304232E+03  0.00000000000E+00  0.00000000000E+00  1.
       25    2    1    2    0    0 -1.19046651160E+03 -1.03368931437E+02 -2.87418413611E+03  3.11519744150E+03  1.25000000000E+02  0.00000000000E+00  1.
       23    2    5    5    0    0 -5.20713303460E+02 -4.58566863332E+01 -1.30092153808E+03  1.40202491450E+03  5.64203515496E+00  0.00000000000E+00  1.
       23    2    5    5    0    0 -6.69753208140E+02 -5.75122451038E+01 -1.57326259803E+03  1.71317252700E+03  8.90386812113E+01  0.00000000000E+00  1.
       -2    1    6    6    0  803 -3.80443487459E+02 -3.11385382471E+01 -9.47652609333E+02  1.02164197432E+03  2.06476546236E-05  0.00000000000E+00  1.
        2    1    6    6  803    0 -1.40269816001E+02 -1.47181480861E+01 -3.53268928745E+02  3.80382940181E+02  5.96046447754E-06  0.00000000000E+00  1.
       -3    1    7    7    0  804 -5.07433832289E+02 -6.49342513826E+01 -1.26911552473E+03  1.36834197709E+03  1.68587394044E-05  0.00000000000E+00  1.
        3    1    7    7  804    0 -1.62319375850E+02  7.42200627878E+00 -3.04147073303E+02  3.44830549912E+02  8.42936970218E-06  0.00000000000E+00  1.
</event>
<event>
11  60   1.0000000E+00   1.2500000E+02   7.8125000E-03   1.2380861E-01
        1   -1    0    0  501    0  0.00000000000E+00  0.00000000000E+00  2.07649699849E+03  2.07649699849E+03  0.00000000000E+00  0.00000000000E+00  1.
        2   -1    0    0  502    0  0.00000000000E+00  0.00000000000E+00 -4.52410983647E+03  4.52410983647E+03  0.00000000000E+00  0.00000000000E+00  1.
        2    1    1    2  502    0  3.30721581142E+01  3.29907712809E+01 -1.69112621214E+03  1.69177126823E+03  0.00000000000E+00  0.00000000000E+00  1.
        1    1    1    2  501    0 -1.60698100871E+02 -3.61426210554E+02 -2.80182486574E+03  2.82960692739E+03  0.00000000000E+00  0.00000000000E+00  1.
       25    2    1    2    0    0  1.27625942757E+02  3.28435439273E+02  2.04533823990E+03  2.07922863933E+03  1.25000000000E+02  0.00000000000E+00  1.
       23    2    5    5    0    0  1.72242097845E+01  8.58741596739E+01  5.00938857535E+02  5.09291841699E+02  2.77019192629E+01  0.00000000000E+00  1.
       23    2    5    5    0    0  1.10401732972E+02  2.42561279599E+02  1.54439938237E+03  1.56993679763E+03  9.22365399432E+01  0.00000000000E+00  1.
       -4    1    6    6    0  803  1.43245252906E+01  6.52549168362E+01  4.35828344387E+02  4.40921044624E+02  1.27500000001E+00  0.00000000000E+00  1.
        4    1    6    6  803    0  2.89968449397E+00  2.06192428377E+01  6.51105131475E+01  6.83707970752E+01  1.27500000000E+00  0.00000000000E+00  1.
       -1    1    7    7    0  804  1.14080643320E+02  1.66250950223E+02  9.92390657249E+02  1.01266627683E+03  1.68587394044E-05  0.00000000000E+00  1.
        1    1    7    7  804    0 -3.67891034748E+00  7.63103293763E+01  5.52008725116E+02  5.57270520802E+02  1.46000966000E-05  0.00000000000E+00  1.
</event>
<event>
11  60   1.0000000E+00   1.2500000E+02   7.8125000E-03   1.2380861E-01
        2   -1    0    0  501    0  0.00000000000E+00  0.00000000000E+00  4.01462060527E+03  4.01462060527E+03  0.00000000000E+00  0.00000000000E+00  1.
        1   -1    0    0  502    0  0.00000000000E+00  0.00000000000E+00 -2.26076537074E+03  2.26076537074E+03  0.00000000000E+00  0.00000000000E+00  1.
        2    1    1    2  502    0  2.96218725792E+01 -5.04965143773E+01 -5.60641421493E+02  5.63689769992E+02  0.00000000000E+00  0.00000000000E+00  1.
        1    1    1    2  501    0  6.12105698518E+02  2.68476556851E+02 -1.60157116902E+03  1.73544900737E+03  0.00000000000E+00  0.00000000000E+00  1.
       25    2    1    2    0    0 -6.41727571097E+02 -2.17980042474E+02  3.91606782504E+03  3.97624719865E+03  1.25000000000E+02  0.00000000000E+00  1.
       23    2    5    5    0    0 -1.32914442983E+02 -5.88175124241E+01  6.96595221877E+02  7.11653380735E+02  8.93768703866E+00  0.00000000000E+00  1.
       23    2    5    5    0    0 -5.08813128114E+02 -1.59162530050E+02  3.21947260316E+03  3.26459381791E+03  9.13533969450E+01  0.00000000000E+00  1.
       -4    1    6    6    0  803 -4.46299645467E+01 -2.04688426173E+01  2.55159586156E+02  2.59843890222E+02  1.27500000000E+00  0.00000000000E+00  1.
        4    1    6    6  803    0 -8.82844784360E+01 -3.83486698068E+01  4.41435635720E+02  4.51809490513E+02  1.27499999999E+00  0.00000000000E+00  1.
       -1    1    7    7    0  804 -1.71705875532E+02 -8.50649290724E+01  1.34910467797E+03  1.36264536178E+03  3.37174788087E-05  0.00000000000E+00  1.
        1    1    7    7  804    0 -3.37107252582E+02 -7.40976009775E+01  1.87036792519E+03  1.90194845614E+03  0.00000000000E+00  0.00000000000E+00  1.
</event>
<event>
11  60   1.0000000E+00   1.2500000E+02   7.8125000E-03   1.2380861E-01
        1   -1    0    0  501    0  0.00000000000E+00  0.00000000000E+00  3.32373462369E+03  3.32373462369E+03  0.00000000000E+00  0.00000000000E+00  1.
        2   -1    0    0  502    0  0.00000000000E+00  0.00000000000E+00 -2.06961817897E+03  2.06961817897E+03  0.00000000000E+00  0.00000000000E+00  1.
        2    1    1    2  502    0  1.26071133944E+03 -2.87799007268E+02  2.28374809069E+03  2.62444788321E+03  0.00000000000E+00  0.00000000000E+00  1.
        1    1    1    2  501    0 -3.96408767757E+01 -5.35160944806E+01  6.54102866652E+02  6.57484548596E+02  0.00000000000E+00  0.00000000000E+00  1.
       25    2    1    2    0    0 -1.22107046266E+03  3.41315101749E+02 -1.68373451262E+03  2.11142037085E+03  1.25000000000E+02  0.00000000000E+00  1.
       23    2    5    5    0    0 -8.75132533833E+02  2.52555690246E+02 -1.22020358242E+03  1.52528500498E+03  8.91977322371E+01  0.00000000000E+00  1.
       23    2    5    5    0    0 -3.45937928827E+02  8.87594115035E+01 -4.63530930205E+02  5.86135365868E+02  3.38002978230E+01  0.00000000000E+00  1.
      -16    1    6    6    0    0 -3.32117724040E+02  1.40749677173E+02 -4.91242673789E+02  6.09452228479E+02  1.19209289551E-05  0.00000000000E+00  1.
       16    1    6    6    0    0 -5.43014809793E+02  1.11806013073E+02 -7.28960908626E+02  9.15832776503E+02  1.46000966000E-05  0.00000000000E+00  1.
      -16    1    7    7    0    0 -1.05875365946E+02  2.57759482800E+01 -1.16865708540E+02  1.59786064650E+02  1.49011611938E-06  0.00000000000E+00  1.
       16    1    7    7    0    0 -2.40062562881E+02  6.29834632235E+01 -3.46665221665E+02  4.26349301218E+02  7.30004829998E-06  0.00000000000E+00  1.
</event>
<event>
11  60   1.0000000E+00   1.2500000E+02   7.8125000E-03   1.2380861E-01
        2   -1    0    0  501    0  0.00000000000E+00  0.00000000000E+00  1.31029576676E+03  1.31029576676E+03  0.00000000000E+00  0.00000000000E+00  1.
        1   -1    0    0  502    0  0.00000000000E+00  0.00000000000E+00 -1.67913444061E+03  1.67913444061E+03  0.00000000000E+00  0.00000000000E+00  1.
        2    1    1    2  502    0 -3.04235426138E+01  8.82879861329E+00 -8.58545414498E+01  9.15125232833E+01  0.00000000000E+00  0.00000000000E+00  1.
        1    1    1    2  501    0 -6.56573756508E+02  5.64903226555E+02 -1.28429675258E+03  1.54907162578E+03  0.00000000000E+00  0.00000000000E+00  1.
       25    2    1    2    0    0  6.86997299122E+02 -5.73732025168E+02  1.00131262018E+03  1.34884605832E+03  1.25000000000E+02  0.00000000000E+00  1.
       23    2    5    5    0    0  4.68404564316E+02 -4.13291650757E+02  7.07801854763E+02  9.46373657622E+02  6.65342752063E+01  0.00000000000E+00  1.
       23    2    5    5    0    0  2.18592734806E+02 -1.60440374411E+02  2.93510765417E+02  4.02472400698E+02  4.80787526554E+01  0.00000000000E+00  1.
       -1    1    6    6    0  804  8.03481616099E+01 -1.06334389576E+02  1.58545554929E+02  2.07121998997E+02  2.10734242554E-06  0.00000000000E+00  1.
        1    1    6    6  804    0  3.88056402706E+02 -3.06957261181E+02  5.49256299834E+02  7.39251658625E+02  5.96046447754E-06  0.00000000000E+00  1.
      -11    1    7    7    0    0  9.23862966835E+00  3.07047578355E+00  9.88130658734E+00  1.38715651540E+01  5.10999086635E-04  0.00000000000E+00  1.
       11    1    7    7    0    0  2.09354105137E+02 -1.63510850194E+02  2.83629458829E+02  3.88600835544E+02  5.11038141951E-04  0.00000000000E+00  1.
</event>
<event>
11  60   1.0000000E+00   1.2500000E+02   7.8125000E-03   1.2380861E-01
        2   -1    0    0  501    0  0.00000000000E+00  0.00000000000E+00  2.91136469506E+03  2.91136469506E+03  0.00000000000E+00  0.00000000000E+00  1.
        1   -1    0    0  502    0  0.00000000000E+00  0.00000000000E+00 -4.41836090794E+03  4.41836090794E+03  0.00000000000E+00  0.00000000000E+00  1.
        2    1    1    2  502    0 -1.26949827372E+03  5.48534929734E+02  2.24354975855E+03  2.63553257525E+03  0.00000000000E+00  0.00000000000E+00  1.
        1    1    1    2  501    0  3.12555823618E+01  3.52440529388E+01  3.58356896493E+02  3.61439787462E+02  0.00000000000E+00  0.00000000000E+00  1.
       25    2    1    2    0    0  1.23824269136E+03 -5.83778982673E+02 -4.10890286792E+03  4.33275324030E+03  1.25000000000E+02  0.00000000000E+00  1.
       23    2    5    5    0    0  2.10166145563E+02 -7.83207461565E+01 -6.61587795092E+02  6.99733467534E+02  4.03059170957E+01  0.00000000000E+00  1.
       23    2    5    5    0    0  1.02807654580E+03 -5.05458236517E+02 -3.44731507283E+03  3.63301977277E+03  4.92142772221E+01  0.00000000000E+00  1.
      -12    1    6    6    0    0  1.88493759007E+02 -7.89979157838E+01 -5.67531581386E+02  6.03210298116E+02  0.00000000000E+00  0.00000000000E+00  1.
       12    1    6    6    0    0  2.16723865557E+01  6.77169627337E-01 -9.40562137066E+01  9.65231694183E+01  5.86659302861E-06  0.00000000000E+00  1.
       -4    1    7    7    0  804  6.69075658565E+02 -3.08335872882E+02 -2.26139558913E+03  2.37837021583E+03  1.27499999959E+00  0.00000000000E+00  1.
        4    1    7    7  804    0  3.59000887232E+02 -1.97122363634E+02 -1.18591948370E+03  1.25464955693E+03  1.27500000003E+00  0.00000000000E+00  1.
</event>
<event>
11  60   1.0000000E+00   1.2500000E+02   7.8125000E-03   1.2380861E-01
        2   -1    0    0  501    0  0.00000000000E+00  0.00000000000E+00  4.28848768421E+03  4.28848768421E+03  0.00000000000E+00  0.00000000000E+00  1.
        1   -1    0    0  502    0  0.00000000000E+00  0.00000000000E+00 -2.55867631242E+03  2.55867631242E+03  0.00000000000E+00  0.00000000000E+00  1.
        4    1    1    2  502    0 -1.10910355474E+03 -1.36539832768E+03  2.85160154472E+03  3.35053050399E+03  0.00000000000E+00  0.00000000000E+00  1.
        1    1    1    2  501    0  5.35099882116E+01 -5.46867134921E+01  8.44786266283E+02  8.48243945556E+02  0.00000000000E+00  0.00000000000E+00  1.
       25    2    1    2    0    0  1.05559356652E+03  1.42008504117E+03 -1.96657643921E+03  2.64838954708E+03  1.25000000000E+02  0.00000000000E+00  1.
       23    2    5    5    0    0  8.09062345179E+01  9.96595008288E+01 -1.71408397131E+02  2.14253579708E+02  6.77664528941E+00  0.00000000000E+00  1.
       23    2    5    5    0    0  9.74687332002E+02  1.32042554034E+03 -1.79516804208E+03  2.43413596737E+03  9.40776572906E+01  0.00000000000E+00  1.
       -4    1    6    6    0  803  7.24535765563E+01  8.85332818641E+01 -1.55283792102E+02  1.92879092874E+02  1.27500000000E+00  0.00000000000E+00  1.
        4    1    6    6  803    0  8.45265796161E+00  1.11262189647E+01 -1.61246050295E+01  2.13744868342E+01  1.27500000000E+00  0.00000000000E+00  1.
       -5    1    7    7    0  804  2.26939184001E+02  2.54053767963E+02 -4.03274835172E+02  5.27918426875E+02  4.75000000001E+00  0.00000000000E+00  1.
        5    1    7    7  804    0  7.47748148001E+02  1.06637177238E+03 -1.39189320691E+03  1.90621754050E+03  4.74999999984E+00  0.00000000000E+00  1.
</event>
<event>
11  60   1.0000000E+00   1.2500000E+02   7.8125000E-03   1.2380861E-01
        1   -1    0    0  501    0  0.00000000000E+00  0.00000000000E+00  2.33656885977E+03  2.33656885977E+03  0.00000000000E+00  0.00000000000E+00  1.
        2   -1    0    0  502    0  0.00000000000E+00  0.00000000000E+00 -4.85221592955E+03  4.85221592955E+03  0.00000000000E+00  0.00000000000E+00  1.
        2    1    1    2  501    0  4.30598671349E+01  2.15954209025E+03 -2.65345073891E+03  3.42144370340E+03  0.00000000000E+00  0.00000000000E+00  1.
        1    1    1    2  502    0 -1.53338896970E+00 -2.95424163139E+01 -1.23142928246E+03  1.23178455232E+03  0.00000000000E+00  0.00000000000E+00  1.
       25    2    1    2    0    0 -4.15264781652E+01 -2.12999967393E+03  1.36923295159E+03  2.53555653360E+03  1.25000000000E+02  0.00000000000E+00  1.
       23    2    5    5    0    0 -9.55030173856E+00 -1.50330599539E+03  9.56521305117E+02  1.78416124682E+03  9.09847431068E+01  0.00000000000E+00  1.
       23    2    5    5    0    0 -3.19761764266E+01 -6.26693678545E+02  4.12711646473E+02  7.51395286783E+02  2.22829817943E+01  0.00000000000E+00  1.
      -14    1    6    6    0    0  3.15157815449E+00 -9.62660796938E+02  6.62548884609E+02  1.16863029522E+03  1.68587394044E-05  0.00000000000E+00  1.
       14    1    6    6    0    0 -1.27018798931E+01 -5.40645198447E+02  2.93972420508E+02  6.15530951598E+02  5.96046447754E-06  0.00000000000E+00  1.
      -13    1    7    7    0    0 -1.63496134885E+01 -2.07955421525E+02  1.47752209873E+02  2.55623734988E+02  1.05660000076E-01  0.00000000000E+00  1.
       13    1    7    7    0    0 -1.56265629381E+01 -4.18738257020E+02  2.64959436600E+02  4.95771551794E+02  1.05659999739E-01  0.00000000000E+00  1.
</event>
<event>
11  60   1.0000000E+00   1.2500000E+02   7.8125000E-03   1.2380861E-01
        1   -1    0    0  501    0  0.00000000000E+00  0.00000000000E+00  3.60372935407E+03  3.60372935407E+03  0.00000000000E+00  0.00000000000E+00  1.
        2   -1    0    0  502    0  0.00000000000E+00  0.00000000000E+00 -3.38721524833E+03  3.38721524833E+03  0.00000000000E+00  0.00000000000E+00  1.
        2    1    1    2  501    0 -1.63150342715E+03 -3.72257636917E+02 -2.56140881365E+03  3.05960688516E+03  0.00000000000E+00  0.00000000000E+00  1.
        1    1    1    2  502    0 -1.02733848604E+01 -1.84835301941E+01 -3.62963502978E+02  3.63578998044E+02  0.00000000000E+00  0.00000000000E+00  1.
       25    2    1    2    0    0  1.64177681201E+03  3.90741167111E+02  3.14088642237E+03  3.56775871919E+03  1.25000000000E+02  0.00000000000E+00  1.
       23    2    5    5    0    0  1.29256267244E+03  3.04153355123E+02  2.44773227759E+03  2.78625086815E+03  9.25908843655E+01  0.00000000000E+00  1.
       23    2    5    5    0    0  3.49214139568E+02  8.65878119877E+01  6.93154144779E+02  7.81507851043E+02  2.90497565915E+01  0.00000000000E+00  1.
       -2    1    6    6    0  804  7.82763131015E+02  1.58908298953E+02  1.55015778158E+03  1.74383460068E+03  3.76972873231E-05  0.00000000000E+00  1.
        2    1    6    6  804    0  5.09799541427E+02  1.45245056170E+02  8.97574496013E+02  1.04241626746E+03  1.68587394044E-05  0.00000000000E+00  1.
       -3    1    7    7    0  803  2.92014973683E+02  6.25669373174E+01  5.61981678160E+02  6.36404567149E+02  0.00000000000E+00  0.00000000000E+00  1.
        3    1    7    7  803    0  5.71991658846E+01  2.40208746703E+01  1.31172466619E+02  1.45103283893E+02  4.21468485109E-06  0.00000000000E+00  1.
</event>
<event>
11  60   1.0000000E+00   1.2500000E+02   7.8125000E-03   1.2380861E-01
        1   -1    0    0  501    0  0.00000000000E+00  0.00000000000E+00  8.06373135658E+02  8.06373135658E+02  0.00000000000E+00  0.00000000000E+00  1.
        2   -1    0    0  502    0  0.00000000000E+00  0.00000000000E+00 -3.16316272155E+03  3.16316272155E+03  0.00000000000E+00  0.00000000000E+00  1.
        2    1    1    2  502    0  5.25802124268E+01  5.08606847935E+00 -1.63795818665E+02  1.72103506773E+02  0.00000000000E+00  0.00000000000E+00  1.
        1    1    1    2  501    0  1.11547877591E+03 -1.11431429780E+02 -2.35367224177E+03  2.60700649879E+03  0.00000000000E+00  0.00000000000E+00  1.
       25    2    1    2    0    0 -1.16805898834E+03  1.06345361301E+02  1.60678474537E+02  1.19042585165E+03  1.25000000000E+02  0.00000000000E+00  1.
       23    2    5    5    0    0 -7.36580576922E+02  5.25049561836E+01  1.01862226027E+02  7.50447326316E+02  8.65306868144E+01  0.00000000000E+00  1.
       23    2    5    5    0    0 -4.31478411418E+02  5.38404051174E+01  5.88162485104E+01  4.39978525334E+02  3.23935629961E+01  0.00000000000E+00  1.
       -3    1    6    6    0  804 -2.11999251380E+02 -1.82626074884E+01  4.99969472969E+01  2.18579276596E+02  0.00000000000E+00  0.00000000000E+00  1.
        3    1    6    6  804    0 -5.24581325542E+02  7.07675636721E+01  5.18652787297E+01  5.31868049720E+02  1.05892646339E-05  0.00000000000E+00  1.
      -14    1    7    7    0    0 -4.26565510635E+02  4.99330262951E+01  5.60549854415E+01  4.33120772269E+02  5.16191365590E-06  0.00000000000E+00  1.
       14    1    7    7    0    0 -4.91290078241E+00  3.90737882226E+00  2.76126306888E+00  6.85775306452E+00  1.18720799535E-07  0.00000000000E+00  1.
</event>
<event>
11  60   1.0000000E+00   1.2500000E+02   7.8125000E-03   1.2380861E-01
        2   -1    0    0  501    0  0.00000000000E+00  0.00000000000E+00  2.39077333711E+03  2.39077333711E+03  0.00000000000E+00  0.00000000000E+00  1.
        1   -1    0    0  502    0  0.00000000000E+00  0.00000000000E+00 -2.18032742939E+03  2.18032742939E+03  0.00000000000E+00  0.00000000000E+00  1.
        2    1    1    2  502    0  1.13093300457E+03 -1.77437038751E+03 -1.24512416883E+02  2.10781950719E+03  0.00000000000E+00  0.00000000000E+00  1.
        1    1    1    2  501    0 -6.32261711333E+01 -3.37474104828E+00  3.80055150358E+02  3.85293206412E+02  0.00000000000E+00  0.00000000000E+00  1.
       25    2    1    2    0    0 -1.06770683344E+03  1.77774512856E+03 -4.50968257578E+01  2.07798805290E+03  1.25000000000E+02  0.00000000000E+00  1.
       23    2    5    5    0    0 -8.65053541189E+02  1.45422757941E+03 -4.23507278616E+01  1.69524759506E+03  9.47382845721E+01  0.00000000000E+00  1.
       23    2    5    5    0    0 -2.02653292251E+02  3.23517549154E+02 -2.74609789624E+00  3.82740457844E+02  2.73999187277E+01  0.00000000000E+00  1.
      -13    1    6    6    0    0 -4.82331281647E+02  8.98075039335E+02 -3.82059726799E+01  1.02011859558E+03  1.05659997257E-01  0.00000000000E+00  1.
       13    1    7    7    0    0 -7.19035370309E+01  1.39724845905E+02  1.40266677349E+00  1.57146841644E+02  1.05660000008E-01  0.00000000000E+00  1.
      -13    1    7    7    0    0 -1.30749755220E+02  1.83792703249E+02 -4.14876466973E+00  2.25593616200E+02  1.05660000036E-01  0.00000000000E+00  1.
       13    1    6    6    0    0 -3.82722259542E+02  5.56152540072E+02 -4.14475518162E+00  6.75128999478E+02  1.05659999531E-01  0.00000000000E+00  1.
</event>
<event>
11  60   1.0000000E+00   1.2500000E+02   7.8125000E-03   1.2380861E-01
        2   -1    0    0  501    0  0.00000000000E+00  0.00000000000E+00  3.71657093393E+03  3.71657093393E+03  0.00000000000E+00  0.00000000000E+00  1.
        1   -1    0    0  502    0  0.00000000000E+00  0.00000000000E+00 -4.87094603932E+03  4.87094603932E+03  0.00000000000E+00  0.00000000000E+00  1.
        2    1    1    2  502    0 -1.80069145764E+02 -2.83383015283E+03  1.46856147413E+03  3.19682514937E+03  0.00000000000E+00  0.00000000000E+00  1.
        1    1    1    2  501    0  2.07725872465E+01  3.81236756586E+01  8.93059929752E+02  8.94114619697E+02  0.00000000000E+00  0.00000000000E+00  1.
       25    2    1    2    0    0  1.59296558518E+02  2.79570647717E+03 -3.51599650927E+03  4.49657720419E+03  1.25000000000E+02  0.00000000000E+00  1.
       23    2    5    5    0    0  3.25437173769E+01  9.68728178385E+02 -1.20898050125E+03  1.54964164802E+03  1.61866533466E+01  0.00000000000E+00  1.
       23    2    5    5    0    0  1.26752841141E+02  1.82697829879E+03 -2.30701600802E+03  2.94693555617E+03  9.05004086883E+01  0.00000000000E+00  1.
      -15    1    6    6    0    0  1.62147793646E+01  6.80019264088E+02 -8.43865837368E+02  1.08388275523E+03  1.77679999998E+00  0.00000000000E+00  1.
       15    1    6    6    0    0  1.63289380123E+01  2.88708914297E+02 -3.65114663881E+02  4.65758892787E+02  1.77680000001E+00  0.00000000000E+00  1.
      -15    1    7    7    0    0  4.20955165458E+01  5.66704775845E+02 -6.49821830516E+02  8.63248460127E+02  1.77680000002E+00  0.00000000000E+00  1.
       15    1    7    7    0    0  8.46573245953E+01  1.26027352294E+03 -1.65719417750E+03  2.08368709604E+03  1.77679999978E+00  0.00000000000E+00  1.
</event>
<event>
11  60   1.0000000E+00   1.2500000E+02   7.8125000E-03   1.2380861E-01
        1   -1    0    0  501    0  0.00000000000E+00  0.00000000000E+00  1.24378046915E+03  1.24378046915E+03  0.00000000000E+00  0.00000000000E+00  1.
        2   -1    0    0  502    0  0.00000000000E+00  0.00000000000E+00 -8.88366292262E+02  8.88366292262E+02  0.00000000000E+00  0.00000000000E+00  1.
        2    1    1    2  501    0 -2.04957025709E+02  6.66868920169E+02 -3.14971976511E+02  7.65459917346E+02  0.00000000000E+00  0.00000000000E+00  1.
        1    1    1    2  502    0  2.70377062792E+01 -2.76341533645E+01 -2.34492239198E+02  2.37657935355E+02  0.00000000000E+00  0.00000000000E+00  1.
       25    2    1    2    0    0  1.77919319430E+02 -6.39234766805E+02  9.04878392601E+02  1.12902890872E+03  1.25000000000E+02  0.00000000000E+00  1.
       23    2    5    5    0    0  1.47351572229E+02 -4.50772536839E+02  7.04354304241E+02  8.52045354984E+02  7.04126071119E+01  0.00000000000E+00  1.
       23    2    5    5    0    0  3.05677472010E+01 -1.88462229966E+02  2.00524088360E+02  2.76983553736E+02  7.58813118616E+00  0.00000000000E+00  1.
      -15    1    6    6    0    0  4.04119360294E+01 -1.42170960573E+02  1.65164225550E+02  2.21648561971E+02  1.77679999999E+00  0.00000000000E+00  1.
       15    1    6    6    0    0  1.06939636200E+02 -3.08601576265E+02  5.39190078691E+02  6.30396793013E+02  1.77679999999E+00  0.00000000000E+00  1.
       -2    1    7    7    0  804  6.45249422523E+00 -2.75447387996E+01  2.70697058165E+01  3.91550289268E+01  3.72529029846E-07  0.00000000000E+00  1.
        2    1    7    7  804    0  2.41152529758E+01 -1.60917491167E+02  1.73454382544E+02  2.37828524810E+02  5.16191365590E-06  0.00000000000E+00  1.
</event>
<event>
11  60   1.0000000E+00   1.2500000E+02   7.8125000E-03   1.2380861E-01
        2   -1    0    0  501    0  0.00000000000E+00  0.00000000000E+00  1.35086610664E+03  1.35086610664E+03  0.00000000000E+00  0.00000000000E+00  1.
        1   -1    0    0  502    0  0.00000000000E+00  0.00000000000E+00 -2.75614709832E+03  2.75614709832E+03  0.00000000000E+00  0.00000000000E+00  1.
        2    1    1    2  502    0 -8.16710593256E+02 -8.30095021752E+02  7.70700041837E+02  1.39644279967E+03  0.00000000000E+00  0.00000000000E+00  1.
        1    1    1    2  501    0  8.97028269768E+00  5.09647299420E+01  1.31658320762E+02  1.41463009637E+02  0.00000000000E+00  0.00000000000E+00  1.
       25    2    1    2    0    0  8.07740310558E+02  7.79130291810E+02 -2.30763935428E+03  2.56910739564E+03  1.25000000000E+02  0.00000000000E+00  1.
       23    2    5    5    0    0  5.26412679169E+02  5.03198258675E+02 -1.55523699667E+03  1.71967614245E+03  9.05821327716E+01  0.00000000000E+00  1.
       23    2    5    5    0    0  2.81327631389E+02  2.75932033135E+02 -7.52402357606E+02  8.49431253187E+02  1.18500238651E+01  0.00000000000E+00  1.
       -1    1    6    6    0  803  3.83301508633E+02  3.08093858983E+02 -1.02869767200E+03  1.14020207544E+03  1.19209289551E-05  0.00000000000E+00  1.
        1    1    6    6  803    0  1.43111170536E+02  1.95104399691E+02 -5.26539324672E+02  5.79474067010E+02  1.03238273118E-05  0.00000000000E+00  1.
       -4    1    7    7    0  804  2.62864086396E+02  2.53919551924E+02 -6.96890235418E+02  7.86911870931E+02  1.27499999995E+00  0.00000000000E+00  1.
        4    1    7    7  804    0  1.84635449933E+01  2.20124812117E+01 -5.55121221882E+01  6.25193822559E+01  1.27500000000E+00  0.00000000000E+00  1.
</event>
<event>
11  60   1.0000000E+00   1.2500000E+02   7.8125000E-03   1.2380861E-01
        2   -1    0    0  501    0  0.00000000000E+00  0.00000000000E+00  5.06128291021E+03  5.06128291021E+03  0.00000000000E+00  0.00000000000E+00  1.
        1   -1    0    0  502    0  0.00000000000E+00  0.00000000000E+00 -2.54695595073E+03  2.54695595073E+03  0.00000000000E+00  0.00000000000E+00  1.
        2    1    1    2  502    0 -3.63562806551E+02  3.42195920414E+03  7.22356577615E+02  3.51621696349E+03  0.00000000000E+00  0.00000000000E+00  1.
        1    1    1    2  501    0  2.93589717982E+01 -7.31536391459E+00  3.77684658299E+02  3.78894661995E+02  0.00000000000E+00  0.00000000000E+00  1.
       25    2    1    2    0    0  3.34203834753E+02 -3.41464384023E+03  1.41428572357E+03  3.71312723545E+03  1.25000000000E+02  0.00000000000E+00  1.
       23    2    5    5    0    0  2.77709498673E+02 -2.72279777488E+03  1.13373709146E+03  2.96383990202E+03  9.07572790348E+01  0.00000000000E+00  1.
       23    2    5    5    0    0  5.64943360802E+01 -6.91846065351E+02  2.80548632105E+02  7.49287333431E+02  2.96881274794E+01  0.00000000000E+00  1.
      -12    1    6    6    0    0  9.67916524032E+00 -3.56408911841E+01  6.37789309307E+00  3.74784856212E+01  1.79626993108E-06  0.00000000000E+00  1.
       12    1    6    6    0    0  2.68030333432E+02 -2.68715688369E+03  1.12735919837E+03  2.92636141640E+03  2.38418579102E-05  0.00000000000E+00  1.
      -11    1    7    7    0    0  5.98640208161E+01 -6.38391864830E+02  2.57035403610E+02  6.90793075225E+02  5.10994690391E-04  0.00000000000E+00  1.
       11    1    7    7    0    0 -3.36968473590E+00 -5.34542005212E+01  2.35132284952E+01  5.84942582064E+01  5.11002837840E-04  0.00000000000E+00  1.
</event>
<event>
11  60   1.0000000E+00   1.2500000E+02   7.8125000E-03   1.2380861E-01
        2   -1    0    0  501    0  0.00000000000E+00  0.00000000000E+00  3.62147351341E+03  3.62147351341E+03  0.00000000000E+00  0.00000000000E+00  1.
        1   -1    0    0  502    0  0.00000000000E+00  0.00000000000E+00 -2.35035575554E+03  2.35035575554E+03  0.00000000000E+00  0.00000000000E+00  1.
        2    1    1    2  502    0  1.83234445547E+03 -6.55844832191E+02  2.04744890414E+03  2.82483020064E+03  0.00000000000E+00  0.00000000000E+00  1.
        1    1    1    2  501    0 -7.84552816940E+01 -1.06733407483E+02  7.09604980536E+02  7.21863200267E+02  0.00000000000E+00  0.00000000000E+00  1.
       25    2    1    2    0    0 -1.75388917378E+03  7.62578239673E+02 -1.48593612680E+03  2.42513586804E+03  1.25000000000E+02  0.00000000000E+00  1.
       23    2    5    5    0    0 -1.03158481874E+03  4.41585247625E+02 -8.89504381769E+02  1.43447096790E+03  8.55812094088E+01  0.00000000000E+00  1.
       23    2    5    5    0    0 -7.22304355044E+02  3.20992992048E+02 -5.96431745031E+02  9.90664900137E+02  3.04308334284E+01  0.00000000000E+00  1.
      -13    1    6    6    0    0 -5.56859942872E+02  2.00114527229E+02 -4.37159320759E+02  7.35694979508E+02  1.05660000160E-01  0.00000000000E+00  1.
       13    1    6    6    0    0 -4.74724875864E+02  2.41470720396E+02 -4.52345061010E+02  6.98775988394E+02  1.05659999991E-01  0.00000000000E+00  1.
      -14    1    7    7    0    0 -1.46708942440E+02  7.12011591520E+01 -1.09431398179E+02  1.96388262796E+02  3.33200093731E-06  0.00000000000E+00  1.
       14    1    7    7    0    0 -5.75595412604E+02  2.49791832896E+02 -4.87000346852E+02  7.94276637341E+02  0.00000000000E+00  0.00000000000E+00  1.
</event>
<event>
11  60   1.0000000E+00   1.2500000E+02   7.8125000E-03   1.2380861E-01
        2   -1    0    0  501    0  0.00000000000E+00  0.00000000000E+00  2.77986441730E+03  2.77986441730E+03  0.00000000000E+00  0.00000000000E+00  1.
        1   -1    0    0  502    0  0.00000000000E+00  0.00000000000E+00 -1.94397140032E+03  1.94397140032E+03  0.00000000000E+00  0.00000000000E+00  1.
        2    1    1    2  502    0  6.82928264915E+02 -1.97523426957E+01  2.15985508205E+03  2.26533775528E+03  0.00000000000E+00  0.00000000000E+00  1.
        1    1    1    2  501    0  1.04878869324E+01 -4.15037848531E+01  5.00200356951E+02  5.02028840829E+02  0.00000000000E+00  0.00000000000E+00  1.
       25    2    1    2    0    0 -6.93416151847E+02  6.12561275489E+01 -1.82416242202E+03  1.95646922151E+03  1.25000000000E+02  0.00000000000E+00  1.
       23    2    5    5    0    0 -3.38980009190E+02  5.79750689774E+01 -9.46393610706E+02  1.00832899021E+03  5.28954711406E+01  0.00000000000E+00  1.
       23    2    5    5    0    0 -3.54436142657E+02  3.28105857151E+00 -8.77768811314E+02  9.48140231297E+02  5.34421885760E+01  0.00000000000E+00  1.
       -3    1    6    6    0  804 -1.87900387664E+02  1.17160842643E+01 -4.64890286532E+02  5.01564353624E+02  8.42936970218E-06  0.00000000000E+00  1.
        3    1    6    6  804    0 -1.51079621526E+02  4.62589847131E+01 -4.81503324174E+02  5.06764636589E+02  8.42936970218E-06  0.00000000000E+00  1.
       -1    1    7    7    0  803 -1.87380478944E+02 -2.01418401353E+01 -5.03400830242E+02  5.37521658635E+02  1.03238273118E-05  0.00000000000E+00  1.
        1    1    7    7  803    0 -1.67055663713E+02  2.34228987068E+01 -3.74367981072E+02  4.10618572661E+02  7.30004829998E-06  0.00000000000E+00  1.
</event>
<event>
11  60   1.0000000E+00   1.2500000E+02   7.8125000E-03   1.2380861E-01
        1   -1    0    0  501    0  0.00000000000E+00  0.00000000000E+00  3.82515890327E+03  3.82515890327E+03  0.00000000000E+00  0.00000000000E+00  1.
        2   -1    0    0  502    0  0.00000000000E+00  0.00000000000E+00 -4.55473410561E+03  4.55473410561E+03  0.00000000000E+00  0.00000000000E+00  1.
        2    1    1    2  501    0 -2.45738749570E+03  1.38722931118E+03  6.16102764380E+02  2.88838035620E+03  0.00000000000E+00  0.00000000000E+00  1.
        1    1    1    2  502    0 -9.65183344581E+01 -2.93432816563E+01 -2.40613888629E+03  2.40825271871E+03  0.00000000000E+00  0.00000000000E+00  1.
       25    2    1    2    0    0  2.55390583016E+03 -1.35788602952E+03  1.06046091956E+03  3.08325993397E+03  1.25000000000E+02  0.00000000000E+00  1.
       23    2    5    5    0    0  3.02431230111E+02 -1.79880869138E+02  1.29836495009E+02  3.75705785551E+02  2.18070133708E+01  0.00000000000E+00  1.
       23    2    5    5    0    0  2.25147460005E+03 -1.17800516038E+03  9.30624424551E+02  2.70755414842E+03  8.91830392860E+01  0.00000000000E+00  1.
       -3    1    6    6    0  803  2.26930878824E+02 -1.29425283965E+02  1.05065271648E+02  2.81579898430E+02  3.33200093731E-06  0.00000000000E+00  1.
        3    1    6    6  803    0  7.55003512865E+01 -5.04555851729E+01  2.47712233614E+01  9.41258871212E+01  4.01226044233E-06  0.00000000000E+00  1.
       -2    1    7    7    0  804  1.93967977932E+03 -9.88952668131E+02  7.74352495531E+02  2.31084547589E+03  3.37174788087E-05  0.00000000000E+00  1.
        2    1    7    7  804    0  3.11794820726E+02 -1.89052492251E+02  1.56271929020E+02  3.96708672526E+02  5.96046447754E-06  0.00000000000E+00  1.
</event>
<event>
11  60   1.0000000E+00   1.2500000E+02   7.8125000E-03   1.2380861E-01
        2   -1    0    0  501    0  0.00000000000E+00  0.00000000000E+00  2.34824632246E+03  2.34824632246E+03  0.00000000000E+00  0.00000000000E+00  1.
        1   -1    0    0  502    0  0.00000000000E+00  0.00000000000E+00 -5.30298813085E+03  5.30298813085E+03  0.00000000000E+00  0.00000000000E+00  1.
        2    1    1    2  502    0 -5.69713977096E+02  1.05350383829E+03  1.50100223444E+03  1.92027395462E+03  0.00000000000E+00  0.00000000000E+00  1.
        3    1    1    2  501    0  5.09438825725E+01 -1.56688412623E+01  5.69503135222E+02  5.71991794334E+02  0.00000000000E+00  0.00000000000E+00  1.
       25    2    1    2    0    0  5.18770094524E+02 -1.03783499703E+03 -5.02524717805E+03  5.15896870436E+03  1.25000000000E+02  0.00000000000E+00  1.
       23    2    5    5    0    0  3.69762137158E+02 -7.65782639154E+02 -3.71860927286E+03  3.81565693378E+03  8.96427554493E+01  0.00000000000E+00  1.
       23    2    5    5    0    0  1.49007957366E+02 -2.72052357876E+02 -1.30663790519E+03  1.34331177058E+03  3.11133558581E+01  0.00000000000E+00  1.
      -12    1    6    6    0    0  1.92251373401E+02 -4.83282096889E+02 -2.16020463157E+03  2.22193749372E+03  3.37174788087E-05  0.00000000000E+00  1.
       12    1    6    6    0    0  1.77510763757E+02 -2.82500542265E+02 -1.55840464129E+03  1.59371944006E+03  1.68587394044E-05  0.00000000000E+00  1.
       -1    1    7    7    0  804  1.06378337273E+02 -1.73021414937E+02 -8.06170281974E+02  8.31362306221E+02  1.19209289551E-05  0.00000000000E+00  1.
        1    1    7    7  804    0  4.26296200936E+01 -9.90309429396E+01 -5.00467623216E+02  5.11949464358E+02  8.42936970218E-06  0.00000000000E+00  1.
</event>
<event>
11  60   1.0000000E+00   1.2500000E+02   7.8125000E-03   1.2380861E-01
        3   -1    0    0  501    0  0.00000000000E+00  0.00000000000E+00  3.55083250840E+03  3.55083250840E+03  0.00000000000E+00  0.00000000000E+00  1.
        1   -1    0    0  502    0  0.00000000000E+00  0.00000000000E+00 -3.41860655986E+03  3.41860655986E+03  0.00000000000E+00  0.00000000000E+00  1.
        1    1    1    2  502    0 -7.94646603754E+02 -6.56812670089E+02  2.14248887817E+03  2.37763005986E+03  0.00000000000E+00  0.00000000000E+00  1.
        3    1    1    2  501    0  2.72923186526E+01 -1.06953516756E+01  1.21106906559E+03  1.21142376682E+03  0.00000000000E+00  0.00000000000E+00  1.
       25    2    1    2    0    0  7.67354285101E+02  6.67508021765E+02 -3.22133199522E+03  3.38038524157E+03  1.25000000000E+02  0.00000000000E+00  1.
       23    2    5    5    0    0  6.57636536823E+02  5.71698788773E+02 -2.76485499250E+03  2.90016103784E+03  8.47678960994E+01  0.00000000000E+00  1.
       23    2    5    5    0    0  1.09717748278E+02  9.58092329918E+01 -4.56477002721E+02  4.80224203730E+02  3.20411988121E+01  0.00000000000E+00  1.
      -16    1    6    6    0    0  1.15801248059E+02  8.25191476708E+01 -5.51375446576E+02  5.69415684603E+02  0.00000000000E+00  0.00000000000E+00  1.
       16    1    6    6    0    0  5.41835288764E+02  4.89179641102E+02 -2.21347954592E+03  2.33074535324E+03  2.38418579102E-05  0.00000000000E+00  1.
      -13    1    7    7    0    0  1.94789322306E+01  3.50521677990E+01 -1.35813394803E+02  1.41609931291E+02  1.05659999949E-01  0.00000000000E+00  1.
       13    1    7    7    0    0  9.02388160471E+01  6.07570651928E+01 -3.20663607918E+02  3.38614272439E+02  1.05660000076E-01  0.00000000000E+00  1.
</event>
<event>
11  60   1.0000000E+00   1.2500000E+02   7.8125000E-03   1.2380861E-01
        1   -1    0    0  501    0  0.00000000000E+00  0.00000000000E+00  3.53937721261E+03  3.53937721261E+03  0.00000000000E+00  0.00000000000E+00  1.
        2   -1    0    0  502    0  0.00000000000E+00  0.00000000000E+00 -2.96182195379E+03  2.96182195379E+03  0.00000000000E+00  0.00000000000E+00  1.
        2    1    1    2  501    0 -2.16025089161E+03 -7.78973337584E+01 -1.87186790948E+03  2.85948271193E+03  0.00000000000E+00  0.00000000000E+00  1.
        1    1    1    2  502    0 -2.82532056800E+01 -4.80299464834E-01 -2.00081087214E+02  2.02066612233E+02  0.00000000000E+00  0.00000000000E+00  1.
       25    2    1    2    0    0  2.18850409729E+03  7.83776332232E+01  2.64950425551E+03  3.43964984224E+03  1.25000000000E+02  0.00000000000E+00  1.
       23    2    5    5    0    0  1.80528032764E+03  5.58269403293E+01  2.12366170937E+03  2.78787768624E+03  1.30088035718E+01  0.00000000000E+00  1.
       23    2    5    5    0    0  3.83223769647E+02  2.25506928939E+01  5.25842546141E+02  6.51772155997E+02  3.04560113684E+01  0.00000000000E+00  1.
       -4    1    6    6    0  803  1.66475412487E+03  5.47007742436E+01  1.95904089974E+03  2.57142788027E+03  1.27500000003E+00  0.00000000000E+00  1.
        4    1    6    6  803    0  1.40526202775E+02  1.12616608574E+00  1.64620809627E+02  2.16449805968E+02  1.27500000001E+00  0.00000000000E+00  1.
       -2    1    7    7    0  804  2.36389185803E+02  1.83699138041E-01  3.13308305373E+02  3.92481815026E+02  4.21468485109E-06  0.00000000000E+00  1.
        2    1    7    7  804    0  1.46834583844E+02  2.23669937558E+01  2.12534240768E+02  2.59290340971E+02  5.16191365590E-06  0.00000000000E+00  1.
</event>
<event>
11  60   1.0000000E+00   1.2500000E+02   7.8125000E-03   1.2380861E-01
        1   -1    0    0  501    0  0.00000000000E+00  0.00000000000E+00  2.87257929952E+03  2.87257929952E+03  0.00000000000E+00  0.00000000000E+00  1.
        2   -1    0    0  502    0  0.00000000000E+00  0.00000000000E+00 -1.61249313153E+03  1.61249313153E+03  0.00000000000E+00  0.00000000000E+00  1.
        2    1    1    2  501    0  1.92312638121E+02 -5.86265114336E+02 -1.38209007076E+03  1.51356000831E+03  0.00000000000E+00  0.00000000000E+00  1.
        1    1    1    2  502    0  3.48832829982E+01 -5.95602735612E+01 -1.11565275416E+02  1.31191006925E+02  0.00000000000E+00  0.00000000000E+00  1.
       25    2    1    2    0    0 -2.27195921119E+02  6.45825387897E+02  2.75374151418E+03  2.84032141581E+03  1.25000000000E+02  0.00000000000E+00  1.
       23    2    5    5    0    0 -1.80101371242E+02  5.32284875271E+02  2.32894310388E+03  2.39715412027E+03  8.12908533622E+01  0.00000000000E+00  1.
       23    2    5    5    0    0 -4.70945498770E+01  1.13540512626E+02  4.24798410301E+02  4.43167295543E+02  2.88828289724E+01  0.00000000000E+00  1.
      -11    1    6    6    0    0 -1.46468589576E+02  4.95887705089E+02  2.16469916925E+03  2.22559658455E+03  5.09122765161E-04  0.00000000000E+00  1.
       11    1    6    6    0    0 -3.36327816661E+01  3.63971701822E+01  1.64243934624E+02  1.71557535716E+02  5.11003380998E-04  0.00000000000E+00  1.
       -4    1    7    7    0  803 -3.58138746220E+01  4.92312218546E+01  1.97555611008E+02  2.06727337056E+02  1.27499999999E+00  0.00000000000E+00  1.
        4    1    7    7  803    0 -1.12806752550E+01  6.43092907712E+01  2.27242799293E+02  2.36439958487E+02  1.27500000000E+00  0.00000000000E+00  1.
</event>
<event>
11  60   1.0000000E+00   1.2500000E+02   7.8125000E-03   1.2380861E-01
        2   -1    0    0  501    0  0.00000000000E+00  0.00000000000E+00  4.40574775670E+03  4.40574775670E+03  0.00000000000E+00  0.00000000000E+00  1.
        1   -1    0    0  502    0  0.00000000000E+00  0.00000000000E+00 -8.26501164327E+02  8.26501164327E+02  0.00000000000E+00  0.00000000000E+00  1.
        2    1    1    2  502    0  1.45214914793E+03 -1.36317158564E+02  2.93500891720E+03  3.27743754473E+03  0.00000000000E+00  0.00000000000E+00  1.
        1    1    1    2  501    0 -2.60434383687E+01  1.46165722193E+01  5.11041441934E+02  5.11913332743E+02  0.00000000000E+00  0.00000000000E+00  1.
       25    2    1    2    0    0 -1.42610570956E+03  1.21700586345E+02  1.33196233241E+02  1.44289804356E+03  1.25000000000E+02  0.00000000000E+00  1.
       23    2    5    5    0    0 -2.86576592156E+02  3.95028706373E+00  3.57005147263E+01  2.89924857682E+02  2.53011543285E+01  0.00000000000E+00  1.
       23    2    5    5    0    0 -1.13952911740E+03  1.17750299281E+02  9.74957185147E+01  1.15297318588E+03  8.63134394719E+01  0.00000000000E+00  1.
      -14    1    6    6    0    0 -4.74306649157E-01  7.92806855366E-01 -1.11311057565E+00  1.44655613820E+00  1.20982351310E-07  0.00000000000E+00  1.
       14    1    6    6    0    0 -2.86102285507E+02  3.15748020837E+00  3.68136253019E+01  2.88478301543E+02  4.65288609147E-06  0.00000000000E+00  1.
       -1    1    7    7    0  803 -4.61703532862E+02  1.10909905464E+01  6.08653547444E+01  4.65830176928E+02  7.45058059692E-06  0.00000000000E+00  1.
        1    1    7    7  803    0 -6.77825584542E+02  1.06659308735E+02  3.66303637703E+01  6.87143008950E+02  1.48077360648E-05  0.00000000000E+00  1.
</event>
<event>
11  60   1.0000000E+00   1.2500000E+02   7.8125000E-03   1.2380861E-01
        1   -1    0    0  501    0  0.00000000000E+00  0.00000000000E+00  3.84757042369E+03  3.84757042369E+03  0.00000000000E+00  0.00000000000E+00  1.
        2   -1    0    0  502    0  0.00000000000E+00  0.00000000000E+00 -2.91643095863E+03  2.91643095863E+03  0.00000000000E+00  0.00000000000E+00  1.
        2    1    1    2  501    0 -2.05429644256E+00  5.58458292610E+01  7.12111344874E+02  7.14300737980E+02  0.00000000000E+00  0.00000000000E+00  1.
        1    1    1    2  502    0  2.05577655199E+03  2.17377140172E+03 -1.36594949225E+02  2.99502212326E+03  0.00000000000E+00  0.00000000000E+00  1.
       25    2    1    2    0    0 -2.05372225555E+03 -2.22961723098E+03  3.55623069408E+02  3.05467852108E+03  1.25000000000E+02  0.00000000000E+00  1.
       23    2    5    5    0    0 -2.00039548077E+03 -2.15745546595E+03  3.49494952198E+02  2.96408305770E+03  8.62872197073E+01  0.00000000000E+00  1.
       23    2    5    5    0    0 -5.33267747822E+01 -7.21617650273E+01  6.12811721013E+00  9.05954633804E+01  1.09049953707E+01  0.00000000000E+00  1.
      -16    1    6    6    0    0 -1.20981112903E+03 -1.36593416973E+03  2.21835279285E+02  1.83810500655E+03  2.47556682316E-05  0.00000000000E+00  1.
       16    1    6    6    0    0 -7.90584351740E+02 -7.91521296219E+02  1.27659672913E+02  1.12597805115E+03  1.51230269150E-05  0.00000000000E+00  1.
       -3    1    7    7    0  803 -3.71642831291E+01 -5.67406440324E+01  7.33467591810E+00  6.82237648957E+01  1.55282504862E-06  0.00000000000E+00  1.
        3    1    7    7  803    0 -1.61624916531E+01 -1.54211209948E+01 -1.20655870797E+00  2.23716984847E+01  7.06594013865E-07  0.00000000000E+00  1.
</event>
<event>
11  60   1.0000000E+00   1.2500000E+02   7.8125000E-03   1.2380861E-01
        2   -1    0    0  501    0  0.00000000000E+00  0.00000000000E+00  4.14277880585E+03  4.14277880585E+03  0.00000000000E+00  0.00000000000E+00  1.
        1   -1    0    0  502    0  0.00000000000E+00  0.00000000000E+00 -2.37024641925E+03  2.37024641925E+03  0.00000000000E+00  0.00000000000E+00  1.
        2    1    1    2  502    0  2.97300680291E+02 -1.54807177557E+03  2.94651085486E+03  3.34168223124E+03  0.00000000000E+00  0.00000000000E+00  1.
        1    1    1    2  501    0 -3.09299843151E+01 -1.31698677300E+01  7.07796487284E+02  7.08594366868E+02  0.00000000000E+00  0.00000000000E+00  1.
       25    2    1    2    0    0 -2.66370695976E+02  1.56124164330E+03 -1.88177495554E+03  2.46274862699E+03  1.25000000000E+02  0.00000000000E+00  1.
       23    2    5    5    0    0 -2.47339837075E+02  1.44290034753E+03 -1.72215279576E+03  2.26212176265E+03  9.08086405483E+01  0.00000000000E+00  1.
       23    2    5    5    0    0 -1.90308589015E+01  1.18341295771E+02 -1.59622159778E+02  2.00626864341E+02  2.01263242452E+01  0.00000000000E+00  1.
       -3    1    6    6    0  803 -9.62676119800E+01  5.86384901712E+02 -7.68122455503E+02  9.71147163266E+02  1.19209289551E-05  0.00000000000E+00  1.
        3    1    7    7  804    0 -2.00539904792E+01  1.18632509707E+02 -1.59011329545E+02  1.99400195129E+02  2.98023223877E-06  0.00000000000E+00  1.
       -3    1    7    7    0  804  1.02313157776E+00 -2.91213936346E-01 -6.10830232906E-01  1.22666921196E+00  3.27931857226E-07  0.00000000000E+00  1.
        3    1    6    6  803    0 -1.51072225095E+02  8.56515445816E+02 -9.54030340259E+02  1.29097459938E+03  1.19209289551E-05  0.00000000000E+00  1.
</event>
<event>
11  60   1.0000000E+00   1.2500000E+02   7.8125000E-03   1.2380861E-01
        2   -1    0    0  501    0  0.00000000000E+00  0.00000000000E+00  3.24120271769E+03  3.24120271769E+03  0.00000000000E+00  0.00000000000E+00  1.
        1   -1    0    0  502    0  0.00000000000E+00  0.00000000000E+00 -2.61446995912E+03  2.61446995912E+03  0.00000000000E+00  0.00000000000E+00  1.
        4    1    1    2  502    0  4.46515696330E+01  2.88960314535E+01 -5.17391671354E+02  5.20118145128E+02  0.00000000000E+00  0.00000000000E+00  1.
        1    1    1    2  501    0  2.25957286319E+03 -4.35032949370E+02 -6.42428376463E+02  2.38906622135E+03  0.00000000000E+00  0.00000000000E+00  1.
       25    2    1    2    0    0 -2.30422443283E+03  4.06136917916E+02  1.78655280639E+03  2.94648831034E+03  1.25000000000E+02  0.00000000000E+00  1.
       23    2    5    5    0    0 -9.11340140803E+02  1.46064385233E+02  7.25146137063E+02  1.17531892596E+03  6.05144672371E+01  0.00000000000E+00  1.
       23    2    5    5    0    0 -1.39288429203E+03  2.60072532683E+02  1.06140666933E+03  1.77116938438E+03  5.18892787491E+01  0.00000000000E+00  1.
      -14    1    6    6    0    0 -4.07438522256E+02  8.61041875072E+01  3.54911013931E+02  5.47158028666E+02  4.21468485109E-06  0.00000000000E+00  1.
       14    1    6    6    0    0 -5.03901618547E+02  5.99601977257E+01  3.70235123132E+02  6.28160897291E+02  1.46000966000E-05  0.00000000000E+00  1.
       -3    1    7    7    0  804 -2.31167686005E+02  4.08166800596E+01  1.52369543381E+02  2.79858854022E+02  2.98023223877E-06  0.00000000000E+00  1.
        3    1    7    7  804    0 -1.16171660602E+03  2.19255852624E+02  9.09037125946E+02  1.49131053036E+03  2.92001931999E-05  0.00000000000E+00  1.
</event>
<event>
11  60   1.0000000E+00   1.2500000E+02   7.8125000E-03   1.2380861E-01
        2   -1    0    0  501    0  0.00000000000E+00  0.00000000000E+00  5.89864519157E+03  5.89864519157E+03  0.00000000000E+00  0.00000000000E+00  1.
        1   -1    0    0  502    0  0.00000000000E+00  0.00000000000E+00 -3.51094748013E+03  3.51094748013E+03  0.00000000000E+00  0.00000000000E+00  1.
        2    1    1    2  501    0  3.99572559871E+01  6.41963692610E+01  7.71065679780E+02  7.74764505297E+02  0.00000000000E+00  0.00000000000E+00  1.
        1    1    1    2  502    0 -1.92112157307E+03 -3.08222169548E+03  3.10436823346E+03  4.77785525184E+03  0.00000000000E+00  0.00000000000E+00  1.
       25    2    1    2    0    0  1.88116431709E+03  3.01802532622E+03 -1.48773620179E+03  3.85697291457E+03  1.25000000000E+02  0.00000000000E+00  1.
       23    2    5    5    0    0  1.61547839330E+03  2.61900008022E+03 -1.31920715931E+03  3.34879808794E+03  7.21751010700E+01  0.00000000000E+00  1.
       23    2    5    5    0    0  2.65685923793E+02  3.99025246003E+02 -1.68529042480E+02  5.08174826632E+02  5.42763429660E+00  0.00000000000E+00  1.
      -13    1    6    6    0    0  9.63876124242E+02  1.49956911051E+03 -7.49701350333E+02  1.93386060148E+03  1.05660000328E-01  0.00000000000E+00  1.
       13    1    6    6    0    0  6.51602269055E+02  1.11943096971E+03 -5.69505808977E+02  1.41493748646E+03  1.05659998310E-01  0.00000000000E+00  1.
      -15    1    7    7    0    0  1.54973403178E+02  2.36336205247E+02 -9.91979318331E+01  2.99524530384E+02  1.77680000000E+00  0.00000000000E+00  1.
       15    1    7    7    0    0  1.10712520614E+02  1.62689040755E+02 -6.93311106470E+01  2.08650296248E+02  1.77680000000E+00  0.00000000000E+00  1.
</event>
<event>
11  60   1.0000000E+00   1.2500000E+02   7.8125000E-03   1.2380861E-01
        1   -1    0    0  501    0  0.00000000000E+00  0.00000000000E+00  4.32205246836E+03  4.32205246836E+03  0.00000000000E+00  0.00000000000E+00  1.
        2   -1    0    0  502    0  0.00000000000E+00  0.00000000000E+00 -4.98087494849E+03  4.98087494849E+03  0.00000000000E+00  0.00000000000E+00  1.
        2    1    1    2  502    0  9.07714578654E+01  3.54796559016E+01 -2.55782930132E+03  2.55968533188E+03  0.00000000000E+00  0.00000000000E+00  1.
        1    1    1    2  501    0 -2.21131363405E+03  1.49169006921E+03 -9.90450069242E+02  2.84535386030E+03  0.00000000000E+00  0.00000000000E+00  1.
       25    2    1    2    0    0  2.12054217618E+03 -1.52716972511E+03  2.88945689043E+03  3.89788822466E+03  1.25000000000E+02  0.00000000000E+00  1.
       23    2    5    5    0    0  1.83974753128E+03 -1.30746626307E+03  2.47121123787E+03  3.34802732330E+03  9.09008661286E+01  0.00000000000E+00  1.
       23    2    5    5    0    0  2.80794644896E+02 -2.19703462042E+02  4.18245652564E+02  5.49860901363E+02  1.73879591468E+01  0.00000000000E+00  1.
      -13    1    6    6    0    0  1.80306804349E+03 -1.29552486912E+03  2.42634607668E+03  3.28885912604E+03  1.05660007725E-01  0.00000000000E+00  1.
       13    1    6    6    0    0  3.66794877912E+01 -1.19413939496E+01  4.48651611841E+01  5.91681972533E+01  1.05660000049E-01  0.00000000000E+00  1.
       -2    1    7    7    0  804  2.39759456287E+02 -1.93836434788E+02  3.56088697994E+02  4.71016264231E+02  5.96046447754E-06  0.00000000000E+00  1.
        2    1    7    7  804    0  4.10351886086E+01 -2.58670272534E+01  6.21569545703E+01  7.88446371323E+01  7.45058059692E-07  0.00000000000E+00  1.
</event>
<event>
11  60   1.0000000E+00   1.2500000E+02   7.8125000E-03   1.2380861E-01
        2   -1    0    0  501    0  0.00000000000E+00  0.00000000000E+00  2.43585903640E+03  2.43585903640E+03  0.00000000000E+00  0.00000000000E+00  1.
        1   -1    0    0  502    0  0.00000000000E+00  0.00000000000E+00 -3.54074311444E+03  3.54074311444E+03  0.00000000000E+00  0.00000000000E+00  1.
        2    1    1    2  502    0  8.84694708740E+02  1.60076138613E+03  1.26318607295E+03  2.22278222008E+03  0.00000000000E+00  0.00000000000E+00  1.
        1    1    1    2  501    0  3.44747262149E+01 -1.48476517226E+01  4.16253516114E+02  4.17942518999E+02  0.00000000000E+00  0.00000000000E+00  1.
       25    2    1    2    0    0 -9.19169434955E+02 -1.58591373441E+03 -2.78432366710E+03  3.33587741176E+03  1.25000000000E+02  0.00000000000E+00  1.
       23    2    5    5    0    0 -1.99063114814E+02 -3.79940864240E+02 -6.59360980854E+02  7.86967624842E+02  2.40822647876E+01  0.00000000000E+00  1.
       23    2    5    5    0    0 -7.20106320141E+02 -1.20597287017E+03 -2.12496268625E+03  2.54890978692E+03  9.24716606165E+01  0.00000000000E+00  1.
       -5    1    6    6    0  804 -6.36740415968E+01 -1.43935862686E+02 -2.38052284206E+02  2.85417884261E+02  4.75000000000E+00  0.00000000000E+00  1.
        5    1    6    6  804    0 -1.35389073217E+02 -2.36005001554E+02 -4.21308696648E+02  5.01549740581E+02  4.75000000000E+00  0.00000000000E+00  1.
       -1    1    7    7    0  803 -3.74180430884E+02 -5.36834080263E+02 -9.83010998872E+02  1.18089476605E+03  1.68587394044E-05  0.00000000000E+00  1.
        1    1    7    7  803    0 -3.45925889257E+02 -6.69138789907E+02 -1.14195168737E+03  1.36801502087E+03  2.38418579102E-05  0.00000000000E+00  1.
</event>
<event>
11  60   1.0000000E+00   1.2500000E+02   7.8125000E-03   1.2380861E-01
        2   -1    0    0  501    0  0.00000000000E+00  0.00000000000E+00  1.66292243359E+03  1.66292243359E+03  0.00000000000E+00  0.00000000000E+00  1.
        1   -1    0    0  502    0  0.00000000000E+00  0.00000000000E+00 -2.66875468755E+03  2.66875468755E+03  0.00000000000E+00  0.00000000000E+00  1.
        2    1    1    2  502    0  8.12323427519E+02  1.67127312682E+03  3.97930697948E+02  1.90036103299E+03  0.00000000000E+00  0.00000000000E+00  1.
        1    1    1    2  501    0 -1.92100713381E+01  6.28751210988E+00  6.08050169821E+01  6.40765927585E+01  0.00000000000E+00  0.00000000000E+00  1.
       25    2    1    2    0    0 -7.93113356181E+02 -1.67756063893E+03 -1.46456796889E+03  2.36723949539E+03  1.25000000000E+02  0.00000000000E+00  1.
       23    2    5    5    0    0 -3.27224626929E+02 -7.06166913985E+02 -5.84582529762E+02  9.73838557628E+02  2.96164708363E+01  0.00000000000E+00  1.
       23    2    5    5    0    0 -4.65888729252E+02 -9.71393724945E+02 -8.79985439128E+02  1.39340093776E+03  8.08314503841E+01  0.00000000000E+00  1.
       -1    1    6    6    0  803 -1.86806744422E+01 -3.54877646350E+01 -2.26592084745E+01  4.60628783848E+01  1.14821158405E-06  0.00000000000E+00  1.
        1    1    6    6  803    0 -3.08543952487E+02 -6.70679149350E+02 -5.61923321287E+02  9.27775679243E+02  1.03238273118E-05  0.00000000000E+00  1.
      -12    1    7    7    0    0 -4.61454426621E+01 -1.21125580600E+02 -7.63538353741E+01  1.50435090090E+02  1.82501207499E-06  0.00000000000E+00  1.
       12    1    7    7    0    0 -4.19743286590E+02 -8.50268144346E+02 -8.03631603754E+02  1.24296584767E+03  1.68587394044E-05  0.00000000000E+00  1.
</event>
<event>
11  60   1.0000000E+00   1.2500000E+02   7.8125000E-03   1.2380861E-01
        1   -1    0    0  501    0  0.00000000000E+00  0.00000000000E+00  5.13982298238E+03  5.13982298238E+03  0.00000000000E+00  0.00000000000E+00  1.
        2   -1    0    0  502    0  0.00000000000E+00  0.00000000000E+00 -3.21709762517E+03  3.21709762517E+03  0.00000000000E+00  0.00000000000E+00  1.
        2    1    1    2  501    0 -9.38834394827E+02  4.31683638869E+02 -2.82173942003E+03  3.00499153735E+03  0.00000000000E+00  0.00000000000E+00  1.
        1    1    1    2  502    0 -2.05600718063E+01 -2.65219055813E+01 -2.48104634180E+02  2.50363810344E+02  0.00000000000E+00  0.00000000000E+00  1.
       25    2    1    2    0    0  9.59394466633E+02 -4.05161733288E+02  4.99256941142E+03  5.10156525986E+03  1.25000000000E+02  0.00000000000E+00  1.
       23    2    5    5    0    0  2.40924803488E+02 -1.12025913119E+02  1.23281454025E+03  1.26151570886E+03  3.15535559947E+01  0.00000000000E+00  1.
       23    2    5    5    0    0  7.18469663145E+02 -2.93135820169E+02  3.75975487117E+03  3.84004955100E+03  8.99810921474E+01  0.00000000000E+00  1.
       -5    1    6    6    0  804  1.89800946707E+02 -7.69346315866E+01  9.11268833288E+02  9.34011127305E+02  4.74999999997E+00  0.00000000000E+00  1.
        5    1    6    6  804    0  5.11238567814E+01 -3.50912815327E+01  3.21545706966E+02  3.27504581556E+02  4.75000000000E+00  0.00000000000E+00  1.
       -2    1    7    7    0  803  4.00727837422E+02 -1.17421827842E+02  2.07942016103E+03  2.12093349529E+03  5.84003863998E-05  0.00000000000E+00  1.
        2    1    7    7  803    0  3.17741825723E+02 -1.75713992326E+02  1.68033471013E+03  1.71911605571E+03  3.37174788087E-05  0.00000000000E+00  1.
</event>
<event>
11  60   1.0000000E+00   1.2500000E+02   7.8125000E-03   1.2380861E-01
        2   -1    0    0  501    0  0.00000000000E+00  0.00000000000E+00  2.64290769437E+03  2.64290769437E+03  0.00000000000E+00  0.00000000000E+00  1.
        1   -1    0    0  502    0  0.00000000000E+00  0.00000000000E+00 -3.19943450441E+03  3.19943450441E+03  0.00000000000E+00  0.00000000000E+00  1.
        2    1    1    2  502    0 -3.11113922516E+02  1.17483143975E+03  1.51942285834E+03  1.94567895786E+03  0.00000000000E+00  0.00000000000E+00  1.
        1    1    1    2  501    0  3.85023545456E+01  4.23763110030E+00  7.85948938813E+02  7.86902867731E+02  0.00000000000E+00  0.00000000000E+00  1.
       25    2    1    2    0    0  2.72611567970E+02 -1.17906907085E+03 -2.86189860719E+03  3.10976037319E+03  1.25000000000E+02  0.00000000000E+00  1.
       23    2    5    5    0    0  1.57939453498E+02 -6.77272184351E+02 -1.68860659106E+03  1.82848299764E+03  9.11886538682E+01  0.00000000000E+00  1.
       23    2    5    5    0    0  1.14672114472E+02 -5.01796886499E+02 -1.17329201613E+03  1.28127737555E+03  1.03802149579E+01  0.00000000000E+00  1.
       -5    1    6    6    0  804 -4.54437539206E+00 -4.82260968738E+01 -1.67568773664E+02  1.74494309863E+02  4.75000000000E+00  0.00000000000E+00  1.
        5    1    6    6  804    0  1.62483828890E+02 -6.29046087477E+02 -1.52103781740E+03  1.65398868777E+03  4.74999999999E+00  0.00000000000E+00  1.
       -2    1    7    7    0  803  6.79088634873E+01 -2.96622432165E+02 -7.06272980530E+02  7.69037062846E+02  0.00000000000E+00  0.00000000000E+00  1.
        2    1    7    7  803    0  4.67632509848E+01 -2.05174454334E+02 -4.67019035596E+02  5.12240312707E+02  5.96046447754E-06  0.00000000000E+00  1.
</event>
<event>
11  60   1.0000000E+00   1.2500000E+02   7.8125000E-03   1.2380861E-01
        2   -1    0    0  501    0  0.00000000000E+00  0.00000000000E+00  2.49744177916E+03  2.49744177916E+03  0.00000000000E+00  0.00000000000E+00  1.
        1   -1    0    0  502    0  0.00000000000E+00  0.00000000000E+00 -1.71993591901E+03  1.71993591901E+03  0.00000000000E+00  0.00000000000E+00  1.
        2    1    1    2  502    0  1.24745049977E+03 -2.87350097245E+02  1.82661912486E+03  2.23052465915E+03  0.00000000000E+00  0.00000000000E+00  1.
        1    1    1    2  501    0 -4.94541727056E+01  3.35777053760E+01  2.14565947527E+02  2.22736892621E+02  0.00000000000E+00  0.00000000000E+00  1.
       25    2    1    2    0    0 -1.19799632706E+03  2.53772391869E+02 -1.26367921224E+03  1.76411614640E+03  1.25000000000E+02  0.00000000000E+00  1.
       23    2    5    5    0    0 -6.22492252709E+02  9.74832683425E+01 -6.42801875264E+02  9.00411480306E+02  2.33878330324E+01  0.00000000000E+00  1.
       23    2    5    5    0    0 -5.75504074351E+02  1.56289123527E+02 -6.20877336976E+02  8.63704666094E+02  6.97556659731E+01  0.00000000000E+00  1.
       -2    1    6    6    0  804 -9.02551374745E+00  1.30540459580E+00 -5.70133054648E+00  1.07549593009E+01  2.94510057212E-07  0.00000000000E+00  1.
        2    1    6    6  804    0 -6.13466738961E+02  9.61778637467E+01 -6.37100544718E+02  8.89656521005E+02  0.00000000000E+00  0.00000000000E+00  1.
       -5    1    7    7    0  803 -2.11809075932E+02  3.85004232757E+01 -2.64215703512E+02  3.40848746106E+02  4.75000000000E+00  0.00000000000E+00  1.
        5    1    7    7  803    0 -3.63694998419E+02  1.17788700251E+02 -3.56661633464E+02  5.22855919988E+02  4.75000000000E+00  0.00000000000E+00  1.
</event>
<event>
11  60   1.0000000E+00   1.2500000E+02   7.8125000E-03   1.2380861E-01
        1   -1    0    0  501    0  0.00000000000E+00  0.00000000000E+00  2.18107742294E+03  2.18107742294E+03  0.00000000000E+00  0.00000000000E+00  1.
        2   -1    0    0  502    0  0.00000000000E+00  0.00000000000E+00 -3.63535581231E+03  3.63535581231E+03  0.00000000000E+00  0.00000000000E+00  1.
        2    1    1    2  501    0  8.09195128313E+02  2.18953430679E+03 -1.06705692190E+03  2.56660626332E+03  0.00000000000E+00  0.00000000000E+00  1.
        1    1    1    2  502    0  5.95000836001E+01  1.07721477274E+02 -7.53518693229E+02  7.63501537431E+02  0.00000000000E+00  0.00000000000E+00  1.
       25    2    1    2    0    0 -8.68695211913E+02 -2.29725578407E+03  3.66297225761E+02  2.48632543450E+03  1.25000000000E+02  0.00000000000E+00  1.
       23    2    5    5    0    0 -1.28922182903E+02 -3.84905323330E+02  8.25907859558E+01  4.14346535737E+02  9.42213248886E+00  0.00000000000E+00  1.
       23    2    5    5    0    0 -7.39773029010E+02 -1.91235046074E+03  2.83706439805E+02  2.07197889876E+03  9.08779059342E+01  0.00000000000E+00  1.
      -11    1    6    6    0    0 -4.28961606594E+00 -8.71167526589E+00  2.60304867082E+00  1.00533553889E+01  5.11000008526E-04  0.00000000000E+00  1.
       11    1    6    6    0    0 -1.24632566837E+02 -3.76193648064E+02  7.99877372849E+01  4.04293180348E+02  5.10997949386E-04  0.00000000000E+00  1.
       -5    1    7    7    0  803 -2.10954623988E+02 -6.08166977737E+02  5.35346636908E+01  6.45954680228E+02  4.75000000001E+00  0.00000000000E+00  1.
        5    1    7    7  803    0 -5.28818405022E+02 -1.30418348300E+03  2.30171776114E+02  1.42602421853E+03  4.75000000002E+00  0.00000000000E+00  1.
</event>
<event>
11  60   1.0000000E+00   1.2500000E+02   7.8125000E-03   1.2380861E-01
        2   -1    0    0  501    0  0.00000000000E+00  0.00000000000E+00  1.86093873310E+03  1.86093873310E+03  0.00000000000E+00  0.00000000000E+00  1.
        1   -1    0    0  502    0  0.00000000000E+00  0.00000000000E+00 -2.63044250392E+03  2.63044250392E+03  0.00000000000E+00  0.00000000000E+00  1.
        2    1    1    2  502    0  1.43783628539E+03  2.57287493480E+02 -6.00995959006E+02  1.57948288393E+03  0.00000000000E+00  0.00000000000E+00  1.
        1    1    1    2  501    0 -2.06295350408E+02 -1.75033724470E+02  1.10284678887E+03  1.13554639536E+03  0.00000000000E+00  0.00000000000E+00  1.
       25    2    1    2    0    0 -1.23154093498E+03 -8.22537690091E+01 -1.27135460068E+03  1.77635195773E+03  1.25000000000E+02  0.00000000000E+00  1.
       23    2    5    5    0    0 -8.34302767186E+02 -1.99509688934E+01 -8.57763274953E+02  1.19899278639E+03  7.32578833454E+01  0.00000000000E+00  1.
       23    2    5    5    0    0 -3.97238167794E+02 -6.23028001157E+01 -4.13591325727E+02  5.77359171336E+02  2.46176187886E+01  0.00000000000E+00  1.
       -2    1    6    6    0  803 -1.11110380715E+01 -2.50561606664E+00 -2.22958366503E+00  1.16062191181E+01  4.55063308722E-07  0.00000000000E+00  1.
        2    1    6    6  803    0 -8.23191729114E+02 -1.74453528267E+01 -8.55533691288E+02  1.18738656728E+03  1.68587394044E-05  0.00000000000E+00  1.
       -1    1    7    7    0  804 -1.89722026030E+02 -1.93513888538E+01 -2.05574789022E+02  2.80410266026E+02  0.00000000000E+00  0.00000000000E+00  1.
        1    1    7    7  804    0 -2.07516141764E+02 -4.29514112619E+01 -2.08016536704E+02  2.96948905310E+02  5.96046447754E-06  0.00000000000E+00  1.
</event>
<event>
11  60   1.0000000E+00   1.2500000E+02   7.8125000E-03   1.2380861E-01
        1   -1    0    0  501    0  0.00000000000E+00  0.00000000000E+00  4.23697088478E+03  4.23697088478E+03  0.00000000000E+00  0.00000000000E+00  1.
        2   -1    0    0  502    0  0.00000000000E+00  0.00000000000E+00 -3.11572062140E+03  3.11572062140E+03  0.00000000000E+00  0.00000000000E+00  1.
        2    1    1    2  501    0  5.01479775189E+01 -7.12959962478E+01  6.33132251748E+02  6.39104363100E+02  0.00000000000E+00  0.00000000000E+00  1.
        1    1    1    2  502    0 -4.17835095026E+01  1.40211564507E+03  3.30789298406E+03  3.59302520695E+03  0.00000000000E+00  0.00000000000E+00  1.
       25    2    1    2    0    0 -8.36446801631E+00 -1.33081964882E+03 -2.81977497243E+03  3.12056193612E+03  1.25000000000E+02  0.00000000000E+00  1.
       23    2    5    5    0    0 -4.39373654780E+00 -9.51769592845E+02 -1.98718711379E+03  2.20511968422E+03  8.80655082464E+01  0.00000000000E+00  1.
       23    2    5    5    0    0 -3.97073146851E+00 -3.79050055975E+02 -8.32587858638E+02  9.15442251896E+02  3.37233237289E+01  0.00000000000E+00  1.
      -16    1    6    6    0    0 -4.30775784512E+01 -3.22959416620E+02 -6.69605207160E+02  7.44667439872E+02  0.00000000000E+00  0.00000000000E+00  1.
       16    1    6    6    0    0  3.86838419034E+01 -6.28810176225E+02 -1.31758190663E+03  1.46045224435E+03  1.68587394044E-05  0.00000000000E+00  1.
       -3    1    7    7    0  804  4.52898981862E+00 -8.11443097724E+01 -1.49266001957E+02  1.69956612397E+02  2.10734242554E-06  0.00000000000E+00  1.
        3    1    7    7  804    0 -8.49972128713E+00 -2.97905746202E+02 -6.83321856680E+02  7.45485639499E+02  1.46000966000E-05  0.00000000000E+00  1.
</event>
<event>
11  60   1.0000000E+00   1.2500000E+02   7.8125000E-03   1.2380861E-01
        1   -1    0    0  501    0  0.00000000000E+00  0.00000000000E+00  3.45728833484E+03  3.45728833484E+03  0.00000000000E+00  0.00000000000E+00  1.
        2   -1    0    0  502    0  0.00000000000E+00  0.00000000000E+00 -2.83851914790E+03  2.83851914790E+03  0.00000000000E+00  0.00000000000E+00  1.
        2    1    1    2  501    0  3.54810037541E+02 -2.72981944516E+03  6.16075557643E+02  2.82087813608E+03  0.00000000000E+00  0.00000000000E+00  1.
        1    1    1    2  502    0 -1.41737967060E+01 -2.37343892538E+01 -6.26568481062E+02  6.27178028319E+02  0.00000000000E+00  0.00000000000E+00  1.
       25    2    1    2    0    0 -3.40636240835E+02  2.75355383441E+03  6.29262110351E+02  2.84775131834E+03  1.25000000000E+02  0.00000000000E+00  1.
       23    2    5    5    0    0 -2.17727952403E+02  1.53604044115E+03  3.70351771157E+02  1.59680341580E+03  7.61250038142E+01  0.00000000000E+00  1.
       23    2    5    5    0    0 -1.22908288432E+02  1.21751339326E+03  2.58910339194E+02  1.25094790254E+03  1.97681813721E+01  0.00000000000E+00  1.
       -2    1    6    6    0  803 -7.38230736403E+01  5.34010932620E+02  1.66047939080E+02  5.64082831180E+02  1.07453801497E-05  0.00000000000E+00  1.
        2    1    6    6  803    0 -1.43904878763E+02  1.00202950853E+03  2.04303832077E+02  1.03272058462E+03  2.04314428580E-05  0.00000000000E+00  1.
       -2    1    7    7    0  804 -1.04705029793E+02  9.83069871262E+02  2.03449185773E+02  1.00934686121E+03  1.36571398227E-05  0.00000000000E+00  1.
        2    1    7    7  804    0 -1.82032586386E+01  2.34443521998E+02  5.54611534206E+01  2.41601041327E+02  4.40782292418E-06  0.00000000000E+00  1.
</event>
<event>
11  60   1.0000000E+00   1.2500000E+02   7.8125000E-03   1.2380861E-01
        2   -1    0    0  501    0  0.00000000000E+00  0.00000000000E+00  3.89097186492E+03  3.89097186492E+03  0.00000000000E+00  0.00000000000E+00  1.
        1   -1    0    0  502    0  0.00000000000E+00  0.00000000000E+00 -4.03531813704E+03  4.03531813704E+03  0.00000000000E+00  0.00000000000E+00  1.
        2    1    1    2  502    0  2.20682902560E+03  2.70899822665E+03 -1.48982322957E+03  3.79846534742E+03  0.00000000000E+00  0.00000000000E+00  1.
        1    1    1    2  501    0  2.78307465397E+01 -3.29748073364E+01  5.47386780203E+02  5.49084852743E+02  0.00000000000E+00  0.00000000000E+00  1.
       25    2    1    2    0    0 -2.23465977214E+03 -2.67602341931E+03  7.98090177248E+02  3.57873980179E+03  1.25000000000E+02  0.00000000000E+00  1.
       23    2    5    5    0    0 -5.16895658106E+02 -6.11388174525E+02  1.54136295690E+02  8.15366293030E+02  9.35803633264E+00  0.00000000000E+00  1.
       23    2    5    5    0    0 -1.71776411403E+03 -2.06463524479E+03  6.43953881558E+02  2.76337350876E+03  9.01349092569E+01  0.00000000000E+00  1.
      -15    1    6    6    0    0 -6.05061654277E+01 -7.02922377458E+01  1.55553388382E+01  9.40591320749E+01  1.77680000000E+00  0.00000000000E+00  1.
       15    1    6    6    0    0 -4.56389492678E+02 -5.41095936779E+02  1.38580956852E+02  7.21307160955E+02  1.77680000004E+00  0.00000000000E+00  1.
       -1    1    7    7    0  804 -1.06776073233E+03 -1.34836336307E+03  4.24494876621E+02  1.77155091394E+03  1.03238273118E-05  0.00000000000E+00  1.
        1    1    7    7  804    0 -6.50003381700E+02 -7.16271881712E+02  2.19459004937E+02  9.91822594822E+02  1.57699067060E-05  0.00000000000E+00  1.
</event>
<event>
11  60   1.0000000E+00   1.2500000E+02   7.8125000E-03   1.2380861E-01
        2   -1    0    0  501    0  0.00000000000E+00  0.00000000000E+00  1.80200066925E+03  1.80200066925E+03  0.00000000000E+00  0.00000000000E+00  1.
        1   -1    0    0  502    0  0.00000000000E+00  0.00000000000E+00 -3.68547356308E+03  3.68547356308E+03  0.00000000000E+00  0.00000000000E+00  1.
        2    1    1    2  502    0  1.08409744868E+03 -1.44395286218E+03  5.17830986765E+02  1.87840785701E+03  0.00000000000E+00  0.00000000000E+00  1.
        1    1    1    2  501    0  2.31195311847E+00 -4.70121819607E+01  3.17566658710E+02  3.21035937403E+02  0.00000000000E+00  0.00000000000E+00  1.
       25    2    1    2    0    0 -1.08640940180E+03  1.49096504414E+03 -2.71887053931E+03  3.28803043792E+03  1.25000000000E+02  0.00000000000E+00  1.
       23    2    5    5    0    0 -6.03776754825E+02  8.24027157054E+02 -1.50121168292E+03  1.81817969769E+03  9.25946591855E+01  0.00000000000E+00  1.
       23    2    5    5    0    0 -4.82632646975E+02  6.66937887086E+02 -1.21765885639E+03  1.46985074023E+03  5.26221122242E+00  0.00000000000E+00  1.
       -1    1    6    6    0  804 -2.72612146714E+02  3.00392623537E+02 -6.22478377562E+02  7.42988856810E+02  1.19209289551E-05  0.00000000000E+00  1.
        1    1    6    6  804    0 -3.31164608111E+02  5.23634533517E+02 -8.78733305362E+02  1.07519084088E+03  1.19209289551E-05  0.00000000000E+00  1.
      -13    1    7    7    0    0 -4.58268095911E+02  6.34184424865E+02 -1.15547186164E+03  1.39546220539E+03  1.05659999655E-01  0.00000000000E+00  1.
       13    1    7    7    0    0 -2.43645510635E+01  3.27534622206E+01 -6.21869947453E+01  7.43885348387E+01  1.05659999986E-01  0.00000000000E+00  1.
</event>
<event>
11  60   1.0000000E+00   1.2500000E+02   7.8125000E-03   1.2380861E-01
        2   -1    0    0  501    0  0.00000000000E+00  0.00000000000E+00  3.95485244054E+03  3.95485244054E+03  0.00000000000E+00  0.00000000000E+00  1.
        1   -1    0    0  502    0  0.00000000000E+00  0.00000000000E+00 -3.13539239127E+03  3.13539239127E+03  0.00000000000E+00  0.00000000000E+00  1.
        2    1    1    2  502    0  1.29865398785E+03  2.17802229490E+03  2.23847127436E+03  3.38246019095E+03  0.00000000000E+00  0.00000000000E+00  1.
        1    1    1    2  501    0  4.00464272765E+01  1.04043311319E+01  4.99937598938E+02  5.01646857137E+02  0.00000000000E+00  0.00000000000E+00  1.
       25    2    1    2    0    0 -1.33870041513E+03 -2.18842662603E+03 -1.91894882403E+03  3.20613778372E+03  1.25000000000E+02  0.00000000000E+00  1.
       23    2    5    5    0    0 -8.28759835289E+02 -1.37962809800E+03 -1.22291483349E+03  2.02339559045E+03  9.16104366509E+01  0.00000000000E+00  1.
       23    2    5    5    0    0 -5.09940579841E+02 -8.08798528029E+02 -6.96033990537E+02  1.18274219327E+03  1.48770239596E+01  0.00000000000E+00  1.
       -1    1    6    6    0  803 -2.69563128793E+02 -4.08205083154E+02 -4.18087140679E+02  6.43500215632E+02  5.96046447754E-06  0.00000000000E+00  1.
        1    1    6    6  803    0 -5.59196706496E+02 -9.71423014847E+02 -8.04827692814E+02  1.37989537482E+03  2.06476546236E-05  0.00000000000E+00  1.
       -5    1    7    7    0  804 -3.99146897602E+02 -6.25601403736E+02 -5.39982558823E+02  9.17768537570E+02  4.75000000000E+00  0.00000000000E+00  1.
        5    1    7    7  804    0 -1.10793682239E+02 -1.83197124293E+02 -1.56051431715E+02  2.64973655697E+02  4.75000000000E+00  0.00000000000E+00  1.
</event>
<event>
11  60   1.0000000E+00   1.2500000E+02   7.8125000E-03   1.2380861E-01
        2   -1    0    0  501    0  0.00000000000E+00  0.00000000000E+00  3.10438316056E+03  3.10438316056E+03  0.00000000000E+00  0.00000000000E+00  1.
        1   -1    0    0  502    0  0.00000000000E+00  0.00000000000E+00 -4.93227159616E+03  4.93227159616E+03  0.00000000000E+00  0.00000000000E+00  1.
        2    1    1    2  502    0 -3.34651307390E+01 -5.97540044760E+00 -3.12660312165E+03  3.12678792065E+03  0.00000000000E+00  0.00000000000E+00  1.
        1    1    1    2  501    0  3.97728291262E+02  1.78995626311E+03 -9.08082302237E+02  2.04615363186E+03  0.00000000000E+00  0.00000000000E+00  1.
       25    2    1    2    0    0 -3.64263160523E+02 -1.78398086267E+03  2.20679698829E+03  2.86371320422E+03  1.25000000000E+02  0.00000000000E+00  1.
       23    2    5    5    0    0 -4.37059881258E+01 -2.11542904284E+02  2.73060625966E+02  3.49207914592E+02  2.68969962888E+01  0.00000000000E+00  1.
       23    2    5    5    0    0 -3.20557172397E+02 -1.57243795839E+03  1.93373636232E+03  2.51450528963E+03  8.99027188009E+01  0.00000000000E+00  1.
       -3    1    6    6    0  803 -1.69464022809E+01 -1.30527921647E+02  1.79486223624E+02  2.22575882230E+02  0.00000000000E+00  0.00000000000E+00  1.
        3    1    6    6  803    0 -2.67595858450E+01 -8.10149826375E+01  9.35744023427E+01  1.26632032362E+02  3.65002414999E-06  0.00000000000E+00  1.
       -5    1    7    7    0  804 -2.75590112907E+02 -1.32232108425E+03  1.57550559975E+03  2.07526466205E+03  4.75000000011E+00  0.00000000000E+00  1.
        5    1    7    7  804    0 -4.49670594904E+01 -2.50116874133E+02  3.58230762570E+02  4.39240627579E+02  4.75000000000E+00  0.00000000000E+00  1.
</event>
<event>
11  60   1.0000000E+00   1.2500000E+02   7.8125000E-03   1.2380861E-01
        1   -1    0    0  501    0  0.00000000000E+00  0.00000000000E+00  4.11960073256E+03  4.11960073256E+03  0.00000000000E+00  0.00000000000E+00  1.
        2   -1    0    0  502    0  0.00000000000E+00  0.00000000000E+00 -2.29342835822E+03  2.29342835822E+03  0.00000000000E+00  0.00000000000E+00  1.
        2    1    1    2  501    0  1.18832997744E+03 -4.49162167461E+02 -7.05926730899E+02  1.45334350288E+03  0.00000000000E+00  0.00000000000E+00  1.
        1    1    1    2  502    0  1.10617787240E+02 -9.66641752432E+01 -1.07508583408E+03  1.08507594585E+03  0.00000000000E+00  0.00000000000E+00  1.
       25    2    1    2    0    0 -1.29894776468E+03  5.45826342704E+02  3.60718493933E+03  3.87460964205E+03  1.25000000000E+02  0.00000000000E+00  1.
       23    2    5    5    0    0 -7.06721948553E+02  2.95658567217E+02  1.98073983032E+03  2.12542468248E+03  8.50288453215E+01  0.00000000000E+00  1.
       23    2    5    5    0    0 -5.92225816127E+02  2.50167775487E+02  1.62644510901E+03  1.74918495957E+03  3.17647129647E+01  0.00000000000E+00  1.
      -12    1    6    6    0    0 -1.74519026012E+02  3.87355663049E+01  4.14824618822E+02  4.51704326875E+02  8.42936970218E-06  0.00000000000E+00  1.
       12    1    6    6    0    0 -5.32202922541E+02  2.56923000912E+02  1.56591521150E+03  1.67372035560E+03  3.76972873231E-05  0.00000000000E+00  1.
      -11    1    7    7    0    0 -3.57267934488E+01  1.92507378795E+01  1.22216199538E+02  1.28778080855E+02  5.10996863057E-04  0.00000000000E+00  1.
       11    1    7    7    0    0 -5.56499022679E+02  2.30917037608E+02  1.50422890947E+03  1.62040687872E+03  5.11072900539E-04  0.00000000000E+00  1.
</event>
<event>
11  60   1.0000000E+00   1.2500000E+02   7.8125000E-03   1.2380861E-01
        2   -1    0    0  501    0  0.00000000000E+00  0.00000000000E+00  4.21098478222E+03  4.21098478222E+03  0.00000000000E+00  0.00000000000E+00  1.
        1   -1    0    0  502    0  0.00000000000E+00  0.00000000000E+00 -1.95457819400E+03  1.95457819400E+03  0.00000000000E+00  0.00000000000E+00  1.
        2    1    1    2  501    0  9.39191679779E+00 -3.19475728028E+01  2.42126644505E+02  2.44405743567E+02  0.00000000000E+00  0.00000000000E+00  1.
        1    1    1    2  502    0 -8.77131148615E+02  2.03453034233E+03  2.82449242667E+03  3.58976743454E+03  0.00000000000E+00  0.00000000000E+00  1.
       25    2    1    2    0    0  8.67739231817E+02 -2.00258276953E+03 -8.10212482955E+02  2.33138979812E+03  1.25000000000E+02  0.00000000000E+00  1.
       23    2    5    5    0    0  2.38475270978E+01 -4.82837750777E+01 -2.09138621827E+01  5.92751625365E+01  1.32713140985E+01  0.00000000000E+00  1.
       23    2    5    5    0    0  8.43891704719E+02 -1.95429899445E+03 -7.89298620772E+02  2.27211463558E+03  8.98600882953E+01  0.00000000000E+00  1.
       -4    1    6    6    0  803 -8.42438829612E-01 -7.71178907692E+00 -4.17535934786E+00  8.90172144207E+00  1.27500000000E+00  0.00000000000E+00  1.
        4    1    6    6  803    0  2.46899659274E+01 -4.05719860008E+01 -1.67385028348E+01  5.03734410944E+01  1.27500000000E+00  0.00000000000E+00  1.
      -12    1    7    7    0    0  6.53136399499E+02 -1.45401317105E+03 -5.57197371379E+02  1.68855274380E+03  3.26468084756E-05  0.00000000000E+00  1.
       12    1    7    7    0    0  1.90755305221E+02 -5.00285823402E+02 -2.32101249393E+02  5.83561891779E+02  6.66400187463E-06  0.00000000000E+00  1.
</event>
</LesHouchesEvents>
