<LesHouchesEvents version="1.0">
<!--
=================================
Merged from 175 jobs by JHUGen.py
=================================

Output from the JHUGenerator v7.5.0 described in arXiv:1001.3396 [hep-ph], arXiv:1208.4018 [hep-ph], arXiv:1309.4819 [hep-ph], arXiv:1606.03107 [hep-ph]
   
   Command line: ./JHUGen Seed=765543533 Process=69 DecayMode1=0 DecayMode2=0 PDFSet=3 ReweightInterf=1 mJJcut=30 MPhotonCutoff=4 deltaRcut=0.3 pTjetcut=15 m4l_min=124.99 m4l_max=125.01 etajetcut=6.5 MReso=125 GaReso=0.00407 DataFile=compare_to_reference/VBFoffshell_69.lhe CSmaxFile=VBFoffshell_69/output ReadCSmax VegasNc2=10 VBFoffsh_run=*
   
   Input Parameter:
    Collider: P-P, sqrt(s)=13000.00
    Z boson: mass=91.188, width=2.4952
    W boson: mass=80.399, width=2.0850
    Jet cuts:
            pT >=    15.00 GeV
         |eta| <=     6.50
        DeltaR >=     0.30
           mJJ >=    30.00 GeV
    Lepton cuts:
            pT >=     3.00 GeV
         |eta| <=     2.70
    Mass cuts:
           m(gammastar) >=     4.00 GeV
    124.99 GeV <= m4f <=     125.01 GeV
    Random seed:   765543533
    To reproduce results using this seed, JHUGen should be compiled with the same compiler:
      GNU Fortran (GCC) 6.3.0
    
    WidthScheme:   2
    PDFSet:   3
    Unweighted: T
    Interference: Included through event weights
    Intermediate off-shell gluons: T
    
    
    LHE outputs: compare_to_reference/VBFoffshell_69_*.lhe
    Final LHE output: compare_to_reference/VBFoffshell_69.lhe
    Histogram outputs: compare_to_reference/VBFoffshell_69_*.dat
    Log files: compare_to_reference/VBFoffshell_69_*.log
    
-->
<init>
2212 2212   6500.0000000000000000    6500.0000000000000000 0 0  263000  263000  4  1
 1.5346357E-03  2.8055356E-04  1.0000000E+00  69
</init>
<event>
10  69   1.0000000E+00   1.2499718E+02   7.8125000E-03   1.2380903E-01
        4   -1    0    0  501    0  0.00000000000E+00  0.00000000000E+00  3.29331813241E+01  3.29331813241E+01  0.00000000000E+00  0.00000000000E+00  1.
       21   -1    0    0  502  501  0.00000000000E+00  0.00000000000E+00 -3.20353068763E+02  3.20353068763E+02  0.00000000000E+00  0.00000000000E+00  1.
       21    1    1    2  502  503  5.22493369312E+00 -1.67745661054E+01 -1.47793761837E+02  1.48834411472E+02  3.30362473978E-06  0.00000000000E+00  1.
        4    1    1    2  503    0 -1.31626515120E+01  1.96871895562E+01 -2.75730329484E+01  3.63694734416E+01  1.27500000000E+00  0.00000000000E+00  1.
       23    2    1    2    0    0 -7.95075729396E-01 -2.23280164700E+01 -5.22728322656E+00  2.80418010677E+01  1.61197286668E+01  0.00000000000E+00  1.
       23    2    1    2    0    0  8.73279354824E+00  1.94153930192E+01 -1.06825809426E+02  1.40040564106E+02  8.80135606951E+01  0.00000000000E+00  1.
       13    1    5    5    0    0  3.08986915121E+00  6.43763679405E-01  1.89045496409E+00  3.68058515094E+00  1.05660000000E-01  0.00000000000E+00  1.
      -13    1    5    5    0    0 -3.88494488060E+00 -2.29717801494E+01 -7.11773819065E+00  2.43612159168E+01  1.05660000000E-01  0.00000000000E+00  1.
       11    1    6    6    0    0  2.60034287927E+01 -1.95715509499E+01 -9.69023384410E+00  3.39576876094E+01  5.11001170122E-04  0.00000000000E+00  1.
      -11    1    6    6    0    0 -1.72706352445E+01  3.89869439691E+01 -9.71355755822E+01  1.06082876496E+02  5.11007496819E-04  0.00000000000E+00  1.
</event>
<event>
10  69   1.0377694E+00   1.2500032E+02   7.8125000E-03   1.2380856E-01
       21   -1    0    0  502  501  0.00000000000E+00  0.00000000000E+00  1.52295826973E+03  1.52295826973E+03  0.00000000000E+00  0.00000000000E+00  1.
        2   -1    0    0  501    0  0.00000000000E+00  0.00000000000E+00 -5.44237890762E+01  5.44237890762E+01  0.00000000000E+00  0.00000000000E+00  1.
       21    1    1    2  502  503 -5.12314782505E+01 -1.28255754106E+02  9.12665509655E+02  9.23056084611E+02  1.52587890625E-05  0.00000000000E+00  1.
        2    1    1    2  503    0  7.96231573876E+00  1.13810554725E+02  4.95041906665E+02  5.08018434896E+02  1.32144989591E-05  0.00000000000E+00  1.
       23    2    1    2    0    0  3.17021510774E+01  6.65074651868E+00  3.21486239843E+01  4.77966280550E+01  1.42029862054E+01  0.00000000000E+00  1.
       23    2    1    2    0    0  1.15670114344E+01  7.79445286217E+00  2.86784403451E+01  9.85109112399E+01  9.32062092553E+01  0.00000000000E+00  1.
       13    1    5    5    0    0  1.49948714921E+01  6.46708604593E-01  2.38958250368E+01  2.82185403823E+01  1.05660000000E-01  0.00000000000E+00  1.
      -13    1    5    5    0    0  1.67072795853E+01  6.00403791408E+00  8.25279894749E+00  1.95780876727E+01  1.05660000000E-01  0.00000000000E+00  1.
       13    1    6    6    0    0  7.43334397663E+00 -4.27220660608E+01  1.00737928619E+01  4.45187825288E+01  1.05659999995E-01  0.00000000000E+00  1.
      -13    1    6    6    0    0  4.13366745772E+00  5.05165189230E+01  1.86046474831E+01  5.39921287111E+01  1.05659999993E-01  0.00000000000E+00  1.
</event>
<event>
10  69   1.0029928E+00   1.2499201E+02   7.8125000E-03   1.2380980E-01
       21   -1    0    0  501  502  0.00000000000E+00  0.00000000000E+00  8.28234893298E+01  8.28234893298E+01  0.00000000000E+00  0.00000000000E+00  1.
       -2   -1    0    0    0  501  0.00000000000E+00  0.00000000000E+00 -1.71085816480E+02  1.71085816480E+02  0.00000000000E+00  0.00000000000E+00  1.
       -2    1    1    2    0  503  1.82073861616E+01 -3.54960978145E+01  2.54465979246E+01  4.73181911830E+01  1.39020726558E-06  0.00000000000E+00  1.
       21    1    1    2  503  502 -3.69835619668E+01  1.21180668129E+01 -4.93243545372E+01  6.28293191873E+01  1.34869915235E-06  0.00000000000E+00  1.
       23    2    1    2    0    0  5.86878647045E+00  1.37587281383E+01 -1.62797213458E+01  4.19246028427E+01  3.56215909499E+01  0.00000000000E+00  1.
       23    2    1    2    0    0  1.29073893347E+01  9.61930286332E+00 -4.81048491917E+01  1.01837192597E+02  8.83040519636E+01  0.00000000000E+00  1.
       13    1    6    6    0    0  1.53615673521E+01 -3.56920537562E+01 -3.99530376409E+01  5.57329062011E+01  1.05659999997E-01  0.00000000000E+00  1.
      -13    1    5    5    0    0  3.59192364082E+00 -1.17578114764E+01 -9.17118833132E+00  1.53385105405E+01  1.05659999997E-01  0.00000000000E+00  1.
       13    1    5    5    0    0  2.27686282963E+00  2.55165396147E+01 -7.10853301445E+00  2.65860923023E+01  1.05660000000E-01  0.00000000000E+00  1.
      -13    1    6    6    0    0 -2.45417801738E+00  4.53113566195E+01 -8.15181155076E+00  4.61042863955E+01  1.05660000002E-01  0.00000000000E+00  1.
</event>
<event>
10  69   1.1489734E+00   1.2499675E+02   7.8125000E-03   1.2380910E-01
       21   -1    0    0  502  501  0.00000000000E+00  0.00000000000E+00  2.64461542550E+01  2.64461542550E+01  0.00000000000E+00  0.00000000000E+00  1.
        2   -1    0    0  501    0  0.00000000000E+00  0.00000000000E+00 -9.11733834545E+02  9.11733834545E+02  0.00000000000E+00  0.00000000000E+00  1.
       21    1    1    2  502  503 -1.81354757047E+00 -3.80082512516E+01 -2.17658651470E+02  2.20959735422E+02  3.81469726562E-06  0.00000000000E+00  1.
        2    1    1    2  503    0 -7.59810240566E+01  4.34081661796E+01 -1.10564987461E+02  1.41003550878E+02  2.69739830470E-06  0.00000000000E+00  1.
       23    2    1    2    0    0 -1.30341481686E+00  1.78572191814E+01 -8.00143095849E+01  8.24839424351E+01  8.98509066195E+00  0.00000000000E+00  1.
       23    2    1    2    0    0  7.90979864439E+01 -2.32571341094E+01 -4.77049731774E+02  4.93732760066E+02  9.69443450129E+01  0.00000000000E+00  1.
       11    1    5    5    0    0 -5.08765140807E+00  1.01347984752E+01 -4.93833186395E+01  5.06686342533E+01  5.10999932583E-04  0.00000000000E+00  1.
      -11    1    5    5    0    0  3.78423659120E+00  7.72242070622E+00 -3.06309909454E+01  3.18153081818E+01  5.11000600020E-04  0.00000000000E+00  1.
       11    1    6    6    0    0 -1.54742027680E+01  1.75948669114E+01 -1.12036318439E+02  1.14460329121E+02  5.10980799017E-04  0.00000000000E+00  1.
      -11    1    6    6    0    0  9.45721892119E+01 -4.08520010208E+01 -3.65013413336E+02  3.79272430945E+02  5.10941639717E-04  0.00000000000E+00  1.
</event>
<event>
10  69   1.0000000E+00   1.2499488E+02   7.8125000E-03   1.2380937E-01
        2   -1    0    0  501    0  0.00000000000E+00  0.00000000000E+00  3.88877935873E+02  3.88877935873E+02  0.00000000000E+00  0.00000000000E+00  1.
        2   -1    0    0  502    0  0.00000000000E+00  0.00000000000E+00 -2.09428120866E+02  2.09428120866E+02  0.00000000000E+00  0.00000000000E+00  1.
        2    1    1    2  502    0 -7.06556598376E+01 -1.13183982106E+02  1.31567921074E+01  1.34074372088E+02  3.42610069828E-06  0.00000000000E+00  1.
        2    1    1    2  501    0  1.28940089050E+02  1.11198664287E+02  2.50307765224E+02  3.02728701703E+02  2.69739830470E-06  0.00000000000E+00  1.
       23    2    1    2    0    0 -3.99417613610E+01  2.80234111128E+01 -7.66259326077E+01  1.28330637634E+02  9.06452598683E+01  0.00000000000E+00  1.
       23    2    1    2    0    0 -1.83426678516E+01 -2.60380932946E+01 -7.38880971580E+00  3.31723453131E+01  5.60126934045E+00  0.00000000000E+00  1.
       11    1    5    5    0    0 -4.59743730210E+01 -1.58709539036E+01 -6.73293717126E+01  8.30588613452E+01  5.10997707787E-04  0.00000000000E+00  1.
      -11    1    5    5    0    0  6.03261165996E+00  4.38943650164E+01 -9.29656089508E+00  4.52717762891E+01  5.10998180557E-04  0.00000000000E+00  1.
       13    1    6    6    0    0 -6.79329596814E+00 -9.90143093476E+00 -3.18000493133E-02  1.20083046241E+01  1.05660000000E-01  0.00000000000E+00  1.
      -13    1    6    6    0    0 -1.15493718834E+01 -1.61366623598E+01 -7.35700966648E+00  2.11640406890E+01  1.05660000000E-01  0.00000000000E+00  1.
</event>
<event>
10  69   1.0000000E+00   1.2500629E+02   7.8125000E-03   1.2380767E-01
       -5   -1    0    0    0  501  0.00000000000E+00  0.00000000000E+00  2.99686149598E+02  2.99686149598E+02  0.00000000000E+00  0.00000000000E+00  1.
       21   -1    0    0  501  502  0.00000000000E+00  0.00000000000E+00 -2.85808059266E+01  2.85808059266E+01  0.00000000000E+00  0.00000000000E+00  1.
       -5    1    1    2    0  503  1.56296602488E+01 -7.65852701354E+00  5.41811137427E+00  1.88376682839E+01  4.75000000000E+00  0.00000000000E+00  1.
       21    1    1    2  503  502 -4.00555170684E+00  2.41284190613E+01  1.53093902391E+01  2.88548519381E+01  4.12953092472E-07  0.00000000000E+00  1.
       23    2    1    2    0    0 -1.58500073548E+01 -2.25691819661E+01  1.28098251652E+02  1.31100933678E+02  4.20737770895E+00  0.00000000000E+00  1.
       23    2    1    2    0    0  4.22589881291E+00  6.09928991838E+00  1.22279590406E+02  1.49473501624E+02  8.56444388139E+01  0.00000000000E+00  1.
       11    1    5    5    0    0 -7.14881218503E+00 -1.34208735568E+01  6.54613174450E+01  6.72042368053E+01  5.10997707787E-04  0.00000000000E+00  1.
      -11    1    5    5    0    0 -8.70119516981E+00 -9.14830840930E+00  6.26369342071E+01  6.38966968729E+01  5.10998152747E-04  0.00000000000E+00  1.
       13    1    6    6    0    0 -1.40356261837E+01  2.98096456821E+01  1.17776921180E+01  3.49905554932E+01  1.05660000025E-01  0.00000000000E+00  1.
      -13    1    6    6    0    0  1.82615249966E+01 -2.37103557637E+01  1.10501898288E+02  1.14482946131E+02  1.05660000038E-01  0.00000000000E+00  1.
</event>
<event>
10  69   7.3165796E-01   1.2500163E+02   7.8125000E-03   1.2380837E-01
       -2   -1    0    0    0  502  0.00000000000E+00  0.00000000000E+00  2.05035216460E+01  2.05035216460E+01  0.00000000000E+00  0.00000000000E+00  1.
        2   -1    0    0  503    0  0.00000000000E+00  0.00000000000E+00 -7.82759284270E+02  7.82759284270E+02  0.00000000000E+00  0.00000000000E+00  1.
       21    1    1    2  501  502 -5.63676847115E+00 -2.91578601516E+01 -4.09354421404E+01  5.05733565294E+01  3.96090691706E-06  0.00000000000E+00  1.
       21    1    1    2  503  501 -1.49701445210E+00 -2.79677615203E+01 -4.25532686520E+02  4.26453401949E+02  5.39479660939E-06  0.00000000000E+00  1.
       23    2    1    2    0    0  4.84051100275E+00  3.44638783395E+01 -2.18039989925E+02  2.24484246582E+02  4.05037072368E+01  0.00000000000E+00  1.
       23    2    1    2    0    0  2.29327192050E+00  2.26617433323E+01 -7.77476440385E+01  1.01751800856E+02  6.15623189698E+01  0.00000000000E+00  1.
       13    1    6    6    0    0  1.32927411522E+01  2.49560068093E+00 -7.76105245606E+01  7.87802619741E+01  1.05660000012E-01  0.00000000000E+00  1.
      -13    1    5    5    0    0 -4.31215778597E+00  3.51616624081E+01 -2.07520869262E+02  2.10522824301E+02  1.05660000021E-01  0.00000000000E+00  1.
       13    1    5    5    0    0  9.15266878872E+00 -6.97784068570E-01 -1.05191206627E+01  1.39614222812E+01  1.05660000000E-01  0.00000000000E+00  1.
      -13    1    6    6    0    0 -1.09994692317E+01  2.01661426514E+01 -1.37119477858E-01  2.29715388819E+01  1.05660000001E-01  0.00000000000E+00  1.
</event>
<event>
10  69   1.0000000E+00   1.2499980E+02   7.8125000E-03   1.2380864E-01
        2   -1    0    0  503    0  0.00000000000E+00  0.00000000000E+00  9.63782184770E+01  9.63782184770E+01  0.00000000000E+00  0.00000000000E+00  1.
       -2   -1    0    0    0  502  0.00000000000E+00  0.00000000000E+00 -9.89832768337E+01  9.89832768337E+01  0.00000000000E+00  0.00000000000E+00  1.
       21    1    1    2  501  502  4.56782532158E+01  1.72378889532E+00  1.23253700267E+01  4.73433101007E+01  9.23391186287E-07  0.00000000000E+00  1.
       21    1    1    2  503  501 -1.59843256824E+01  4.43943757347E+00 -9.84696132720E+00  1.92917060124E+01  7.81707587755E-07  0.00000000000E+00  1.
       23    2    1    2    0    0 -4.79420492444E+01 -2.13665797585E+01  2.57871303479E+00  9.96355615203E+01  8.46500120627E+01  0.00000000000E+00  1.
       23    2    1    2    0    0  1.82481217110E+01  1.52033532897E+01 -7.66218009106E+00  2.90909176773E+01  1.49477955005E+01  0.00000000000E+00  1.
       11    1    5    5    0    0 -6.86402875475E+01 -9.40939866238E+00  1.74983284953E+01  7.14578012408E+01  5.10999654484E-04  0.00000000000E+00  1.
      -11    1    5    5    0    0  2.06982383030E+01 -1.19571810961E+01 -1.49196154605E+01  2.81777602795E+01  5.10999487625E-04  0.00000000000E+00  1.
       13    1    6    6    0    0  6.97059874082E+00  5.49290175191E+00 -1.06997228107E+01  1.39016707169E+01  1.05660000000E-01  0.00000000000E+00  1.
      -13    1    6    6    0    0  1.12775229702E+01  9.71045153784E+00  3.03754271961E+00  1.51892469603E+01  1.05660000000E-01  0.00000000000E+00  1.
</event>
<event>
10  69   1.0000000E+00   1.2499620E+02   7.8125000E-03   1.2380918E-01
        2   -1    0    0  501    0  0.00000000000E+00  0.00000000000E+00  2.09841713446E+02  2.09841713446E+02  0.00000000000E+00  0.00000000000E+00  1.
        1   -1    0    0  502    0  0.00000000000E+00  0.00000000000E+00 -5.21898291021E+02  5.21898291021E+02  0.00000000000E+00  0.00000000000E+00  1.
        1    1    1    2  502    0  1.03710704333E+01 -1.41901063576E+01 -2.49839491218E+02  2.50456961557E+02  2.69739830470E-06  0.00000000000E+00  1.
        2    1    1    2  501    0 -3.94184284264E+01 -1.34636987252E+00 -2.50120393618E+02  2.53211051329E+02  2.69739830470E-06  0.00000000000E+00  1.
       23    2    1    2    0    0  9.01853499546E+00 -3.41252236735E+00  8.89980792394E+01  9.07212433125E+01  1.47209577636E+01  0.00000000000E+00  1.
       23    2    1    2    0    0  2.00288229976E+01  1.89489985975E+01  9.89052280213E+01  1.37350748269E+02  9.12291928146E+01  0.00000000000E+00  1.
       13    1    5    5    0    0  3.57150718837E+00  5.44268066880E+00  4.73266217146E+01  4.77723635946E+01  1.05660000000E-01  0.00000000000E+00  1.
      -13    1    5    5    0    0  5.44702780709E+00 -8.85520303615E+00  4.16714575248E+01  4.29488797179E+01  1.05660000002E-01  0.00000000000E+00  1.
       11    1    6    6    0    0 -1.43871449659E+01 -4.75777700994E+00 -1.16800405557E+01  1.91324261397E+01  5.10991672977E-04  0.00000000000E+00  1.
      -11    1    6    6    0    0  3.44159679635E+01  2.37067756074E+01  1.10585268577E+02  1.18218322129E+02  5.10995038018E-04  0.00000000000E+00  1.
</event>
<event>
10  69   9.4792470E-01   1.2500297E+02   7.8125000E-03   1.2380816E-01
       21   -1    0    0  502  501  0.00000000000E+00  0.00000000000E+00  2.37471740879E+01  2.37471740879E+01  0.00000000000E+00  0.00000000000E+00  1.
        2   -1    0    0  501    0  0.00000000000E+00  0.00000000000E+00 -5.97063819931E+02  5.97063819931E+02  0.00000000000E+00  0.00000000000E+00  1.
       21    1    1    2  502  503 -3.44043445571E+01  7.99652949819E+00 -7.46090623296E+01  8.25476564787E+01  2.52318507296E-06  0.00000000000E+00  1.
        2    1    1    2  503    0  3.04941061719E+01 -1.62435867843E+00 -3.11747274978E+02  3.13239353384E+02  5.39479660939E-06  0.00000000000E+00  1.
       23    2    1    2    0    0 -6.70327260992E+00 -1.19050206592E+01 -9.25676331219E+01  1.29132889085E+02  8.89936680957E+01  0.00000000000E+00  1.
       23    2    1    2    0    0  1.06135109951E+01  5.53284983944E+00 -9.43926754141E+01  9.58910950712E+01  1.19107472117E+01  0.00000000000E+00  1.
       13    1    5    5    0    0 -9.54745303621E+00 -4.59372751129E+01 -7.99981694018E+01  9.27421445511E+01  1.05659999978E-01  0.00000000000E+00  1.
      -13    1    5    5    0    0  2.84418042629E+00  3.40322544537E+01 -1.25694637201E+01  3.63907445341E+01  1.05659999978E-01  0.00000000000E+00  1.
       13    1    6    6    0    0  1.04148760599E+01  8.65680224236E+00 -8.18728414456E+01  8.29854396796E+01  1.05659999995E-01  0.00000000000E+00  1.
      -13    1    6    6    0    0  1.98634935258E-01 -3.12395240291E+00 -1.25198339685E+01  1.29056553916E+01  1.05659999998E-01  0.00000000000E+00  1.
</event>
</LesHouchesEvents>
