<LesHouchesEvents version="1.0">
<!--
=================================
Merged from 175 jobs by JHUGen.py
=================================

Output from the JHUGenerator v7.4.1 described in arXiv:1001.3396 [hep-ph], arXiv:1208.4018 [hep-ph], arXiv:1309.4819 [hep-ph], arXiv:1606.03107 [hep-ph]
   
   Command line: ./JHUGen Seed=765543533 Process=69 DecayMode1=0 DecayMode2=0 PDFSet=3 ReweightInterf=1 mJJcut=30 MPhotonCutoff=4 deltaRcut=0.3 pTjetcut=15 m4l_min=124.99 m4l_max=125.01 etajetcut=6.5 MReso=125 GaReso=0.00407 DataFile=compare_to_reference/VBFoffshell_69.lhe CSmaxFile=VBFoffshell_69/output ReadCSmax VegasNc2=10 VBFoffsh_run=*
   
   Input Parameter:
    Collider: P-P, sqrt(s)=13000.00
    Z boson: mass=91.188, width=2.4952
    W boson: mass=80.399, width=2.0850
    Jet cuts:
            pT >=    15.00 GeV
         |eta| <=     6.50
        DeltaR >=     0.30
           mJJ >=    30.00 GeV
    Lepton cuts:
            pT >=     3.00 GeV
         |eta| <=     2.70
    Mass cuts:
           m(gammastar) >=     4.00 GeV
    124.99 GeV <= m4f <=     125.01 GeV
    Random seed:   765543533
    To reproduce results using this seed, JHUGen should be compiled with the same compiler:
      GNU Fortran (GCC) 6.3.0
    
    WidthScheme:   2
    PDFSet:   3
    Unweighted: T
    Interference: Included through event weights
    Intermediate off-shell gluons: T
    
    
    LHE outputs: compare_to_reference/VBFoffshell_69_*.lhe
    Final LHE output: compare_to_reference/VBFoffshell_69.lhe
    Histogram outputs: compare_to_reference/VBFoffshell_69_*.dat
    Log files: compare_to_reference/VBFoffshell_69_*.log
    
-->
<init>
2212 2212   6500.0000000000000000    6500.0000000000000000 0 0  263000  263000  4  1
 1.6479980E-03  7.9076043E-05  1.0000000E+00  69
</init>
<event>
10  69   9.8281039E-01   1.2500320E+02   7.8125000E-03   1.2380813E-01
        2   -1    0    0  501    0  0.00000000000E+00  0.00000000000E+00  1.58425162853E+02  1.58425162853E+02  0.00000000000E+00 0.00000000000E+00  1.
       21   -1    0    0  502  501  0.00000000000E+00  0.00000000000E+00 -4.79282154062E+02  4.79282154062E+02  0.00000000000E+00 0.00000000000E+00  1.
       21    1    1    2  502  503  1.03633854715E+01 -1.57221747109E+01 -1.18639928906E+02  1.20125015158E+02  0.00000000000E+00 0.00000000000E+00  1.
        2    1    1    2  503    0 -5.65605099333E+01 -4.67920112921E+01 -3.20467342937E+02  3.28767245166E+02  7.62939453125E-06 0.00000000000E+00  1.
       23    2    1    2    0    0  9.26051314809E+00 -1.59684925210E+00  3.39859716790E-01  2.19161909235E+01  1.97963857477E+01 0.00000000000E+00  1.
       23    2    1    2    0    0  3.69366113137E+01  6.41110352550E+01  1.17910420918E+02  1.66898865667E+02  9.20751101169E+01 0.00000000000E+00  1.
       13    1    5    5    0    0  7.83979741937E+00  8.58581254050E+00 -4.38316153495E-02  1.16271959562E+01  1.05659999999E-01 0.00000000000E+00  1.
      -13    1    5    5    0    0  1.42071572872E+00 -1.01826617926E+01  3.83691332139E-01  1.02889949674E+01  1.05659999999E-01 0.00000000000E+00  1.
       13    1    6    6    0    0  4.34739468960E+01  7.40946471176E+01  1.25987192611E+02  1.52488637794E+02  1.05659999969E-01 0.00000000000E+00  1.
      -13    1    6    6    0    0 -6.53733558223E+00 -9.98361186254E+00 -8.07677169300E+00  1.44102278730E+01  1.05659999968E-01 0.00000000000E+00  1.
</event>
<event>
10  69   1.0000000E+00   1.2500276E+02   7.8125000E-03   1.2380820E-01
       -2   -1    0    0    0  502  0.00000000000E+00  0.00000000000E+00  3.76485533786E+02  3.76485533786E+02  0.00000000000E+00 0.00000000000E+00  1.
        2   -1    0    0  503    0  0.00000000000E+00  0.00000000000E+00 -8.86203203552E+01  8.86203203552E+01  0.00000000000E+00 0.00000000000E+00  1.
       21    1    1    2  501  502 -1.16489107093E+01 -2.12826652518E+01  1.50392595758E+02  1.52337066467E+02  0.00000000000E+00 0.00000000000E+00  1.
       21    1    1    2  503  501 -2.69544673455E+01 -7.54714937462E+01  1.26412399755E+02  1.49674929397E+02  1.90734863281E-06 0.00000000000E+00  1.
       23    2    1    2    0    0  3.21667588013E+01  8.62777324955E+01  1.46651134573E+01  1.45345101503E+02  1.11497020059E+02 0.00000000000E+00  1.
       23    2    1    2    0    0  6.43661925354E+00  1.04764265025E+01 -3.60489553989E+00  1.77487567737E+01  1.22815925466E+01 0.00000000000E+00  1.
       11    1    5    5    0    0  2.07376049273E+01  8.44639895819E+01 -3.54437334519E+01  9.39173681248E+01  5.10996372904E-04 0.00000000000E+00  1.
      -11    1    5    5    0    0  1.14291538740E+01  1.81374291363E+00  5.01088469091E+01  5.14277333786E+01  5.10992368235E-04 0.00000000000E+00  1.
       13    1    6    6    0    0 -8.26394391709E-01  6.76858815272E+00  2.80684315841E+00  7.37470310068E+00  1.05660000000E-01 0.00000000000E+00  1.
      -13    1    6    6    0    0  7.26301364525E+00  3.70783834975E+00 -6.41173869830E+00  1.03740536730E+01  1.05660000000E-01 0.00000000000E+00  1.
</event>
<event>
10  69   1.0095637E+00   1.2499288E+02   7.8125000E-03   1.2380967E-01
       21   -1    0    0  501  502  0.00000000000E+00  0.00000000000E+00  5.31400922983E+01  5.31400922983E+01  0.00000000000E+00 0.00000000000E+00  1.
       -4   -1    0    0    0  501  0.00000000000E+00  0.00000000000E+00 -6.78110405258E+02  6.78110405258E+02  0.00000000000E+00 0.00000000000E+00  1.
       -4    1    1    2    0  503  1.30366566030E+02 -1.11146057305E+01 -1.83517891067E+02  2.25387262208E+02  1.27500000001E+00 0.00000000000E+00  1.
       21    1    1    2  503  502 -9.77760802194E+01 -2.95284931252E+01 -1.23419595894E+02  1.60201405799E+02  3.81469726562E-06 0.00000000000E+00  1.
       23    2    1    2    0    0  1.29441203480E+01 -8.96681499346E+00 -8.77772369784E+01  9.06469238896E+01  1.62501525029E+01 0.00000000000E+00  1.
       23    2    1    2    0    0 -4.55346061587E+01  4.96099138492E+01 -2.30255589020E+02  2.55014905660E+02  8.64894324373E+01 0.00000000000E+00  1.
       13    1    5    5    0    0  1.63486259903E+01 -4.40180890933E+00 -6.60511290041E+01  6.81866284560E+01  1.05659999991E-01 0.00000000000E+00  1.
      -13    1    5    5    0    0 -3.40450564228E+00 -4.56500608413E+00 -2.17261079743E+01  2.24602954336E+01  1.05659999995E-01 0.00000000000E+00  1.
       13    1    6    6    0    0 -4.04271747248E+01  8.18078936501E+00 -3.14359986926E+01  5.18605336330E+01  1.05660000002E-01 0.00000000000E+00  1.
      -13    1    6    6    0    0 -5.10743143385E+00  4.14291244842E+01 -1.98819590328E+02  2.03154372027E+02  1.05659999952E-01 0.00000000000E+00  1.
</event>
<event>
10  69   1.0040953E+00   1.2499075E+02   7.8125000E-03   1.2380999E-01
       21   -1    0    0  502  501  0.00000000000E+00  0.00000000000E+00  3.81761160595E+01  3.81761160595E+01  0.00000000000E+00 0.00000000000E+00  1.
        2   -1    0    0  501    0  0.00000000000E+00  0.00000000000E+00 -2.44732858894E+02  2.44732858894E+02  0.00000000000E+00 0.00000000000E+00  1.
       21    1    1    2  502  503 -1.52356804289E+01  4.64757255940E+00 -7.01347381308E+00  1.74044449424E+01  1.12145469917E-06 0.00000000000E+00  1.
        2    1    1    2  503    0  4.55877815323E+01 -5.60472409262E+00 -4.32611525802E+01  6.30966407962E+01  1.50789149292E-06 0.00000000000E+00  1.
       23    2    1    2    0    0  2.07273308066E+00  2.25284826403E+01 -1.16908334506E+01  2.70485635894E+01  9.11704189844E+00 0.00000000000E+00  1.
       23    2    1    2    0    0 -3.24248341841E+01 -2.15713311071E+01 -1.44591282991E+02  1.75359325626E+02  9.12554752845E+01 0.00000000000E+00  1.
       13    1    5    5    0    0 -2.78398728339E+00  2.77181758347E+00 -9.53951810735E-01  4.04410014749E+00  1.05660000000E-01 0.00000000000E+00  1.
      -13    1    5    5    0    0  4.85672036405E+00  1.97566650569E+01 -1.07368816399E+01  2.30044634419E+01  1.05660000000E-01 0.00000000000E+00  1.
       13    1    6    6    0    0 -3.89793562633E+01  1.40881691610E+01 -2.08118098201E+01  4.63789749459E+01  1.05659999992E-01 0.00000000000E+00  1.
      -13    1    6    6    0    0  6.55452207918E+00 -3.56595002681E+01 -1.23779473170E+02  1.28980350680E+02  1.05659999952E-01 0.00000000000E+00  1.
</event>
<event>
10  69   9.7509934E-01   1.2500750E+02   7.8125000E-03   1.2380749E-01
        2   -1    0    0  501    0  0.00000000000E+00  0.00000000000E+00  7.40683262267E+02  7.40683262267E+02  0.00000000000E+00 0.00000000000E+00  1.
        4   -1    0    0  502    0  0.00000000000E+00  0.00000000000E+00 -8.31948545172E+01  8.31948545172E+01  0.00000000000E+00 0.00000000000E+00  1.
        2    1    1    2  501    0  3.43979429517E+01 -2.38530836474E+01  6.89914079033E+01  8.06969791459E+01  2.33601545599E-06 0.00000000000E+00  1.
        4    1    1    2  502    0 -1.16282485665E+02  3.20250183423E+01 -1.48681748377E+01  1.21531504229E+02  1.27500000000E+00 0.00000000000E+00  1.
       23    2    1    2    0    0  6.67376943460E+01 -2.91272473884E+01  5.16090690497E+02  5.30411774999E+02  9.84110453837E+01 0.00000000000E+00  1.
       23    2    1    2    0    0  1.51468483669E+01  2.09553126936E+01  8.72744841878E+01  9.12378584102E+01  6.24172023557E+00 0.00000000000E+00  1.
       13    1    5    5    0    0  8.15216202186E+01  5.69335802562E+00  4.01703139819E+02  4.09931229102E+02  1.05660000090E-01 0.00000000000E+00  1.
      -13    1    5    5    0    0 -1.47839258726E+01 -3.48206054140E+01  1.14387550677E+02  1.20480545897E+02  1.05660000090E-01 0.00000000000E+00  1.
       13    1    6    6    0    0  5.63456639643E+00  3.28590022614E+00  2.23922200458E+01  2.33231250348E+01  1.05659999997E-01 0.00000000000E+00  1.
      -13    1    6    6    0    0  9.51228197045E+00  1.76694124674E+01  6.48822641420E+01  6.79147333754E+01  1.05659999995E-01 0.00000000000E+00  1.
</event>
<event>
10  69   1.3732509E+00   1.2499845E+02   7.8125000E-03   1.2380884E-01
       21   -1    0    0  501  502  0.00000000000E+00  0.00000000000E+00  5.17841390225E+02  5.17841390225E+02  0.00000000000E+00 0.00000000000E+00  1.
       21   -1    0    0  503  501  0.00000000000E+00  0.00000000000E+00 -4.40096604493E+01  4.40096604493E+01  0.00000000000E+00 0.00000000000E+00  1.
       -3    1    1    2    0  502  1.57865033210E-01 -4.72917468784E+01  2.60168887473E+01  5.39760386122E+01  2.38418579102E-06 0.00000000000E+00  1.
        3    1    1    2  503    0 -3.19715430402E+01  6.74572660681E+01  3.06613291780E+02  3.15569917778E+02  0.00000000000E+00 0.00000000000E+00  1.
       23    2    1    2    0    0  3.02944117475E+01 -1.18757020151E+01  1.23608227196E+02  1.68809370029E+02  1.10267066241E+02 0.00000000000E+00  1.
       23    2    1    2    0    0  1.51926625949E+00 -8.28981717459E+00  1.75933220516E+01  2.34957242554E+01  1.30956037936E+01 0.00000000000E+00  1.
       13    1    5    5    0    0 -2.91177244203E+01 -3.86307893776E+01  3.97485762855E+01  6.26110233435E+01  1.05660000011E-01 0.00000000000E+00  1.
      -13    1    5    5    0    0  5.94121361678E+01  2.67550873626E+01  8.38596509105E+01  1.06198346685E+02  1.05660000017E-01 0.00000000000E+00  1.
       13    1    6    6    0    0  7.02091636836E+00 -5.68031053494E+00  7.65233993036E+00  1.18375954007E+01  1.05660000000E-01 0.00000000000E+00  1.
      -13    1    6    6    0    0 -5.50165010886E+00 -2.60950663965E+00  9.94098212126E+00  1.16581288547E+01  1.05660000000E-01 0.00000000000E+00  1.
</event>
<event>
10  69   1.0000000E+00   1.2499936E+02   7.8125000E-03   1.2380870E-01
        2   -1    0    0  503    0  0.00000000000E+00  0.00000000000E+00  8.77218554274E+00  8.77218554274E+00  0.00000000000E+00 0.00000000000E+00  1.
       -2   -1    0    0    0  502  0.00000000000E+00  0.00000000000E+00 -1.13282294003E+03  1.13282294003E+03  0.00000000000E+00 0.00000000000E+00  1.
       21    1    1    2  501  502 -1.63470933768E+01  1.72177059121E+00 -9.79639780013E+01  9.93334432187E+01  7.38712949029E-06 0.00000000000E+00  1.
       21    1    1    2  503  501  1.59167718430E+01  2.23400452945E+00 -5.43359524793E+02  5.43597192400E+02  1.07895932188E-05 0.00000000000E+00  1.
       23    2    1    2    0    0  9.43810291877E+00  7.13131847973E+00 -4.12904248995E+02  4.22869318149E+02  9.04909271868E+01 0.00000000000E+00  1.
       23    2    1    2    0    0 -9.00778138497E+00 -1.10870936004E+01 -6.98230026985E+01  7.57951718061E+01  2.57990812491E+01 0.00000000000E+00  1.
       13    1    5    5    0    0 -1.91678280811E+01 -3.51339644400E+01 -1.95559814017E+02  1.99613258860E+02  1.05659999883E-01 0.00000000000E+00  1.
      -13    1    5    5    0    0  2.86059309999E+01  4.22652829197E+01 -2.17344434979E+02  2.23256059288E+02  1.05660000055E-01 0.00000000000E+00  1.
       11    1    6    6    0    0 -9.89833721041E+00  6.48332433628E+00 -2.56528283769E+01  2.82502774850E+01  5.11000488781E-04 0.00000000000E+00  1.
      -11    1    6    6    0    0  8.90555825449E-01 -1.75704179367E+01 -4.41701743216E+01  4.75448943211E+01  5.10998820186E-04 0.00000000000E+00  1.
</event>
<event>
10  69   1.0000000E+00   1.2500130E+02   7.8125000E-03   1.2380841E-01
       -2   -1    0    0    0  501  0.00000000000E+00  0.00000000000E+00  5.35467527773E+01  5.35467527773E+01  0.00000000000E+00 0.00000000000E+00  1.
        2   -1    0    0  501    0  0.00000000000E+00  0.00000000000E+00 -8.05516613071E+02  8.05516613071E+02  0.00000000000E+00 0.00000000000E+00  1.
       -5    1    1    2    0  502  2.43454589888E+00 -2.72479651524E+01 -1.99477900671E+01  3.41885280064E+01  4.74999999997E+00 0.00000000000E+00  1.
        5    1    1    2  502    0 -6.66365868027E+00 -6.45506610331E+01 -6.42433950927E+02  6.45720633084E+02  4.74999999998E+00 0.00000000000E+00  1.
       23    2    1    2    0    0  5.28443404704E+00 -4.53154366012E+00 -2.83955817261E+01  3.31427377535E+01  1.56099927320E+01 0.00000000000E+00  1.
       23    2    1    2    0    0 -1.05532126565E+00  9.63301698456E+01 -6.11925375741E+01  1.46011467005E+02  9.10725343709E+01 0.00000000000E+00  1.
       11    1    5    5    0    0 -2.04660624159E+00  4.50453014565E+00 -1.24985915966E+01  1.34422535723E+01  5.11000071632E-04 0.00000000000E+00  1.
      -11    1    5    5    0    0  7.33104028863E+00 -9.03607380577E+00 -1.58969901295E+01  1.97004841813E+01  5.11000099442E-04 0.00000000000E+00  1.
       13    1    6    6    0    0  1.36277796023E+01  1.07442602676E+02 -6.61935915618E+01  1.26930027868E+02  1.05659999982E-01 0.00000000000E+00  1.
      -13    1    6    6    0    0 -1.46831008679E+01 -1.11124328305E+01  5.00105398772E+00  1.90814391369E+01  1.05659999970E-01 0.00000000000E+00  1.
</event>
<event>
10  69   9.5481036E-01   1.2499950E+02   7.8125000E-03   1.2380868E-01
        1   -1    0    0  501    0  0.00000000000E+00  0.00000000000E+00  2.01138109724E+02  2.01138109724E+02  0.00000000000E+00 0.00000000000E+00  1.
        2   -1    0    0  502    0  0.00000000000E+00  0.00000000000E+00 -1.25356647937E+02  1.25356647937E+02  0.00000000000E+00 0.00000000000E+00  1.
        1    1    1    2  501    0 -3.96492109759E+01  3.43257624112E+00  1.20100143015E+02  1.26522278128E+02  1.90734863281E-06 0.00000000000E+00  1.
        2    1    1    2  502    0  2.77173579912E+01 -9.90642849889E+00  3.92046848254E+01  4.90244487156E+01  1.65181236989E-06 0.00000000000E+00  1.
       23    2    1    2    0    0  4.66757337885E+00 -8.71571093631E+00  1.32462873228E+01  1.90848462478E+01  9.54030241089E+00 0.00000000000E+00  1.
       23    2    1    2    0    0  7.26427960586E+00  1.51895631941E+01 -9.67696533753E+01  1.31863184569E+02  8.79775030454E+01 0.00000000000E+00  1.
       11    1    5    5    0    0  4.25484277524E+00 -7.72784897714E-02  7.73908879582E+00  8.83193946184E+00  5.11000078585E-04 0.00000000000E+00  1.
      -11    1    5    5    0    0  4.12730603613E-01 -8.63843244654E+00  5.50719852697E+00  1.02529067859E+01  5.11000068156E-04 0.00000000000E+00  1.
       11    1    6    6    0    0 -1.25972004571E+01  2.03742111774E+01  7.88188378035E+00  2.52174945751E+01  5.10997527021E-04 0.00000000000E+00  1.
      -11    1    6    6    0    0  1.98614800629E+01 -5.18464798329E+00 -1.04651537156E+02  1.06645689994E+02  5.10996817865E-04 0.00000000000E+00  1.
</event>
<event>
10  69   1.0000000E+00   1.2499217E+02   7.8125000E-03   1.2380978E-01
        1   -1    0    0  501    0  0.00000000000E+00  0.00000000000E+00  2.14608175008E+02  2.14608175008E+02  0.00000000000E+00 0.00000000000E+00  1.
       21   -1    0    0  502  501  0.00000000000E+00  0.00000000000E+00 -3.17360831356E+02  3.17360831356E+02  0.00000000000E+00 0.00000000000E+00  1.
       21    1    1    2  502  503  9.83211981986E+01  1.68178579717E+01 -1.39927130722E+02  1.71841497532E+02  2.69739830470E-06 0.00000000000E+00  1.
        1    1    1    2  503    0 -8.30292096011E+01 -3.75518468914E+01 -1.24416413345E+02  1.54218788614E+02  2.69739830470E-06 0.00000000000E+00  1.
       23    2    1    2    0    0  8.98506653531E+00 -2.14034638074E+01  3.02516782670E+01  3.91033070745E+01  8.66400038031E+00 0.00000000000E+00  1.
       23    2    1    2    0    0 -2.42770551328E+01  4.21374527272E+01  1.31339209452E+02  1.66805413143E+02  9.06041808416E+01 0.00000000000E+00  1.
       11    1    5    5    0    0  4.98267867025E+00 -1.59088607585E+01  2.65851547683E+01  3.13797608608E+01  5.11000043823E-04 0.00000000000E+00  1.
      -11    1    5    5    0    0  4.00238786506E+00 -5.49460304890E+00  3.66652349876E+00  7.72354621372E+00  5.11000226325E-04 0.00000000000E+00  1.
       13    1    6    6    0    0 -5.22404706521E+01  3.86377841975E+00  4.86311480941E+01  7.14772361429E+01  1.05659999997E-01 0.00000000000E+00  1.
      -13    1    6    6    0    0  2.79634155193E+01  3.82736743074E+01  8.27080613582E+01  9.53281770001E+01  1.05660000004E-01 0.00000000000E+00  1.
</event>
</LesHouchesEvents>
