<LesHouchesEvents version="1.0">
<!--
Output from the JHUGenerator v7.5.1 described in arXiv:1001.3396 [hep-ph], arXiv:1208.4018 [hep-ph], arXiv:1309.4819 [hep-ph], arXiv:1606.03107 [hep-ph]
   
   Command line: ./JHUGen Seed=765543533 VegasNc0=100000 ReadLHE=compare_to_reference/WH.lhe DataFile=compare_to_reference/WH_Zgamma DecayMode1=9 DecayMode2=7 ghg2=0.383432074687728,0.918260989345657 ghg3=6294.49296087723,2253.12941717723 ghg4=0.335495485382528,0.17285803562226 ghz1=0.154934976270359,0.453918144016304 ghz2=0.469297059144414,0.745302300947002 ghz3=3947.40921062637,3597.4885961919 ghz4=0.177791270766536,0.920170534486048 ghzgs2=0.0240331049939919,0.232175381101053 ghzgs3=0.331962910170583,0.0450183240308457 ghzgs4=0.808286540247172,0.133184346613754 ghgsgs2=0.530394804029869,0.211218112389125 ghgsgs3=0.914978695198138,0.055650585081425 ghgsgs4=0.694524307167701,0.511424456076726 ghz1_prime=0.143354267833606,0.0910761280837012 ghz1_prime2=7416.7007267243,4861.35525489789 ghz1_prime3=4431.44656075298,4436.48625894176 ghz1_prime4=2441.69123517064,6946.16318931911 ghz1_prime5=78314042.889773,69465359.939181 ghz1_prime6=51233058.8130761,29537873.5850789 ghz1_prime7=47832192.9001564,59559649.9
   
   Input Parameter:
    Collider: P-P, sqrt(s)=13000.00
    Resonance: spin=0, mass= 125.00 width=   0.00407
               (This is ReadLHEFile mode. Resonance mass/width are read from LHE input parameters.)
    DecayMode1: 9  DecayMode2: 7
    Z boson: mass=91.188, width=2.4952
      m(gammastar) >=     4.00 GeV
    Random seed:   765543533
    To reproduce results using this seed, JHUGen should be compiled with the same compiler:
      GNU Fortran (GCC) 6.3.0
    Interference: T
    Intermediate off-shell photons: T
    
    Spin-0-VV couplings: 
      generate_as=F
      kappa_top=  0.10000000E+01  0.00000000E+00i
      kappa_bot=  0.10000000E+01  0.00000000E+00i
      ghg2=  0.38343207E+00  0.91826099E+00i
      ghg3=  0.62944930E+04  0.22531294E+04i
      ghg4=  0.33549549E+00  0.17285804E+00i
      ghz1=  0.15493498E+00  0.45391814E+00i
      ghz2=  0.46929706E+00  0.74530230E+00i
      ghz3=  0.39474092E+04  0.35974886E+04i
      ghz4=  0.17779127E+00  0.92017053E+00i
      ghz1_prime=   0.14335427E+00  0.91076128E-01i,    Lambda_z1=  1.0000E+04
      ghz1_prime2=  0.74167007E+04  0.48613553E+04i,    Lambda_z1=  1.0000E+04
      ghz1_prime3=  0.44314466E+04  0.44364863E+04i,    Lambda_z1=  1.0000E+04
      ghz1_prime4=  0.24416912E+04  0.69461632E+04i,    Lambda_z1=  1.0000E+04
      ghz1_prime5=  0.78314043E+08  0.69465360E+08i,    Lambda_z1=  1.0000E+04
      ghz1_prime6=  0.51233059E+08  0.29537874E+08i,    Lambda_z1=  1.0000E+04
      ghz1_prime7=  0.47832193E+08  0.59559650E+08i,    Lambda_z1=  1.0000E+04
      ghz2_prime=   0.57465793E+00  0.41992191E+00i,    Lambda_z2=  1.0000E+04
      ghz2_prime2=  0.43854587E+04  0.61761246E+04i,    Lambda_z2=  1.0000E+04
      ghz2_prime3=  0.45921696E+04  0.75499391E+04i,    Lambda_z2=  1.0000E+04
      ghz2_prime4=  0.84715906E+04  0.71997238E+04i,    Lambda_z2=  1.0000E+04
      ghz2_prime5=  0.19558280E+08  0.94843889E+08i,    Lambda_z2=  1.0000E+04
      ghz2_prime6=  0.23209661E+08  0.67617823E+08i,    Lambda_z2=  1.0000E+04
      ghz2_prime7=  0.70059904E+07  0.53660191E+08i,    Lambda_z2=  1.0000E+04
      ghz3_prime=   0.40457065E+04  0.19693161E+04i,    Lambda_z3=  1.0000E+04
      ghz3_prime2=  0.33402456E+08  0.37615919E+07i,    Lambda_z3=  1.0000E+04
      ghz3_prime3=  0.44855080E+08  0.12184926E+08i,    Lambda_z3=  1.0000E+04
      ghz3_prime4=  0.27878602E+08  0.78237524E+08i,    Lambda_z3=  1.0000E+04
      ghz3_prime5=  0.93246434E+12  0.63158085E+12i,    Lambda_z3=  1.0000E+04
      ghz3_prime6=  0.35811562E+12  0.41077746E+12i,    Lambda_z3=  1.0000E+04
      ghz3_prime7=  0.62298148E+12  0.61827857E+12i,    Lambda_z3=  1.0000E+04
      ghz4_prime=   0.41653395E+00  0.33115593E+00i,    Lambda_z4=  1.0000E+04
      ghz4_prime2=  0.75883756E+04  0.39234327E+04i,    Lambda_z4=  1.0000E+04
      ghz4_prime3=  0.89560755E+04  0.93020315E+04i,    Lambda_z4=  1.0000E+04
      ghz4_prime4=  0.32034411E+04  0.28637675E+04i,    Lambda_z4=  1.0000E+04
      ghz4_prime5=  0.49012574E+08  0.74595801E+08i,    Lambda_z4=  1.0000E+04
      ghz4_prime6=  0.73323810E+08  0.53968832E+08i,    Lambda_z4=  1.0000E+04
      ghz4_prime7=  0.68563876E+08  0.43025214E+08i,    Lambda_z4=  1.0000E+04
      ghzgs2=  0.24033105E-01  0.23217538E+00i
      ghzgs3=  0.33196291E+00  0.45018324E-01i
      ghzgs4=  0.80828654E+00  0.13318435E+00i
      ghzgs1_prime2=  0.56689643E+04  0.70176759E+04i,  Lambda_zgs1=  1.0000E+04
      ghgsgs2=  0.53039480E+00  0.21121811E+00i
      ghgsgs3=  0.91497870E+00  0.55650585E-01i
      ghgsgs4=  0.69452431E+00  0.51142446E+00i
      Lambda=  1000.0
      Lambda_Q=  10000.0
      Lambda_z11=   1.3888E+02
      Lambda_z21=   1.5452E+02
      Lambda_z31=   1.1998E+02
      Lambda_z41=   1.8136E+02
      Lambda_z12=   1.3667E+02
      Lambda_z22=   1.6659E+02
      Lambda_z32=   1.3884E+02
      Lambda_z42=   4.9064E+01
      Lambda_z10=   9.6973E+00
      Lambda_z20=   1.9326E+02
      Lambda_z30=   8.9204E+01
      Lambda_z40=   1.6167E+02
    
    LHE output: compare_to_reference/WH_Zgamma.lhe
    Histogram output: compare_to_reference/WH_Zgamma.dat
    Log file: compare_to_reference/WH_Zgamma.log
    LHE input: compare_to_reference/WH.lhe
    

Output from the JHUGenerator v7.5.1 described in arXiv:1001.3396 [hep-ph], arXiv:1208.4018 [hep-ph], arXiv:1309.4819 [hep-ph], arXiv:1606.03107 [hep-ph]

   Command line: ./JHUGen Seed=765543533 PDFSet=3 Process=50 VegasNc0=100000 VegasNc2=100 DataFile=compare_to_reference/WH DecayMode1=11 ghg2=0.383432074687728,

   Input Parameter:
    Collider: P-P, sqrt(s)=13000.00
    Resonance: spin=0, mass= 125.00 width=   0.00407
    DecayMode1:11
    W boson: mass=80.399, width=2.0850
    Jet cuts:
            pT >=     0.00 GeV
        DeltaR >=     0.00
           mJJ >=     0.00 GeV
    Random seed:   765543533
    To reproduce results using this seed, JHUGen should be compiled with the same compiler:
      GNU Fortran (GCC) 6.3.0

    WidthScheme:   2
    PDFSet:   3
    Unweighted: T

    Spin-0-VV couplings:
      generate_as=F
      kappa_top=  0.10000000E+01  0.00000000E+00i
      kappa_bot=  0.10000000E+01  0.00000000E+00i
      ghg2=  0.38343207E+00  0.91826099E+00i
      ghg3=  0.62944930E+04  0.22531294E+04i
      ghg4=  0.33549549E+00  0.17285804E+00i
      ghz1=  0.15493498E+00  0.45391814E+00i
      ghz2=  0.46929706E+00  0.74530230E+00i
      ghz3=  0.39474092E+04  0.35974886E+04i
      ghz4=  0.17779127E+00  0.92017053E+00i
      ghz1_prime=   0.14335427E+00  0.91076128E-01i,    Lambda_z1=  1.0000E+04
      ghz1_prime2=  0.74167007E+04  0.48613553E+04i,    Lambda_z1=  1.0000E+04
      ghz1_prime3=  0.44314466E+04  0.44364863E+04i,    Lambda_z1=  1.0000E+04
      ghz1_prime4=  0.24416912E+04  0.69461632E+04i,    Lambda_z1=  1.0000E+04
      ghz1_prime5=  0.78314043E+08  0.69465360E+08i,    Lambda_z1=  1.0000E+04
      ghz1_prime6=  0.51233059E+08  0.29537874E+08i,    Lambda_z1=  1.0000E+04
      ghz1_prime7=  0.47832193E+08  0.59559650E+08i,    Lambda_z1=  1.0000E+04
      ghz2_prime=   0.57465793E+00  0.41992191E+00i,    Lambda_z2=  1.0000E+04
      ghz2_prime2=  0.43854587E+04  0.61761246E+04i,    Lambda_z2=  1.0000E+04
      ghz2_prime3=  0.45921696E+04  0.75499391E+04i,    Lambda_z2=  1.0000E+04
      ghz2_prime4=  0.84715906E+04  0.71997238E+04i,    Lambda_z2=  1.0000E+04
      ghz2_prime5=  0.19558280E+08  0.94843889E+08i,    Lambda_z2=  1.0000E+04
      ghz2_prime6=  0.23209661E+08  0.67617823E+08i,    Lambda_z2=  1.0000E+04
      ghz2_prime7=  0.70059904E+07  0.53660191E+08i,    Lambda_z2=  1.0000E+04
      ghz3_prime=   0.40457065E+04  0.19693161E+04i,    Lambda_z3=  1.0000E+04
      ghz3_prime2=  0.33402456E+08  0.37615919E+07i,    Lambda_z3=  1.0000E+04
      ghz3_prime3=  0.44855080E+08  0.12184926E+08i,    Lambda_z3=  1.0000E+04
      ghz3_prime4=  0.27878602E+08  0.78237524E+08i,    Lambda_z3=  1.0000E+04
      ghz3_prime5=  0.93246434E+12  0.63158085E+12i,    Lambda_z3=  1.0000E+04
      ghz3_prime6=  0.35811562E+12  0.41077746E+12i,    Lambda_z3=  1.0000E+04
      ghz3_prime7=  0.62298148E+12  0.61827857E+12i,    Lambda_z3=  1.0000E+04
      ghz4_prime=   0.41653395E+00  0.33115593E+00i,    Lambda_z4=  1.0000E+04
      ghz4_prime2=  0.75883756E+04  0.39234327E+04i,    Lambda_z4=  1.0000E+04
      ghz4_prime3=  0.89560755E+04  0.93020315E+04i,    Lambda_z4=  1.0000E+04
      ghz4_prime4=  0.32034411E+04  0.28637675E+04i,    Lambda_z4=  1.0000E+04
      ghz4_prime5=  0.49012574E+08  0.74595801E+08i,    Lambda_z4=  1.0000E+04
      ghz4_prime6=  0.73323810E+08  0.53968832E+08i,    Lambda_z4=  1.0000E+04
      ghz4_prime7=  0.68563876E+08  0.43025214E+08i,    Lambda_z4=  1.0000E+04
      ghzgs2=  0.24033105E-01  0.23217538E+00i
      ghzgs3=  0.33196291E+00  0.45018324E-01i
      ghzgs4=  0.80828654E+00  0.13318435E+00i
      ghzgs1_prime2=  0.56689643E+04  0.70176759E+04i,  Lambda_zgs1=  1.0000E+04
      ghgsgs2=  0.53039480E+00  0.21121811E+00i
      ghgsgs3=  0.91497870E+00  0.55650585E-01i
      ghgsgs4=  0.69452431E+00  0.51142446E+00i
      Lambda=  1000.0
      Lambda_Q=  10000.0
      Lambda_z11=   1.3888E+02
      Lambda_z21=   1.5452E+02
      Lambda_z31=   1.1998E+02
      Lambda_z41=   1.8136E+02
      Lambda_z12=   1.3667E+02
      Lambda_z22=   1.6659E+02
      Lambda_z32=   1.3884E+02
      Lambda_z42=   4.9064E+01
      Lambda_z10=   9.6973E+00
      Lambda_z20=   1.9326E+02
      Lambda_z30=   8.9204E+01
      Lambda_z40=   1.6167E+02

    LHE output: compare_to_reference/WH.lhe
    Histogram output: compare_to_reference/WH.dat
    Log file: compare_to_reference/WH.log

-->
<init>
2212 2212   6500.0000000000000000    6500.0000000000000000 0 0  263000  263000  3  1
 1.0000000E+00  1.0000000E+14  1.0000000E+00  50
</init>
<event>
10  50   1.0000000E+00   1.2500000E+02   7.8125000E-03   1.2380861E-01
       -2   -1    0    0    0  503  0.00000000000E+00  0.00000000000E+00  4.45293071509E+03  4.45293071509E+03  0.00000000000E+00  0.00000000000E+00  1.
        1   -1    0    0  503    0  0.00000000000E+00  0.00000000000E+00 -2.70836343294E+03  2.70836343294E+03  0.00000000000E+00  0.00000000000E+00  1.
      -24    2    1    2    0    0  3.18493322105E+03 -1.15565111377E+03  1.65034199552E+03  3.76956412872E+03  8.15836936288E+01  0.00000000000E+00  1.
       25    2    1    2    0    0 -3.18493322105E+03  1.15565111377E+03  9.42252866269E+01  3.39173001931E+03  1.25000000000E+02  0.00000000000E+00  1.
      -16    1    3    3    0    0  3.00396596377E+03 -1.10185333213E+03  1.54150656608E+03  3.55163832199E+03  5.33120149970E-05  0.00000000000E+00  1.
       15    1    3    3    0    0  1.80967257279E+02 -5.37977816368E+01  1.08835429439E+02  2.17925806722E+02  1.77680000002E+00  0.00000000000E+00  1.
       23    2    4    4    0    0 -2.24004479496E+03  7.83756961501E+02  7.66376072155E+01  2.37613722458E+03  8.98839754463E+01  0.00000000000E+00  1.
       22    1    4    4    0    0 -9.44888426087E+02  3.71894152269E+02  1.75876794114E+01  1.01559279473E+03  1.52509581227E-05  0.00000000000E+00  1.
       -4    1    7    7    0  803 -1.48893385078E+03  4.77020817251E+02  6.02372754848E+01  1.56464150114E+03  1.27500000014E+00  0.00000000000E+00  1.
        4    1    7    7  803    0 -7.51110944181E+02  3.06736144249E+02  1.64003317308E+01  8.11495723441E+02  1.27500000002E+00  0.00000000000E+00  1.
</event>
<event>
10  50   1.0000000E+00   1.2500000E+02   7.8125000E-03   1.2380861E-01
       -2   -1    0    0    0  503  0.00000000000E+00  0.00000000000E+00  1.23433817213E+03  1.23433817213E+03  0.00000000000E+00  0.00000000000E+00  1.
        1   -1    0    0  503    0  0.00000000000E+00  0.00000000000E+00 -3.71883017403E+03  3.71883017403E+03  0.00000000000E+00  0.00000000000E+00  1.
      -24    2    1    2    0    0  1.89566220193E+03 -9.53052827775E+02 -1.56337003635E+03  2.63671943634E+03  7.94898673959E+01  0.00000000000E+00  1.
       25    2    1    2    0    0 -1.89566220193E+03  9.53052827775E+02 -9.21121965552E+02  2.31644890982E+03  1.25000000000E+02  0.00000000000E+00  1.
       -4    1    3    3    0  502  9.43660831256E+02 -4.72219653725E+02 -8.26802630846E+02  1.34055637025E+03  1.27499999998E+00  0.00000000000E+00  1.
        3    1    3    3  502    0  9.52001370679E+02 -4.80833174051E+02 -7.36567405505E+02  1.29616306609E+03  3.37174788087E-05  0.00000000000E+00  1.
       23    2    4    4    0    0 -1.09477019844E+03  5.23686885044E+02 -5.29523938482E+02  1.32693785438E+03  8.71706774299E+01  0.00000000000E+00  1.
       22    1    4    4    0    0 -8.00892003491E+02  4.29365942731E+02 -3.91598027070E+02  9.89511055440E+02  9.42432183077E-06  0.00000000000E+00  1.
       -1    1    7    7    0  803 -1.00935336263E+03  4.55388699925E+02 -4.83611748361E+02  1.20832669499E+03  1.78813934326E-05  0.00000000000E+00  1.
        1    1    7    7  803    0 -8.54168358097E+01  6.82981851199E+01 -4.59121901214E+01  1.18611159391E+02  2.35608045769E-06  0.00000000000E+00  1.
</event>
<event>
10  50   1.0000000E+00   1.2500000E+02   7.8125000E-03   1.2380861E-01
       -1   -1    0    0    0  503  0.00000000000E+00  0.00000000000E+00  5.62672587722E+03  5.62672587722E+03  0.00000000000E+00  0.00000000000E+00  1.
        2   -1    0    0  503    0  0.00000000000E+00  0.00000000000E+00 -2.68749634159E+03  2.68749634159E+03  0.00000000000E+00  0.00000000000E+00  1.
       24    2    1    2    0    0 -5.93816086761E+02 -1.19184584254E+03 -2.43476017880E+03  2.77630704178E+03  8.19121765626E+01  0.00000000000E+00  1.
       25    2    1    2    0    0  5.93816086761E+02  1.19184584254E+03  5.37398971442E+03  5.53791517703E+03  1.25000000000E+02  0.00000000000E+00  1.
      -13    1    3    3    0    0 -2.34362089745E+02 -5.52961560218E+02 -1.13285948104E+03  1.28221008073E+03  1.05660001000E-01  0.00000000000E+00  1.
       14    1    3    3    0    0 -3.59453997016E+02 -6.38884282325E+02 -1.30190069776E+03  1.49409696105E+03  2.38418579102E-05  0.00000000000E+00  1.
       23    2    4    4    0    0  3.72095132329E+02  7.38765048154E+02  3.24673627024E+03  3.35167420137E+03  9.05260170652E+01  0.00000000000E+00  1.
       22    1    4    4    0    0  2.21720954432E+02  4.53080794386E+02  2.12725344418E+03  2.18624097566E+03  3.37174788087E-05  0.00000000000E+00  1.
       -4    1    7    7    0  803  6.73130099950E+01  8.95677378069E+01  3.51167872292E+02  3.68610798981E+02  1.27499999998E+00  0.00000000000E+00  1.
        4    1    7    7  803    0  3.04782122334E+02  6.49197310347E+02  2.89556839795E+03  2.98306340239E+03  1.27500000137E+00  0.00000000000E+00  1.
</event>
<event>
10  50   1.0000000E+00   1.2500000E+02   7.8125000E-03   1.2380861E-01
        2   -1    0    0  503    0  0.00000000000E+00  0.00000000000E+00  1.93717727060E+03  1.93717727060E+03  0.00000000000E+00  0.00000000000E+00  1.
       -3   -1    0    0    0  503  0.00000000000E+00  0.00000000000E+00 -4.04930703993E+03  4.04930703993E+03  0.00000000000E+00  0.00000000000E+00  1.
       24    2    1    2    0    0  4.51729970285E+02  2.05696810046E+02  1.88776949582E+03  1.95396769245E+03  8.91343373882E+01  0.00000000000E+00  1.
       25    2    1    2    0    0 -4.51729970285E+02 -2.05696810046E+02 -3.99989926515E+03  4.03251661808E+03  1.25000000000E+02  0.00000000000E+00  1.
      -15    1    3    3    0    0 -6.73145905865E-01  8.76128544686E+00  1.69319886419E+01  1.91588753767E+01  1.77680000000E+00  0.00000000000E+00  1.
       16    1    3    3    0    0  4.52403116191E+02  1.96935524599E+02  1.87083750717E+03  1.93480881708E+03  4.76837158203E-05  0.00000000000E+00  1.
       23    2    4    4    0    0 -2.17033383344E+02 -7.11864351582E+01 -1.65450064374E+03  1.67156972707E+03  6.78378528032E+01  0.00000000000E+00  1.
       22    1    4    4    0    0 -2.34696586941E+02 -1.34510374888E+02 -2.34539862141E+03  2.36094689101E+03  3.37174788087E-05  0.00000000000E+00  1.
      -14    1    7    7    0    0 -1.70701325287E+02 -8.26104774736E+01 -1.25945398528E+03  1.27365135515E+03  2.92001931999E-05  0.00000000000E+00  1.
       14    1    7    7    0    0 -4.63320580572E+01  1.14240423154E+01 -3.95046658457E+02  3.97918371912E+02  0.00000000000E+00  0.00000000000E+00  1.
</event>
<event>
10  50   1.0000000E+00   1.2500000E+02   7.8125000E-03   1.2380861E-01
       -1   -1    0    0    0  503  0.00000000000E+00  0.00000000000E+00  4.40210134061E+03  4.40210134061E+03  0.00000000000E+00  0.00000000000E+00  1.
        2   -1    0    0  503    0  0.00000000000E+00  0.00000000000E+00 -2.40720444047E+03  2.40720444047E+03  0.00000000000E+00  0.00000000000E+00  1.
       24    2    1    2    0    0  2.15622698774E+03 -1.90106473326E+02  3.53778528862E+03  4.14818104271E+03  7.76268048197E+01  0.00000000000E+00  1.
       25    2    1    2    0    0 -2.15622698774E+03  1.90106473326E+02 -1.54288838849E+03  2.66112473838E+03  1.25000000000E+02  0.00000000000E+00  1.
       -3    1    3    3    0  502  1.61783234679E+03 -1.09034850080E+02  2.65505474273E+03  3.11104255640E+03  4.76837158203E-05  0.00000000000E+00  1.
        4    1    3    3  502    0  5.38394640958E+02 -8.10716232461E+01  8.82730545890E+02  1.03713848631E+03  1.27500000003E+00  0.00000000000E+00  1.
       23    2    4    4    0    0 -1.31699611682E+03  1.71543355527E+02 -9.75789344359E+02  1.64808260209E+03  1.02724971763E+01  0.00000000000E+00  1.
       22    1    4    4    0    0 -8.39230870917E+02  1.85631177986E+01 -5.67099044131E+02  1.01304213629E+03  1.46000966000E-05  0.00000000000E+00  1.
       -2    1    7    7    0  803 -5.18138706514E+02  7.15861252399E+01 -3.87952095432E+02  6.51228931225E+02  1.11510079705E-05  0.00000000000E+00  1.
        2    1    7    7  803    0 -7.98857410309E+02  9.99572302874E+01 -5.87837248928E+02  9.96853670866E+02  1.46000966000E-05  0.00000000000E+00  1.
</event>
<event>
10  50   1.0000000E+00   1.2500000E+02   7.8125000E-03   1.2380861E-01
        2   -1    0    0  503    0  0.00000000000E+00  0.00000000000E+00  1.96311322995E+03  1.96311322995E+03  0.00000000000E+00  0.00000000000E+00  1.
       -1   -1    0    0    0  503  0.00000000000E+00  0.00000000000E+00 -5.14767171544E+03  5.14767171544E+03  0.00000000000E+00  0.00000000000E+00  1.
       24    2    1    2    0    0  2.87346503246E+03 -8.57397148804E+02 -4.17494657536E+02  3.02860435269E+03  7.88122611806E+01  0.00000000000E+00  1.
       25    2    1    2    0    0 -2.87346503246E+03  8.57397148804E+02 -2.76706382795E+03  4.08218059270E+03  1.25000000000E+02  0.00000000000E+00  1.
      -13    1    3    3    0    0  2.19910688194E+03 -6.31487655917E+02 -2.94482966988E+02  2.30685239380E+03  1.05660003354E-01  0.00000000000E+00  1.
       14    1    3    3    0    0  6.74358150512E+02 -2.25909492887E+02 -1.23011690549E+02  7.21751958882E+02  7.59813117026E-06  0.00000000000E+00  1.
       23    2    4    4    0    0 -2.76968902681E+03  8.29866563498E+02 -2.64618999779E+03  3.92050846989E+03  9.06054062555E+01  0.00000000000E+00  1.
       22    1    4    4    0    0 -1.03776005650E+02  2.75305853059E+01 -1.20873830157E+02  1.61672122806E+02  4.21468485109E-06  0.00000000000E+00  1.
       -2    1    7    7    0  803 -2.41140049128E+03  7.51162038001E+02 -2.29354524377E+03  3.41166330723E+03  4.76837158203E-05  0.00000000000E+00  1.
        2    1    7    7  803    0 -3.58288535528E+02  7.87045254966E+01 -3.52644754028E+02  5.08845162666E+02  4.21468485109E-06  0.00000000000E+00  1.
</event>
<event>
10  50   1.0000000E+00   1.2500000E+02   7.8125000E-03   1.2380861E-01
        1   -1    0    0  503    0  0.00000000000E+00  0.00000000000E+00  2.69677180352E+03  2.69677180352E+03  0.00000000000E+00  0.00000000000E+00  1.
       -2   -1    0    0    0  503  0.00000000000E+00  0.00000000000E+00 -3.94299893091E+03  3.94299893091E+03  0.00000000000E+00  0.00000000000E+00  1.
      -24    2    1    2    0    0  1.63334197664E+03 -2.02985451644E+03  1.37059106424E+03  2.94498010185E+03  7.91995222402E+01  0.00000000000E+00  1.
       25    2    1    2    0    0 -1.63334197664E+03  2.02985451644E+03 -2.61681819163E+03  3.69479063258E+03  1.25000000000E+02  0.00000000000E+00  1.
       -4    1    3    3    0  502  7.22226823559E+02 -8.35936633786E+02  5.87900677364E+02  1.25141139217E+03  1.27500000006E+00  0.00000000000E+00  1.
        3    1    3    3  502    0  9.11115153079E+02 -1.19391788266E+03  7.82690386877E+02  1.69356870968E+03  2.06476546236E-05  0.00000000000E+00  1.
       23    2    4    4    0    0 -9.17623261081E+02  1.14291016103E+03 -1.49669990271E+03  2.09679546658E+03  9.03578686337E+01  0.00000000000E+00  1.
       22    1    4    4    0    0 -7.15718715559E+02  8.86944355413E+02 -1.12011828892E+03  1.59799516600E+03  2.66560074985E-05  0.00000000000E+00  1.
      -14    1    7    7    0    0 -2.69805144809E+02  3.53199913688E+02 -5.12147667041E+02  6.78115202639E+02  1.97686242482E-05  0.00000000000E+00  1.
       14    1    7    7    0    0 -6.47818116271E+02  7.89710247340E+02 -9.84552235671E+02  1.41868026394E+03  2.92001931999E-05  0.00000000000E+00  1.
</event>
<event>
10  50   1.0000000E+00   1.2500000E+02   7.8125000E-03   1.2380861E-01
       -1   -1    0    0    0  503  0.00000000000E+00  0.00000000000E+00  3.94454538123E+02  3.94454538123E+02  0.00000000000E+00  0.00000000000E+00  1.
        2   -1    0    0  503    0  0.00000000000E+00  0.00000000000E+00 -4.06297005589E+03  4.06297005589E+03  0.00000000000E+00  0.00000000000E+00  1.
       24    2    1    2    0    0  6.95461727651E+02  7.77470594727E+02 -3.08070225845E+03  3.25356539621E+03  8.26670546557E+01  0.00000000000E+00  1.
       25    2    1    2    0    0 -6.95461727651E+02 -7.77470594727E+02 -5.87813259312E+02  1.20385919780E+03  1.25000000000E+02  0.00000000000E+00  1.
      -13    1    3    3    0    0  2.86471469489E+02  2.85270623025E+02 -1.29623456482E+03  1.35781784102E+03  1.05659996965E-01  0.00000000000E+00  1.
       14    1    3    3    0    0  4.08990258162E+02  4.92199971702E+02 -1.78446769363E+03  1.89574755519E+03  3.37174788087E-05  0.00000000000E+00  1.
       23    2    4    4    0    0 -4.29045749357E+02 -4.39175341505E+02 -3.40765322581E+02  7.07418028188E+02  8.58139027435E+01  0.00000000000E+00  1.
       22    1    4    4    0    0 -2.66415978294E+02 -3.38295253222E+02 -2.47047936731E+02  4.96441169612E+02  4.21468485109E-06  0.00000000000E+00  1.
       -3    1    7    7    0  803 -3.02294232358E+02 -2.73832018849E+02 -1.88273363346E+02  4.49235613915E+02  9.18569267239E-06  0.00000000000E+00  1.
        3    1    7    7  803    0 -1.26751516999E+02 -1.65343322656E+02 -1.52491959235E+02  2.58182414273E+02  6.32202727663E-06  0.00000000000E+00  1.
</event>
<event>
10  50   1.0000000E+00   1.2500000E+02   7.8125000E-03   1.2380861E-01
       -2   -1    0    0    0  503  0.00000000000E+00  0.00000000000E+00  1.93145446105E+03  1.93145446105E+03  0.00000000000E+00  0.00000000000E+00  1.
        1   -1    0    0  503    0  0.00000000000E+00  0.00000000000E+00 -2.74012895066E+03  2.74012895066E+03  0.00000000000E+00  0.00000000000E+00  1.
      -24    2    1    2    0    0 -1.80057357625E+03 -1.38830470044E+03 -7.43436806437E+02  2.39357197626E+03  8.38652229925E+01  0.00000000000E+00  1.
       25    2    1    2    0    0  1.80057357625E+03  1.38830470044E+03 -6.52376831732E+01  2.27801143545E+03  1.25000000000E+02  0.00000000000E+00  1.
      -12    1    3    3    0    0 -3.16120206394E+02 -2.05354924594E+02 -1.15964420279E+02  3.94398753441E+02  1.04308128357E-05  0.00000000000E+00  1.
       11    1    3    3    0    0 -1.48445336986E+03 -1.18294977584E+03 -6.27472386158E+02  1.99917322282E+03  5.12114561177E-04  0.00000000000E+00  1.
       23    2    4    4    0    0  7.71656146122E+02  5.72149792164E+02 -8.15829946491E+01  9.64600958283E+02  3.14742940162E+01  0.00000000000E+00  1.
       22    1    4    4    0    0  1.02891743013E+03  8.16154908276E+02  1.63453114759E+01  1.31341047717E+03  2.06594134483E-05  0.00000000000E+00  1.
       -2    1    7    7    0  803  5.67253121580E+02  4.34926485000E+02 -5.31532842019E+01  7.16772225270E+02  7.45058059692E-06  0.00000000000E+00  1.
        2    1    7    7  803    0  2.04403024542E+02  1.37223307164E+02 -2.84297104471E+01  2.47828733013E+02  4.68261729552E-06  0.00000000000E+00  1.
</event>
<event>
10  50   1.0000000E+00   1.2500000E+02   7.8125000E-03   1.2380861E-01
       -4   -1    0    0    0  503  0.00000000000E+00  0.00000000000E+00  3.45116711074E+03  3.45116711074E+03  0.00000000000E+00  0.00000000000E+00  1.
        1   -1    0    0  503    0  0.00000000000E+00  0.00000000000E+00 -3.76703344380E+03  3.76703344380E+03  0.00000000000E+00  0.00000000000E+00  1.
      -24    2    1    2    0    0 -2.47672530261E+03  9.20332061996E+02  2.29565516321E+03  3.50109834255E+03  8.04838298824E+01  0.00000000000E+00  1.
       25    2    1    2    0    0  2.47672530261E+03 -9.20332061996E+02 -2.61152149627E+03  3.71710221199E+03  1.25000000000E+02  0.00000000000E+00  1.
      -16    1    3    3    0    0 -1.97900413715E+03  7.63168670659E+02  1.81746763484E+03  2.79321900295E+03  6.30796268240E-05  0.00000000000E+00  1.
       15    1    3    3    0    0 -4.97721165458E+02  1.57163391337E+02  4.78187528363E+02  7.07879339593E+02  1.77679999992E+00  0.00000000000E+00  1.
       23    2    4    4    0    0  2.11733366894E+03 -8.18126650644E+02 -2.20071015462E+03  3.16178766069E+03  3.66462071600E+01  0.00000000000E+00  1.
       22    1    4    4    0    0  3.59391633670E+02 -1.02205411352E+02 -4.10811341646E+02  5.55314551301E+02  8.42936970218E-06  0.00000000000E+00  1.
       -2    1    7    7    0  803  4.78639492698E+02 -1.98725159228E+02 -5.14221775314E+02  7.30076357025E+02  5.96046447754E-06  0.00000000000E+00  1.
        2    1    7    7  803    0  1.63869417624E+03 -6.19401491417E+02 -1.68648837931E+03  2.43171130366E+03  3.37174788087E-05  0.00000000000E+00  1.
</event>
<event>
10  50   1.0000000E+00   1.2500000E+02   7.8125000E-03   1.2380861E-01
       -4   -1    0    0    0  503  0.00000000000E+00  0.00000000000E+00  1.95072617716E+03  1.95072617716E+03  0.00000000000E+00  0.00000000000E+00  1.
        3   -1    0    0  503    0  0.00000000000E+00  0.00000000000E+00 -3.36134682706E+03  3.36134682706E+03  0.00000000000E+00  0.00000000000E+00  1.
      -24    2    1    2    0    0  4.02039351284E+02  2.46144607572E+03 -1.13169808085E+02  2.49793794872E+03  8.08341916620E+01  0.00000000000E+00  1.
       25    2    1    2    0    0 -4.02039351284E+02 -2.46144607572E+03 -1.29745084181E+03  2.81413505550E+03  1.25000000000E+02  0.00000000000E+00  1.
       -2    1    3    3    0  502  1.46055822871E+02  1.00354473712E+03 -1.04039703446E+01  1.01417088569E+03  1.95918928011E-05  0.00000000000E+00  1.
        1    1    3    3  502    0  2.55983528413E+02  1.45790133861E+03 -1.02765837740E+02  1.48376706303E+03  1.41364827462E-05  0.00000000000E+00  1.
       23    2    4    4    0    0 -3.63467064658E+02 -2.07018270007E+03 -1.08853853896E+03  2.36891690593E+03  9.53228076592E+01  0.00000000000E+00  1.
       22    1    4    4    0    0 -3.85722866259E+01 -3.91263375653E+02 -2.08912302848E+02  4.45218149568E+02  5.16191365590E-06  0.00000000000E+00  1.
       -5    1    7    7    0  803 -2.82699318399E+01 -3.62724530704E+02 -1.96906366531E+02  4.13718447620E+02  4.75000000000E+00  0.00000000000E+00  1.
        5    1    7    7  803    0 -3.35197132818E+02 -1.70745816936E+03 -8.91632172430E+02  1.95519845831E+03  4.75000000003E+00  0.00000000000E+00  1.
</event>
<event>
10  50   1.0000000E+00   1.2500000E+02   7.8125000E-03   1.2380861E-01
        2   -1    0    0  503    0  0.00000000000E+00  0.00000000000E+00  4.09352471528E+03  4.09352471528E+03  0.00000000000E+00  0.00000000000E+00  1.
       -1   -1    0    0    0  503  0.00000000000E+00  0.00000000000E+00 -4.93758035998E+03  4.93758035998E+03  0.00000000000E+00  0.00000000000E+00  1.
       24    2    1    2    0    0 -3.29001456886E+03  1.37581861135E+03  2.32573476999E+03  4.25823707082E+03  8.04239782056E+01  0.00000000000E+00  1.
       25    2    1    2    0    0  3.29001456886E+03 -1.37581861135E+03 -3.16979041469E+03  4.77286800443E+03  1.25000000000E+02  0.00000000000E+00  1.
       -3    1    3    3    0  502 -2.58964397689E+03  1.09888903971E+03  1.86931376689E+03  3.37759485547E+03  6.74349576174E-05  0.00000000000E+00  1.
        4    1    3    3  502    0 -7.00370591970E+02  2.76929571633E+02  4.56421003110E+02  8.80642215344E+02  1.27500000010E+00  0.00000000000E+00  1.
       23    2    4    4    0    0  1.03894296349E+03 -4.90146033147E+02 -1.03535472583E+03  1.54679376502E+03  3.10793825812E+01  0.00000000000E+00  1.
       22    1    4    4    0    0  2.25107160537E+03 -8.85672578203E+02 -2.13443568886E+03  3.22607423941E+03  4.76837158203E-05  0.00000000000E+00  1.
       -4    1    7    7    0  803  1.17802081339E+02 -5.44493019616E+01 -1.30321249003E+02  1.83922022658E+02  1.27500000001E+00  0.00000000000E+00  1.
        4    1    7    7  803    0  9.21140882152E+02 -4.35696731186E+02 -9.05033476825E+02  1.36287174237E+03  1.27500000015E+00  0.00000000000E+00  1.
</event>
<event>
10  50   1.0000000E+00   1.2500000E+02   7.8125000E-03   1.2380861E-01
       -1   -1    0    0    0  503  0.00000000000E+00  0.00000000000E+00  5.60865581257E+03  5.60865581257E+03  0.00000000000E+00  0.00000000000E+00  1.
        2   -1    0    0  503    0  0.00000000000E+00  0.00000000000E+00 -5.26575073675E+03  5.26575073675E+03  0.00000000000E+00  0.00000000000E+00  1.
       24    2    1    2    0    0 -3.16154252440E+03 -1.50019779224E+03 -3.98717263015E+03  5.30564165133E+03  7.96442110213E+01  0.00000000000E+00  1.
       25    2    1    2    0    0  3.16154252440E+03  1.50019779224E+03  4.33007770597E+03  5.56876489799E+03  1.25000000000E+02  0.00000000000E+00  1.
      -11    1    3    3    0    0 -2.88032588450E+01 -2.22975779584E+01 -4.45213589472E+01  5.75235700011E+01  5.11010713584E-04  0.00000000000E+00  1.
       12    1    3    3    0    0 -3.13273926555E+03 -1.47790021428E+03 -3.94265127120E+03  5.24811808133E+03  6.74349576174E-05  0.00000000000E+00  1.
       23    2    4    4    0    0  2.42484577838E+03  1.16155623939E+03  3.28255667761E+03  4.24411381119E+03  9.07400374074E+01  0.00000000000E+00  1.
       22    1    4    4    0    0  7.36696746015E+02  3.38641552850E+02  1.04752102836E+03  1.32465108680E+03  2.38418579102E-05  0.00000000000E+00  1.
      -16    1    7    7    0    0  1.74607453933E+03  8.30851895453E+02  2.42379541437E+03  3.10062499825E+03  0.00000000000E+00  0.00000000000E+00  1.
       16    1    7    7    0    0  6.78771239060E+02  3.30704343937E+02  8.58761263237E+02  1.14348881294E+03  1.19209289551E-05  0.00000000000E+00  1.
</event>
<event>
10  50   1.0000000E+00   1.2500000E+02   7.8125000E-03   1.2380861E-01
       -1   -1    0    0    0  503  0.00000000000E+00  0.00000000000E+00  5.47691431385E+03  5.47691431385E+03  0.00000000000E+00  0.00000000000E+00  1.
        2   -1    0    0  503    0  0.00000000000E+00  0.00000000000E+00 -4.38862894525E+03  4.38862894525E+03  0.00000000000E+00  0.00000000000E+00  1.
       24    2    1    2    0    0 -1.27245907818E+03 -4.63102308105E+03 -4.41350368595E+02  4.82362523404E+03  8.39247742608E+01  0.00000000000E+00  1.
       25    2    1    2    0    0  1.27245907818E+03  4.63102308105E+03  1.52963573720E+03  5.04191802506E+03  1.25000000000E+02  0.00000000000E+00  1.
      -13    1    3    3    0    0 -1.52227725068E+02 -5.29562412349E+02 -7.67483729530E+01  5.56327199378E+02  1.05659998447E-01  0.00000000000E+00  1.
       14    1    3    3    0    0 -1.12023135312E+03 -4.10146066870E+03 -3.64601995642E+02  4.26729803466E+03  9.57392359031E-05  0.00000000000E+00  1.
       23    2    4    4    0    0  8.33750292551E+02  2.84711792392E+03  9.11637150892E+02  3.10369583427E+03  2.50102717623E+01  0.00000000000E+00  1.
       22    1    4    4    0    0  4.38708785629E+02  1.78390515713E+03  6.17998586308E+02  1.93822219079E+03  3.86282247210E-05  0.00000000000E+00  1.
      -11    1    7    7    0    0  4.43500690673E+01  1.48027344711E+02  5.32403545436E+01  1.63442830251E+02  5.11010985159E-04  0.00000000000E+00  1.
       11    1    7    7    0    0  7.89400223483E+02  2.69909057921E+03  8.58396796348E+02  2.94025300401E+03  5.10933851999E-04  0.00000000000E+00  1.
</event>
<event>
10  50   1.0000000E+00   1.2500000E+02   7.8125000E-03   1.2380861E-01
        2   -1    0    0  503    0  0.00000000000E+00  0.00000000000E+00  2.79455766755E+03  2.79455766755E+03  0.00000000000E+00  0.00000000000E+00  1.
       -1   -1    0    0    0  503  0.00000000000E+00  0.00000000000E+00 -2.28663559893E+03  2.28663559893E+03  0.00000000000E+00  0.00000000000E+00  1.
       24    2    1    2    0    0  4.24876588486E+02  6.20908288960E+02 -2.16931370164E+03  2.29744335166E+03  7.92262533862E+01  0.00000000000E+00  1.
       25    2    1    2    0    0 -4.24876588486E+02 -6.20908288960E+02  2.67723577026E+03  2.78374991483E+03  1.25000000000E+02  0.00000000000E+00  1.
      -11    1    3    3    0    0  3.96007092062E+02  6.01409163726E+02 -2.09671347343E+03  2.21691722643E+03  5.07445255608E-04  0.00000000000E+00  1.
       12    1    3    3    0    0  2.88694964236E+01  1.94991252338E+01 -7.26002282113E+01  8.05261252326E+01  3.94247667650E-06  0.00000000000E+00  1.
       23    2    4    4    0    0 -4.09486142168E+02 -5.61758176890E+02  2.48934294056E+03  2.58616621851E+03  9.04228077209E+01  0.00000000000E+00  1.
       22    1    4    4    0    0 -1.53904463179E+01 -5.91501120697E+01  1.87892829705E+02  1.97583696317E+02  5.16191365590E-06  0.00000000000E+00  1.
       -2    1    7    7    0  803 -2.91325428065E+02 -3.41293336922E+02  1.69353003403E+03  1.75196907022E+03  0.00000000000E+00  0.00000000000E+00  1.
        2    1    7    7  803    0 -1.18160714103E+02 -2.20464839968E+02  7.95812906528E+02  8.34197148290E+02  1.46000966000E-05  0.00000000000E+00  1.
</event>
<event>
10  50   1.0000000E+00   1.2500000E+02   7.8125000E-03   1.2380861E-01
       -2   -1    0    0    0  503  0.00000000000E+00  0.00000000000E+00  5.66250897743E+03  5.66250897743E+03  0.00000000000E+00  0.00000000000E+00  1.
        1   -1    0    0  503    0  0.00000000000E+00  0.00000000000E+00 -3.21159476404E+03  3.21159476404E+03  0.00000000000E+00  0.00000000000E+00  1.
      -24    2    1    2    0    0 -4.28799250849E+02 -4.23794405488E+03  1.04853117403E+03  4.38786458168E+03  9.94954995869E+01  0.00000000000E+00  1.
       25    2    1    2    0    0  4.28799250849E+02  4.23794405488E+03  1.40238303936E+03  4.48623915980E+03  1.25000000000E+02  0.00000000000E+00  1.
      -14    1    3    3    0    0 -3.51512606912E+02 -3.07759158616E+03  7.42467410699E+02  3.18533968989E+03  6.47472172451E-05  0.00000000000E+00  1.
       13    1    3    3    0    0 -7.72866439366E+01 -1.16035246871E+03  3.06063763330E+02  1.20252489179E+03  1.05659999991E-01  0.00000000000E+00  1.
       23    2    4    4    0    0  4.29491256639E+02  4.20826018710E+03  1.38647922495E+03  4.45255619391E+03  9.49498649247E+01  0.00000000000E+00  1.
       22    1    4    4    0    0 -6.92005789862E-01  2.96838677806E+01  1.59038144063E+01  3.36829658893E+01  3.21542406485E-06  0.00000000000E+00  1.
       -2    1    7    7    0  803  1.73745896894E+02  1.27485950063E+03  4.16533206752E+02  1.35238836706E+03  5.96046447754E-06  0.00000000000E+00  1.
        2    1    7    7  803    0  2.55745359744E+02  2.93340068647E+03  9.69946018202E+02  3.10016782685E+03  2.06476546236E-05  0.00000000000E+00  1.
</event>
<event>
10  50   1.0000000E+00   1.2500000E+02   7.8125000E-03   1.2380861E-01
       -2   -1    0    0    0  503  0.00000000000E+00  0.00000000000E+00  2.39787924034E+03  2.39787924034E+03  0.00000000000E+00  0.00000000000E+00  1.
        1   -1    0    0  503    0  0.00000000000E+00  0.00000000000E+00 -2.12666956076E+03  2.12666956076E+03  0.00000000000E+00  0.00000000000E+00  1.
      -24    2    1    2    0    0  1.78580940867E+03 -1.14771825541E+03  8.99990217528E+02  2.30703613985E+03  7.78519172619E+01  0.00000000000E+00  1.
       25    2    1    2    0    0 -1.78580940867E+03  1.14771825541E+03 -6.28780537946E+02  2.21751266125E+03  1.25000000000E+02  0.00000000000E+00  1.
       -4    1    3    3    0  502  2.20464413964E+00  1.39831861735E-01  3.46521775189E+00  4.30271632809E+00  1.27500000000E+00  0.00000000000E+00  1.
        3    1    3    3  502    0  1.78360476453E+03 -1.14785808727E+03  8.96524999776E+02  2.30273342352E+03  5.05762182131E-05  0.00000000000E+00  1.
       23    2    4    4    0    0 -1.02620191165E+03  6.76884767864E+02 -4.26107735412E+02  1.30112628672E+03  9.92267071488E+00  0.00000000000E+00  1.
       22    1    4    4    0    0 -7.59607497024E+02  4.70833487546E+02 -2.02672802534E+02  9.16386374525E+02  1.51962623405E-05  0.00000000000E+00  1.
       -4    1    7    7    0  803 -6.68665015107E+02  4.46328299998E+02 -2.79839885418E+02  8.51254275116E+02  1.27500000009E+00  0.00000000000E+00  1.
        4    1    7    7  803    0 -3.57536896539E+02  2.30556467867E+02 -1.46267849995E+02  4.49872011609E+02  1.27499999999E+00  0.00000000000E+00  1.
</event>
<event>
10  50   1.0000000E+00   1.2500000E+02   7.8125000E-03   1.2380861E-01
       -2   -1    0    0    0  503  0.00000000000E+00  0.00000000000E+00  3.48651287469E+03  3.48651287469E+03  0.00000000000E+00  0.00000000000E+00  1.
        1   -1    0    0  503    0  0.00000000000E+00  0.00000000000E+00 -2.90184932162E+03  2.90184932162E+03  0.00000000000E+00  0.00000000000E+00  1.
      -24    2    1    2    0    0  1.19728880068E+03 -2.49256445470E+03 -1.28273819191E+03  3.04932156910E+03  8.10353608537E+01  0.00000000000E+00  1.
       25    2    1    2    0    0 -1.19728880068E+03  2.49256445470E+03  1.86740174498E+03  3.33904062722E+03  1.25000000000E+02  0.00000000000E+00  1.
       -2    1    3    3    0  502  7.12089781544E+02 -1.56186684905E+03 -8.17013246020E+02  1.90105511633E+03  2.06476546236E-05  0.00000000000E+00  1.
        1    1    3    3  502    0  4.85199019136E+02 -9.30697605647E+02 -4.65724945893E+02  1.14826645277E+03  1.97686242482E-05  0.00000000000E+00  1.
       23    2    4    4    0    0 -9.08389813849E+02  1.82353911224E+03  1.37684258823E+03  2.46057274521E+03  9.08612896118E+01  0.00000000000E+00  1.
       22    1    4    4    0    0 -2.88898986831E+02  6.69025342460E+02  4.90559156749E+02  8.78467882006E+02  2.14907602993E-05  0.00000000000E+00  1.
       -5    1    7    7    0  803 -2.17908568422E+02  3.57208522128E+02  2.74660687764E+02  5.00542833707E+02  4.75000000000E+00  0.00000000000E+00  1.
        5    1    7    7  803    0 -6.90481245427E+02  1.46633059011E+03  1.10218190047E+03  1.96002991151E+03  4.74999999987E+00  0.00000000000E+00  1.
</event>
<event>
10  50   1.0000000E+00   1.2500000E+02   7.8125000E-03   1.2380861E-01
       -2   -1    0    0    0  503  0.00000000000E+00  0.00000000000E+00  6.59324703490E+02  6.59324703490E+02  0.00000000000E+00  0.00000000000E+00  1.
        1   -1    0    0  503    0  0.00000000000E+00  0.00000000000E+00 -3.03094392312E+03  3.03094392312E+03  0.00000000000E+00  0.00000000000E+00  1.
      -24    2    1    2    0    0 -1.08537589239E+02  1.24941994448E+03 -3.44006664482E+02  1.30287082152E+03  7.93800126403E+01  0.00000000000E+00  1.
       25    2    1    2    0    0  1.08537589239E+02 -1.24941994448E+03 -2.02761255515E+03  2.38739780509E+03  1.25000000000E+02  0.00000000000E+00  1.
       -4    1    3    3    0  502 -7.08564234750E+01  9.73970108896E+02 -2.98563353658E+02  1.02116605287E+03  1.27499999985E+00  0.00000000000E+00  1.
        3    1    3    3  502    0 -3.76811657638E+01  2.75449835588E+02 -4.54433108242E+01  2.81704768645E+02  7.88495335300E-06  0.00000000000E+00  1.
       23    2    4    4    0    0  9.93682485223E+01 -1.05532449284E+03 -1.66200817410E+03  1.97336437093E+03  9.11698178814E+01  0.00000000000E+00  1.
       22    1    4    4    0    0  9.16934071670E+00 -1.94095451645E+02 -3.65604381054E+02  4.14033434163E+02  4.21468485109E-06  0.00000000000E+00  1.
       -1    1    7    7    0  803  4.75981820815E+01 -4.22478943933E+02 -7.49334774018E+02  8.61543178579E+02  1.19209289551E-05  0.00000000000E+00  1.
        1    1    7    7  803    0  5.17700664408E+01 -6.32845548902E+02 -9.12673400078E+02  1.11182119235E+03  1.68587394044E-05  0.00000000000E+00  1.
</event>
<event>
10  50   1.0000000E+00   1.2500000E+02   7.8125000E-03   1.2380861E-01
        2   -1    0    0  503    0  0.00000000000E+00  0.00000000000E+00  1.94937296545E+03  1.94937296545E+03  0.00000000000E+00  0.00000000000E+00  1.
       -1   -1    0    0    0  503  0.00000000000E+00  0.00000000000E+00 -4.22386977383E+03  4.22386977383E+03  0.00000000000E+00  0.00000000000E+00  1.
       24    2    1    2    0    0 -5.44933236581E+02 -1.90516543114E+03 -3.36656143375E+03  3.90722471236E+03  7.78557210772E+01  0.00000000000E+00  1.
       25    2    1    2    0    0  5.44933236581E+02  1.90516543114E+03  1.09206462536E+03  2.26601802692E+03  1.25000000000E+02  0.00000000000E+00  1.
      -11    1    3    3    0    0 -4.63037095931E+02 -1.61287919704E+03 -2.79387621342E+03  3.25906841787E+03  5.06884852063E-04  0.00000000000E+00  1.
       12    1    3    3    0    0 -8.18961406494E+01 -2.92286234099E+02 -5.72685220328E+02  6.48156294484E+02  0.00000000000E+00  0.00000000000E+00  1.
       23    2    4    4    0    0  3.30998690137E+02  1.24792761314E+03  7.20941710915E+02  1.48150431946E+03  9.06346375410E+01  0.00000000000E+00  1.
       22    1    4    4    0    0  2.13934546444E+02  6.57237818001E+02  3.71122914445E+02  7.84513707464E+02  8.42936970218E-06  0.00000000000E+00  1.
       -3    1    7    7    0  803  1.90243205189E+02  5.89217270589E+02  3.81031126309E+02  7.27017323245E+02  5.96046447754E-06  0.00000000000E+00  1.
        3    1    7    7  803    0  1.40755484948E+02  6.58710342550E+02  3.39910584606E+02  7.54486996211E+02  1.11510079705E-05  0.00000000000E+00  1.
</event>
<event>
10  50   1.0000000E+00   1.2500000E+02   7.8125000E-03   1.2380861E-01
        1   -1    0    0  503    0  0.00000000000E+00  0.00000000000E+00  3.20989281329E+03  3.20989281329E+03  0.00000000000E+00  0.00000000000E+00  1.
       -2   -1    0    0    0  503  0.00000000000E+00  0.00000000000E+00 -2.17004389437E+03  2.17004389437E+03  0.00000000000E+00  0.00000000000E+00  1.
      -24    2    1    2    0    0 -1.73691251464E+03  1.81858365789E+03 -2.89338532109E+02  2.53274934392E+03  8.36112951894E+01  0.00000000000E+00  1.
       25    2    1    2    0    0  1.73691251464E+03 -1.81858365789E+03  1.32918745103E+03  2.84718736374E+03  1.25000000000E+02  0.00000000000E+00  1.
       -2    1    3    3    0  502 -1.32764100604E+03  1.42586476182E+03 -2.48905059863E+02  1.96409640515E+03  4.51974597219E-05  0.00000000000E+00  1.
        1    1    3    3  502    0 -4.09271508607E+02  3.92718896068E+02 -4.04334722457E+01  5.68652938763E+02  1.56284697081E-05  0.00000000000E+00  1.
       23    2    4    4    0    0  1.44033639717E+03 -1.47550031663E+03  1.11108487444E+03  2.34396543813E+03  8.94106007792E+01  0.00000000000E+00  1.
       22    1    4    4    0    0  2.96576117475E+02 -3.43083341255E+02  2.18102576585E+02  5.03221925612E+02  1.26440545533E-05  0.00000000000E+00  1.
       -1    1    7    7    0  803  5.44805779373E+02 -4.97303307807E+02  4.03523593002E+02  8.40806284053E+02  1.97686242482E-05  0.00000000000E+00  1.
        1    1    7    7  803    0  8.95530617792E+02 -9.78197008828E+02  7.07561281443E+02  1.50315915408E+03  2.66560074985E-05  0.00000000000E+00  1.
</event>
<event>
10  50   1.0000000E+00   1.2500000E+02   7.8125000E-03   1.2380861E-01
       -1   -1    0    0    0  503  0.00000000000E+00  0.00000000000E+00  2.36193368130E+03  2.36193368130E+03  0.00000000000E+00  0.00000000000E+00  1.
        2   -1    0    0  503    0  0.00000000000E+00  0.00000000000E+00 -2.91300773986E+03  2.91300773986E+03  0.00000000000E+00  0.00000000000E+00  1.
       24    2    1    2    0    0 -5.56935538703E+02  9.46043701613E+02 -2.66845826262E+03  2.88661214168E+03  8.17574311855E+01  0.00000000000E+00  1.
       25    2    1    2    0    0  5.56935538703E+02 -9.46043701613E+02  2.11738420406E+03  2.38832927948E+03  1.25000000000E+02  0.00000000000E+00  1.
       -1    1    3    3    0  502 -1.86621627657E+02  3.88149920850E+02 -1.00019019694E+03  1.08897585970E+03  1.68587394044E-05  0.00000000000E+00  1.
        2    1    3    3  502    0 -3.70313911046E+02  5.57893780764E+02 -1.66826806568E+03  1.79763628198E+03  2.38418579102E-05  0.00000000000E+00  1.
       23    2    4    4    0    0  3.64318514903E+02 -6.00243177798E+02  1.31965322273E+03  1.49779346398E+03  9.42378886775E+01  0.00000000000E+00  1.
       22    1    4    4    0    0  1.92617023800E+02 -3.45800523815E+02  7.97730981326E+02  8.90535815504E+02  8.42936970218E-06  0.00000000000E+00  1.
      -12    1    7    7    0    0  3.09679822015E+01 -5.41834629267E+01  1.84475391933E+02  1.94746075198E+02  7.59813117026E-06  0.00000000000E+00  1.
       12    1    7    7    0    0  3.33350532701E+02 -5.46059714871E+02  1.13517783080E+03  1.30304738878E+03  2.38418579102E-05  0.00000000000E+00  1.
</event>
<event>
10  50   1.0000000E+00   1.2500000E+02   7.8125000E-03   1.2380861E-01
       -1   -1    0    0    0  503  0.00000000000E+00  0.00000000000E+00  1.09266306598E+03  1.09266306598E+03  0.00000000000E+00  0.00000000000E+00  1.
        2   -1    0    0  503    0  0.00000000000E+00  0.00000000000E+00 -2.92440435015E+03  2.92440435015E+03  0.00000000000E+00  0.00000000000E+00  1.
       24    2    1    2    0    0  1.14130460399E+03 -7.26920825518E+02 -2.22233310252E+03  2.60314483896E+03  8.12929784945E+01  0.00000000000E+00  1.
       25    2    1    2    0    0 -1.14130460399E+03  7.26920825518E+02  3.90591818350E+02  1.41392257717E+03  1.25000000000E+02  0.00000000000E+00  1.
       -3    1    3    3    0  502  3.48135099890E+02 -2.27002065345E+02 -7.55587670166E+02  8.62346051625E+02  1.46000966000E-05  0.00000000000E+00  1.
        4    1    3    3  502    0  7.93169504105E+02 -4.99918760172E+02 -1.46674543235E+03  1.74079878733E+03  1.27500000015E+00  0.00000000000E+00  1.
       23    2    4    4    0    0 -5.11122502434E+02  2.55344198631E+02  1.47143037130E+02  5.90040725674E+02  7.07900478129E+00  0.00000000000E+00  1.
       22    1    4    4    0    0 -6.30182101556E+02  4.71576626887E+02  2.43448781220E+02  8.23881851496E+02  1.46000966000E-05  0.00000000000E+00  1.
       -1    1    7    7    0  803 -4.89325358442E+02  2.44156202522E+02  1.42278873452E+02  5.65061797926E+02  5.57550398525E-06  0.00000000000E+00  1.
        1    1    7    7  803    0 -2.17971439920E+01  1.11879961089E+01  4.86416367750E+00  2.49789277477E+01  3.60699682143E-07  0.00000000000E+00  1.
</event>
<event>
10  50   1.0000000E+00   1.2500000E+02   7.8125000E-03   1.2380861E-01
       -2   -1    0    0    0  503  0.00000000000E+00  0.00000000000E+00  1.81645104776E+03  1.81645104776E+03  0.00000000000E+00  0.00000000000E+00  1.
        1   -1    0    0  503    0  0.00000000000E+00  0.00000000000E+00 -5.29909554305E+03  5.29909554305E+03  0.00000000000E+00  0.00000000000E+00  1.
      -24    2    1    2    0    0 -2.44396738514E+03  5.95201768103E+02  3.38260081538E+02  2.53928408636E+03  7.93855407776E+01  0.00000000000E+00  1.
       25    2    1    2    0    0  2.44396738514E+03 -5.95201768103E+02 -3.82090457684E+03  4.57626250445E+03  1.25000000000E+02  0.00000000000E+00  1.
      -16    1    3    3    0    0 -7.57051193518E+02  2.06073798426E+02  7.51481667325E+01  7.88187900800E+02  6.90938420258E-06  0.00000000000E+00  1.
       15    1    3    3    0    0 -1.68691619162E+03  3.89127969676E+02  2.63111914806E+02  1.75109618555E+03  1.77680000009E+00  0.00000000000E+00  1.
       23    2    4    4    0    0  1.46920686953E+03 -3.47620189693E+02 -2.34490607643E+03  2.79019803921E+03  8.49233125111E+01  0.00000000000E+00  1.
       22    1    4    4    0    0  9.74760515614E+02 -2.47581578410E+02 -1.47599850041E+03  1.78606446524E+03  1.68587394044E-05  0.00000000000E+00  1.
      -11    1    7    7    0    0  1.13991568587E+03 -2.45118705305E+02 -1.75978979508E+03  2.11100712302E+03  5.11350884188E-04  0.00000000000E+00  1.
       11    1    7    7    0    0  3.29291183654E+02 -1.02501484387E+02 -5.85116281352E+02  6.79190916192E+02  5.11072900539E-04  0.00000000000E+00  1.
</event>
<event>
10  50   1.0000000E+00   1.2500000E+02   7.8125000E-03   1.2380861E-01
       -1   -1    0    0    0  503  0.00000000000E+00  0.00000000000E+00  4.30648515290E+03  4.30648515290E+03  0.00000000000E+00  0.00000000000E+00  1.
        2   -1    0    0  503    0  0.00000000000E+00  0.00000000000E+00 -2.62871026376E+03  2.62871026376E+03  0.00000000000E+00  0.00000000000E+00  1.
       24    2    1    2    0    0  2.42363640501E+03  4.58248087624E+02  3.19461480192E+03  4.03684535939E+03  8.09443603550E+01  0.00000000000E+00  1.
       25    2    1    2    0    0 -2.42363640501E+03 -4.58248087624E+02 -1.51683991278E+03  2.89835005728E+03  1.25000000000E+02  0.00000000000E+00  1.
      -11    1    3    3    0    0  1.05406791511E+03  1.61299187405E+02  1.35655143558E+03  1.72548787156E+03  5.11906398620E-04  0.00000000000E+00  1.
       12    1    3    3    0    0  1.36956848990E+03  2.96948900218E+02  1.83806336634E+03  2.31135748783E+03  5.33120149970E-05  0.00000000000E+00  1.
       23    2    4    4    0    0 -1.47186729398E+03 -2.89943632638E+02 -9.45704479727E+02  1.77568068780E+03  9.06879311493E+01  0.00000000000E+00  1.
       22    1    4    4    0    0 -9.51769111034E+02 -1.68304454986E+02 -5.71135433053E+02  1.12266936948E+03  1.19209289551E-05  0.00000000000E+00  1.
      -16    1    7    7    0    0 -3.42793279017E+02 -3.54791292310E+01 -1.91815383250E+02  3.94409865497E+02  3.65002414999E-06  0.00000000000E+00  1.
       16    1    7    7    0    0 -1.12907401496E+03 -2.54464503407E+02 -7.53889096478E+02  1.38127082230E+03  1.46000966000E-05  0.00000000000E+00  1.
</event>
<event>
10  50   1.0000000E+00   1.2500000E+02   7.8125000E-03   1.2380861E-01
       -2   -1    0    0    0  503  0.00000000000E+00  0.00000000000E+00  2.09721005677E+03  2.09721005677E+03  0.00000000000E+00  0.00000000000E+00  1.
        1   -1    0    0  503    0  0.00000000000E+00  0.00000000000E+00 -4.79861181955E+03  4.79861181955E+03  0.00000000000E+00  0.00000000000E+00  1.
      -24    2    1    2    0    0 -8.96521398563E+01  2.03752647014E+03 -3.98884762206E+03  4.48072488794E+03  8.02405550763E+01  0.00000000000E+00  1.
       25    2    1    2    0    0  8.96521398563E+01 -2.03752647014E+03  1.28744585928E+03  2.41509698838E+03  1.25000000000E+02  0.00000000000E+00  1.
       -2    1    3    3    0  502 -6.11068094554E+00  4.88635197443E+02 -8.89682601078E+02  1.01505508583E+03  2.06476546236E-05  0.00000000000E+00  1.
        1    1    3    3  502    0 -8.35414589108E+01  1.54889127270E+03 -3.09916502098E+03  3.46566980211E+03  4.76837158203E-05  0.00000000000E+00  1.
       23    2    4    4    0    0  6.03878533326E+01 -1.32872860430E+03  8.72950986414E+02  1.59347857773E+03  8.92421217328E+01  0.00000000000E+00  1.
       22    1    4    4    0    0  2.92642865237E+01 -7.08797865841E+02  4.14494872866E+02  8.21618410650E+02  1.33280037493E-05  0.00000000000E+00  1.
       -5    1    7    7    0  803 -2.09621717790E+01 -4.57638961008E+02  2.93199882785E+02  5.43931581215E+02  4.75000000001E+00  0.00000000000E+00  1.
        5    1    7    7  803    0  8.13500251116E+01 -8.71089643291E+02  5.79751103629E+02  1.04954699651E+03  4.74999999996E+00  0.00000000000E+00  1.
</event>
<event>
10  50   1.0000000E+00   1.2500000E+02   7.8125000E-03   1.2380861E-01
       -2   -1    0    0    0  503  0.00000000000E+00  0.00000000000E+00  1.00886726968E+03  1.00886726968E+03  0.00000000000E+00  0.00000000000E+00  1.
        1   -1    0    0  503    0  0.00000000000E+00  0.00000000000E+00 -3.43973069249E+03  3.43973069249E+03  0.00000000000E+00  0.00000000000E+00  1.
      -24    2    1    2    0    0  1.49813930865E+01  1.81628292256E+03 -7.36930099886E+02  1.96180420325E+03  8.06328895725E+01  0.00000000000E+00  1.
       25    2    1    2    0    0 -1.49813930865E+01 -1.81628292256E+03 -1.69393332292E+03  2.48679375892E+03  1.25000000000E+02  0.00000000000E+00  1.
      -12    1    3    3    0    0  2.17065413563E+00  1.75526241155E+03 -7.20002354034E+02  1.89719641444E+03  2.38418579102E-05  0.00000000000E+00  1.
       11    1    3    3    0    0  1.28107389509E+01  6.10205110071E+01 -1.69277458513E+01  6.46077888176E+01  5.10996116204E-04  0.00000000000E+00  1.
       23    2    4    4    0    0  3.99070157927E+00 -8.24806873098E+02 -7.34618907906E+02  1.10705869599E+03  7.47777567121E+01  0.00000000000E+00  1.
       22    1    4    4    0    0 -1.89720946658E+01 -9.91476049462E+02 -9.59314415014E+02  1.37973506293E+03  3.15398134120E-05  0.00000000000E+00  1.
       -4    1    7    7    0  803  1.47107935980E+01 -3.80294602187E+02 -3.85732353883E+02  5.41877722699E+02  1.27499999997E+00  0.00000000000E+00  1.
        4    1    7    7  803    0 -1.07200920188E+01 -4.44512270911E+02 -3.48886554023E+02  5.65180973287E+02  1.27499999999E+00  0.00000000000E+00  1.
</event>
<event>
10  50   1.0000000E+00   1.2500000E+02   7.8125000E-03   1.2380861E-01
       -2   -1    0    0    0  503  0.00000000000E+00  0.00000000000E+00  1.16753252619E+03  1.16753252619E+03  0.00000000000E+00  0.00000000000E+00  1.
        1   -1    0    0  503    0  0.00000000000E+00  0.00000000000E+00 -2.64591715300E+03  2.64591715300E+03  0.00000000000E+00  0.00000000000E+00  1.
      -24    2    1    2    0    0 -1.05041879875E+03  1.03979212810E+03 -1.76427294370E+03  2.30285229665E+03  7.69568572087E+01  0.00000000000E+00  1.
       25    2    1    2    0    0  1.05041879875E+03 -1.03979212810E+03  2.85888316894E+02  1.51059738254E+03  1.25000000000E+02  0.00000000000E+00  1.
       -4    1    3    3    0  502 -4.19408630996E+02  3.99941797124E+02 -6.36201508582E+02  8.60587605062E+02  1.27500000003E+00  0.00000000000E+00  1.
        3    1    3    3  502    0 -6.31010167751E+02  6.39850330975E+02 -1.12807143512E+03  1.44226469158E+03  2.92001931999E-05  0.00000000000E+00  1.
       23    2    4    4    0    0  6.00644735122E+02 -5.70001562964E+02  1.66451444840E+02  8.49337184275E+02  8.93962498760E+01  0.00000000000E+00  1.
       22    1    4    4    0    0  4.49774063628E+02 -4.69790565136E+02  1.19436872054E+02  6.61260198265E+02  3.33200093731E-06  0.00000000000E+00  1.
      -16    1    7    7    0    0  5.87808271713E+02 -5.41968510969E+02  1.47140774790E+02  8.12956849274E+02  1.90827972812E-05  0.00000000000E+00  1.
       16    1    7    7    0    0  1.28364634092E+01 -2.80330519952E+01  1.93106700496E+01  3.63803350010E+01  1.44279872857E-06  0.00000000000E+00  1.
</event>
<event>
10  50   1.0000000E+00   1.2500000E+02   7.8125000E-03   1.2380861E-01
       -1   -1    0    0    0  503  0.00000000000E+00  0.00000000000E+00  3.49457785170E+03  3.49457785170E+03  0.00000000000E+00  0.00000000000E+00  1.
        2   -1    0    0  503    0  0.00000000000E+00  0.00000000000E+00 -4.81730612634E+03  4.81730612634E+03  0.00000000000E+00  0.00000000000E+00  1.
       24    2    1    2    0    0  9.93410348634E+02 -3.43141245100E+03  1.38016656468E+03  3.83050907271E+03  8.05262700000E+01  0.00000000000E+00  1.
       25    2    1    2    0    0 -9.93410348634E+02  3.43141245100E+03 -2.70289483932E+03  4.48137490533E+03  1.25000000000E+02  0.00000000000E+00  1.
      -11    1    3    3    0    0  7.02726327725E+02 -2.55013077338E+03  1.03133519820E+03  2.83912725042E+03  5.11072900539E-04  0.00000000000E+00  1.
       12    1    3    3    0    0  2.90684020909E+02 -8.81281677622E+02  3.48831366477E+02  9.91381822287E+02  1.33280037493E-05  0.00000000000E+00  1.
       23    2    4    4    0    0 -5.76447007358E+02  1.95905609312E+03 -1.54095899042E+03  2.55997265970E+03  9.33460227675E+01  0.00000000000E+00  1.
       22    1    4    4    0    0 -4.16963341276E+02  1.47235635788E+03 -1.16193584890E+03  1.92140224563E+03  1.68587394044E-05  0.00000000000E+00  1.
       -5    1    7    7    0  803 -2.19794544438E+02  9.00799650739E+02 -7.18921940564E+02  1.17329492101E+03  4.75000000002E+00  0.00000000000E+00  1.
        5    1    7    7  803    0 -3.56652462920E+02  1.05825644239E+03 -8.22037049856E+02  1.38667773870E+03  4.75000000002E+00  0.00000000000E+00  1.
</event>
<event>
10  50   1.0000000E+00   1.2500000E+02   7.8125000E-03   1.2380861E-01
       -2   -1    0    0    0  503  0.00000000000E+00  0.00000000000E+00  5.13191800245E+03  5.13191800245E+03  0.00000000000E+00  0.00000000000E+00  1.
        1   -1    0    0  503    0  0.00000000000E+00  0.00000000000E+00 -3.55768276466E+03  3.55768276466E+03  0.00000000000E+00  0.00000000000E+00  1.
      -24    2    1    2    0    0  4.23091427398E+03 -3.75677259662E+02  1.24731122026E+03  4.42764425508E+03  8.04945474146E+01  0.00000000000E+00  1.
       25    2    1    2    0    0 -4.23091427398E+03  3.75677259662E+02  3.26924017529E+02  4.26195651203E+03  1.25000000000E+02  0.00000000000E+00  1.
      -14    1    3    3    0    0  3.31961752981E+03 -3.16090052880E+02  1.00548905033E+03  3.48292717353E+03  1.13091861969E-04  0.00000000000E+00  1.
       13    1    3    3    0    0  9.11296744163E+02 -5.95872067818E+01  2.41822169930E+02  9.44717081548E+02  1.05659997764E-01  0.00000000000E+00  1.
       23    2    4    4    0    0 -3.00087091643E+03  2.76323760606E+02  2.05387806041E+02  3.02193682270E+03  9.13068001760E+01  0.00000000000E+00  1.
       22    1    4    4    0    0 -1.23004335755E+03  9.93534990555E+01  1.21536211488E+02  1.24001968933E+03  1.40577273548E-05  0.00000000000E+00  1.
       -3    1    7    7    0  803 -9.82772841595E+02  8.46018341380E+01  1.09800882221E+02  9.92499955795E+02  1.46759417680E-05  0.00000000000E+00  1.
        3    1    7    7  803    0 -2.01809807483E+03  1.91721926469E+02  9.55869238197E+01  2.02943686690E+03  2.86629558529E-05  0.00000000000E+00  1.
</event>
<event>
10  50   1.0000000E+00   1.2500000E+02   7.8125000E-03   1.2380861E-01
       -2   -1    0    0    0  503  0.00000000000E+00  0.00000000000E+00  5.29160616444E+03  5.29160616444E+03  0.00000000000E+00  0.00000000000E+00  1.
        1   -1    0    0  503    0  0.00000000000E+00  0.00000000000E+00 -1.43098358329E+03  1.43098358329E+03  0.00000000000E+00  0.00000000000E+00  1.
      -24    2    1    2    0    0 -1.49909905890E+02 -2.37902736466E+03  3.60401289298E+03  4.32181534898E+03  8.32754241564E+01  0.00000000000E+00  1.
       25    2    1    2    0    0  1.49909905890E+02  2.37902736466E+03  2.56609688169E+02  2.40077439876E+03  1.25000000000E+02  0.00000000000E+00  1.
       -2    1    3    3    0  502 -3.57893648307E+01 -3.54312119947E+02  5.87552882271E+02  6.87049013129E+02  8.42936970218E-06  0.00000000000E+00  1.
        1    1    3    3  502    0 -1.14120541059E+02 -2.02471524471E+03  3.01646001071E+03  3.63476633585E+03  0.00000000000E+00  0.00000000000E+00  1.
       23    2    4    4    0    0  9.67616594372E+01  1.32514848608E+03  1.45167428527E+02  1.33968778398E+03  9.11506849096E+01  0.00000000000E+00  1.
       22    1    4    4    0    0  5.31482464528E+01  1.05387887858E+03  1.11442259642E+02  1.06108661478E+03  1.22878123093E-05  0.00000000000E+00  1.
      -13    1    7    7    0    0  6.37569158398E+01  1.18469908605E+03  1.46363603865E+02  1.19540753909E+03  1.05660002282E-01  0.00000000000E+00  1.
       13    1    7    7    0    0  3.30047435974E+01  1.40449400025E+02 -1.19617533838E+00  1.44280244894E+02  1.05659999816E-01  0.00000000000E+00  1.
</event>
<event>
10  50   1.0000000E+00   1.2500000E+02   7.8125000E-03   1.2380861E-01
       -2   -1    0    0    0  503  0.00000000000E+00  0.00000000000E+00  2.11037220619E+03  2.11037220619E+03  0.00000000000E+00  0.00000000000E+00  1.
        1   -1    0    0  503    0  0.00000000000E+00  0.00000000000E+00 -2.19321648035E+03  2.19321648035E+03  0.00000000000E+00  0.00000000000E+00  1.
      -24    2    1    2    0    0  8.31112408562E+02 -1.43473885425E+03  1.32570292822E+03  2.12440222436E+03  7.98319572419E+01  0.00000000000E+00  1.
       25    2    1    2    0    0 -8.31112408562E+02  1.43473885425E+03 -1.40854720238E+03  2.17918646217E+03  1.25000000000E+02  0.00000000000E+00  1.
      -12    1    3    3    0    0  4.88943290042E+02 -9.19135915027E+02  8.20478898217E+02  1.32554215082E+03  2.38418579102E-05  0.00000000000E+00  1.
       11    1    3    3    0    0  3.42169118521E+02 -5.15602939227E+02  5.05224030007E+02  7.98860073546E+02  5.11211911258E-04  0.00000000000E+00  1.
       23    2    4    4    0    0 -7.91007641001E+02  1.34191841681E+03 -1.30071807732E+03  2.03136513015E+03  9.02144658179E+01  0.00000000000E+00  1.
       22    1    4    4    0    0 -4.01047675611E+01  9.28204374362E+01 -1.07829125062E+02  1.47821332015E+02  2.58095682795E-06  0.00000000000E+00  1.
       -2    1    7    7    0  803 -6.93204896371E+02  1.11532840636E+03 -1.10973154967E+03  1.71930061209E+03  4.12953092472E-05  0.00000000000E+00  1.
        2    1    7    7  803    0 -9.78027446297E+01  2.26590010455E+02 -1.90986527645E+02  3.12064518068E+02  2.10734242554E-06  0.00000000000E+00  1.
</event>
<event>
10  50   1.0000000E+00   1.2500000E+02   7.8125000E-03   1.2380861E-01
       -2   -1    0    0    0  503  0.00000000000E+00  0.00000000000E+00  3.50896987096E+03  3.50896987096E+03  0.00000000000E+00  0.00000000000E+00  1.
        1   -1    0    0  503    0  0.00000000000E+00  0.00000000000E+00 -3.21060750757E+03  3.21060750757E+03  0.00000000000E+00  0.00000000000E+00  1.
      -24    2    1    2    0    0 -1.01903636676E+03 -2.51797487746E+03  2.11992986015E+03  3.44660231819E+03  7.95759228038E+01  0.00000000000E+00  1.
       25    2    1    2    0    0  1.01903636676E+03  2.51797487746E+03 -1.82156749677E+03  3.27297506034E+03  1.25000000000E+02  0.00000000000E+00  1.
       -2    1    3    3    0  502 -8.41238284227E+02 -2.11118641014E+03  1.73901618200E+03  2.86163715213E+03  3.37174788087E-05  0.00000000000E+00  1.
        1    1    3    3  502    0 -1.77798082536E+02 -4.06788467320E+02  3.80913678155E+02  5.84965166060E+02  7.30004829998E-06  0.00000000000E+00  1.
       23    2    4    4    0    0  6.22824465329E+02  1.54806395625E+03 -1.09374053024E+03  1.99726225601E+03  9.15196402318E+01  0.00000000000E+00  1.
       22    1    4    4    0    0  3.96211901431E+02  9.69910921210E+02 -7.27826966528E+02  1.27571280433E+03  1.19209289551E-05  0.00000000000E+00  1.
      -14    1    7    7    0    0  5.35750640855E+02  1.23983544347E+03 -8.97178629017E+02  1.62146543855E+03  0.00000000000E+00  0.00000000000E+00  1.
       14    1    7    7    0    0  8.70738244743E+01  3.08228512781E+02 -1.96561901226E+02  3.75796817460E+02  3.65002414999E-06  0.00000000000E+00  1.
</event>
<event>
10  50   1.0000000E+00   1.2500000E+02   7.8125000E-03   1.2380861E-01
       -2   -1    0    0    0  503  0.00000000000E+00  0.00000000000E+00  1.82065584913E+03  1.82065584913E+03  0.00000000000E+00  0.00000000000E+00  1.
        1   -1    0    0  503    0  0.00000000000E+00  0.00000000000E+00 -3.10900268722E+03  3.10900268722E+03  0.00000000000E+00  0.00000000000E+00  1.
      -24    2    1    2    0    0 -1.74768384259E+03  1.21340004362E+03 -1.74155542740E+03  2.75072267108E+03  8.19843093933E+01  0.00000000000E+00  1.
       25    2    1    2    0    0  1.74768384259E+03 -1.21340004362E+03  4.53208589314E+02  2.17893586526E+03  1.25000000000E+02  0.00000000000E+00  1.
       -2    1    3    3    0  502 -1.25887042741E+03  8.72013658424E+02 -1.30048019152E+03  2.00908220389E+03  2.38418579102E-05  0.00000000000E+00  1.
        1    1    3    3  502    0 -4.88813415181E+02  3.41386385192E+02 -4.41075235888E+02  7.41640467187E+02  5.96046447754E-06  0.00000000000E+00  1.
       23    2    4    4    0    0  1.27052073850E+03 -8.76639126881E+02  3.05330686166E+02  1.57647390199E+03  9.65610169989E+01  0.00000000000E+00  1.
       22    1    4    4    0    0  4.77163104094E+02 -3.36760916739E+02  1.47877903148E+02  6.02461963273E+02  7.30004829998E-06  0.00000000000E+00  1.
       -3    1    7    7    0  803  3.30445996768E+02 -2.74709986295E+02  1.05113410205E+02  4.42390056800E+02  7.30004829998E-06  0.00000000000E+00  1.
        3    1    7    7  803    0  9.40074741728E+02 -6.01929140586E+02  2.00217275961E+02  1.13408384519E+03  3.11145380405E-05  0.00000000000E+00  1.
</event>
<event>
10  50   1.0000000E+00   1.2500000E+02   7.8125000E-03   1.2380861E-01
       -1   -1    0    0    0  503  0.00000000000E+00  0.00000000000E+00  2.45181792086E+03  2.45181792086E+03  0.00000000000E+00  0.00000000000E+00  1.
        2   -1    0    0  503    0  0.00000000000E+00  0.00000000000E+00 -2.56372062654E+03  2.56372062654E+03  0.00000000000E+00  0.00000000000E+00  1.
       24    2    1    2    0    0 -1.76578208140E+03  1.32517643529E+03 -1.23970896658E+03  2.53327125603E+03  8.06597244516E+01  0.00000000000E+00  1.
       25    2    1    2    0    0  1.76578208140E+03 -1.32517643529E+03  1.12780626090E+03  2.48226729136E+03  1.25000000000E+02  0.00000000000E+00  1.
      -15    1    3    3    0    0 -1.02107745124E+03  7.82468592588E+02 -7.65297566568E+02  1.49684327243E+03  1.77680000018E+00  0.00000000000E+00  1.
       16    1    3    3    0    0 -7.44704630161E+02  5.42707842702E+02 -4.74411400014E+02  1.03642798359E+03  5.96046447754E-06  0.00000000000E+00  1.
       23    2    4    4    0    0  9.46767041674E+02 -7.30184868335E+02  5.93114351281E+02  1.33741095179E+03  8.57067507426E+01  0.00000000000E+00  1.
       22    1    4    4    0    0  8.19015039726E+02 -5.94991566955E+02  5.34691909619E+02  1.14485633957E+03  2.38418579102E-05  0.00000000000E+00  1.
      -16    1    7    7    0    0  7.07950137285E+02 -5.49871593669E+02  4.85235380921E+02  1.01931621262E+03  2.06476546236E-05  0.00000000000E+00  1.
       16    1    7    7    0    0  2.38816904389E+02 -1.80313274666E+02  1.07878970359E+02  3.18094739172E+02  5.16191365590E-06  0.00000000000E+00  1.
</event>
<event>
10  50   1.0000000E+00   1.2500000E+02   7.8125000E-03   1.2380861E-01
       -2   -1    0    0    0  503  0.00000000000E+00  0.00000000000E+00  4.07333638415E+03  4.07333638415E+03  0.00000000000E+00  0.00000000000E+00  1.
        1   -1    0    0  503    0  0.00000000000E+00  0.00000000000E+00 -2.66286469429E+03  2.66286469429E+03  0.00000000000E+00  0.00000000000E+00  1.
      -24    2    1    2    0    0  2.34785176629E+03 -4.67014974731E+00 -1.65444084932E+03  2.87333380146E+03  8.02675770049E+01  0.00000000000E+00  1.
       25    2    1    2    0    0 -2.34785176629E+03  4.67014974731E+00  3.06491253918E+03  3.86286727698E+03  1.25000000000E+02  0.00000000000E+00  1.
      -12    1    3    3    0    0  1.53286332818E+03 -2.78424737073E+00 -1.03311581726E+03  1.84851454600E+03  3.15398134120E-05  0.00000000000E+00  1.
       11    1    3    3    0    0  8.14988438111E+02 -1.88590237658E+00 -6.21325032067E+02  1.02481925546E+03  5.12045183061E-04  0.00000000000E+00  1.
       23    2    4    4    0    0 -1.49925179931E+03  2.20713126037E+01  1.97463346322E+03  2.48115342530E+03  9.32840033076E+01  0.00000000000E+00  1.
       22    1    4    4    0    0 -8.48599966983E+02 -1.74011628564E+01  1.09027907596E+03  1.38171385168E+03  0.00000000000E+00  0.00000000000E+00  1.
       -2    1    7    7    0  803 -1.31412110815E+03  4.84691418614E+01  1.74474276943E+03  2.18480911662E+03  2.38418579102E-05  0.00000000000E+00  1.
        2    1    7    7  803    0 -1.85130691153E+02 -2.63978292577E+01  2.29890693787E+02  2.96344308678E+02  5.96046447754E-06  0.00000000000E+00  1.
</event>
<event>
10  50   1.0000000E+00   1.2500000E+02   7.8125000E-03   1.2380861E-01
        2   -1    0    0  503    0  0.00000000000E+00  0.00000000000E+00  3.10397653706E+03  3.10397653706E+03  0.00000000000E+00  0.00000000000E+00  1.
       -1   -1    0    0    0  503  0.00000000000E+00  0.00000000000E+00 -9.14645916893E+02  9.14645916893E+02  0.00000000000E+00  0.00000000000E+00  1.
       24    2    1    2    0    0 -1.43778346693E+02  3.62072357919E+02 -8.56791235375E+02  9.45146902698E+02  8.62719034066E+01  0.00000000000E+00  1.
       25    2    1    2    0    0  1.43778346693E+02 -3.62072357919E+02  3.04612185554E+03  3.07347555125E+03  1.25000000000E+02  0.00000000000E+00  1.
       -1    1    3    3    0  502 -5.80339767510E+01  2.56238683402E+02 -5.55469895060E+02  6.14469697908E+02  1.33280037493E-05  0.00000000000E+00  1.
        2    1    3    3  502    0 -8.57443699421E+01  1.05833674517E+02 -3.01321340315E+02  3.30677204790E+02  1.11510079705E-05  0.00000000000E+00  1.
       23    2    4    4    0    0  1.60528152710E+02 -2.72948308309E+02  2.30185248626E+03  2.32370188789E+03  2.82051140525E+01  0.00000000000E+00  1.
       22    1    4    4    0    0 -1.67498060174E+01 -8.91240496101E+01  7.44269369281E+02  7.49773663362E+02  1.46000966000E-05  0.00000000000E+00  1.
      -15    1    7    7    0    0  1.23050844249E+02 -1.90669746350E+02  1.58294334892E+03  1.59912765761E+03  1.77680000002E+00  0.00000000000E+00  1.
       15    1    7    7    0    0  3.74773084614E+01 -8.22785619585E+01  7.18909137343E+02  7.24574230277E+02  1.77679999998E+00  0.00000000000E+00  1.
</event>
<event>
10  50   1.0000000E+00   1.2500000E+02   7.8125000E-03   1.2380861E-01
       -1   -1    0    0    0  503  0.00000000000E+00  0.00000000000E+00  4.88374693101E+03  4.88374693101E+03  0.00000000000E+00  0.00000000000E+00  1.
        2   -1    0    0  503    0  0.00000000000E+00  0.00000000000E+00 -1.70730256709E+03  1.70730256709E+03  0.00000000000E+00  0.00000000000E+00  1.
       24    2    1    2    0    0  3.12740636810E+01  1.44286172342E+03  4.43967826382E+03  4.66901596410E+03  7.83515592732E+01  0.00000000000E+00  1.
       25    2    1    2    0    0 -3.12740636810E+01 -1.44286172342E+03 -1.26323389990E+03  1.92203353400E+03  1.25000000000E+02  0.00000000000E+00  1.
      -13    1    3    3    0    0  5.76984284263E+01  9.71083193166E+02  2.97922207576E+03  3.13402231399E+03  1.05660023865E-01  0.00000000000E+00  1.
       14    1    3    3    0    0 -2.64243647452E+01  4.71778530252E+02  1.46045618805E+03  1.53499365011E+03  1.68587394044E-05  0.00000000000E+00  1.
       23    2    4    4    0    0 -7.06510246907E+00 -3.62731884628E+01 -1.14309526628E+01  3.89275892407E+01  4.36241345562E+00  0.00000000000E+00  1.
       22    1    4    4    0    0 -2.42089612119E+01 -1.40658853496E+03 -1.25180294724E+03  1.88310594476E+03  1.68587394044E-05  0.00000000000E+00  1.
       -2    1    7    7    0  803 -5.79736242946E+00 -3.47136082424E+01 -1.06380317608E+01  3.67669923721E+01  1.75227296746E-06  0.00000000000E+00  1.
        2    1    7    7  803    0 -1.26774003961E+00 -1.55958022043E+00 -7.92920901946E-01  2.16059686863E+00  3.19665535766E-07  0.00000000000E+00  1.
</event>
<event>
10  50   1.0000000E+00   1.2500000E+02   7.8125000E-03   1.2380861E-01
       -2   -1    0    0    0  503  0.00000000000E+00  0.00000000000E+00  1.97828934685E+03  1.97828934685E+03  0.00000000000E+00  0.00000000000E+00  1.
        1   -1    0    0  503    0  0.00000000000E+00  0.00000000000E+00 -3.21961008916E+03  3.21961008916E+03  0.00000000000E+00  0.00000000000E+00  1.
      -24    2    1    2    0    0 -9.36574339429E+02 -6.01722031602E+02 -2.95035318059E+03  3.15445680855E+03  8.22980569126E+01  0.00000000000E+00  1.
       25    2    1    2    0    0  9.36574339429E+02  6.01722031602E+02  1.70903243829E+03  2.04344262746E+03  1.25000000000E+02  0.00000000000E+00  1.
       -4    1    3    3    0  502 -5.90434976171E+01 -2.60503326956E+01 -1.29517841683E+02  1.44710923512E+02  1.27499999999E+00  0.00000000000E+00  1.
        3    1    3    3  502    0 -8.77530841812E+02 -5.75671698907E+02 -2.82083533891E+03  3.00974588504E+03  0.00000000000E+00  0.00000000000E+00  1.
       23    2    4    4    0    0  6.76298546842E+02  4.61519199857E+02  1.29121745824E+03  1.53161289035E+03  9.06411888954E+01  0.00000000000E+00  1.
       22    1    4    4    0    0  2.60275792587E+02  1.40202831745E+02  4.17814980046E+02  5.11829737107E+02  0.00000000000E+00  0.00000000000E+00  1.
       -5    1    7    7    0  803  5.70526569017E+01  6.90206087276E+01  1.64458346968E+02  1.87317806084E+02  4.75000000000E+00  0.00000000000E+00  1.
        5    1    7    7  803    0  6.19245889940E+02  3.92498591129E+02  1.12675911128E+03  1.34429508427E+03  4.74999999996E+00  0.00000000000E+00  1.
</event>
<event>
10  50   1.0000000E+00   1.2500000E+02   7.8125000E-03   1.2380861E-01
        1   -1    0    0  503    0  0.00000000000E+00  0.00000000000E+00  1.87214046832E+03  1.87214046832E+03  0.00000000000E+00  0.00000000000E+00  1.
       -2   -1    0    0    0  503  0.00000000000E+00  0.00000000000E+00 -6.86611776782E+02  6.86611776782E+02  0.00000000000E+00  0.00000000000E+00  1.
      -24    2    1    2    0    0  3.60296108153E+02 -8.90466179756E+02  1.25805714678E+03  1.58734672749E+03  1.19241544199E+02  0.00000000000E+00  1.
       25    2    1    2    0    0 -3.60296108153E+02  8.90466179756E+02 -7.25284552382E+01  9.71405517618E+02  1.25000000000E+02  0.00000000000E+00  1.
      -14    1    3    3    0    0  6.33430907557E+01 -1.69915004127E+02  1.66908053858E+02  2.46458422896E+02  7.88495335300E-06  0.00000000000E+00  1.
       13    1    3    3    0    0  2.96953017397E+02 -7.20551175629E+02  1.09114909292E+03  1.34088830459E+03  1.05659996965E-01  0.00000000000E+00  1.
       23    2    4    4    0    0 -3.39250703540E+02  8.83462516050E+02 -6.97086966841E+01  9.49046819111E+02  1.52808819464E+01  0.00000000000E+00  1.
       22    1    4    4    0    0 -2.10454046132E+01  7.00366370604E+00 -2.81975855405E+00  2.23586985073E+01  1.31544162443E-06  0.00000000000E+00  1.
       -3    1    7    7    0  803 -2.72877548803E+02  6.95008784608E+02 -5.22311886129E+01  7.48483442961E+02  9.39482466349E-06  0.00000000000E+00  1.
        3    1    7    7  803    0 -6.63731547369E+01  1.88453731442E+02 -1.74775080712E+01  2.00563376150E+02  1.64504365368E-06  0.00000000000E+00  1.
</event>
<event>
10  50   1.0000000E+00   1.2500000E+02   7.8125000E-03   1.2380861E-01
       -1   -1    0    0    0  503  0.00000000000E+00  0.00000000000E+00  1.26912577680E+03  1.26912577680E+03  0.00000000000E+00  0.00000000000E+00  1.
        2   -1    0    0  503    0  0.00000000000E+00  0.00000000000E+00 -4.99275754323E+03  4.99275754323E+03  0.00000000000E+00  0.00000000000E+00  1.
       24    2    1    2    0    0  5.38829240413E+02  3.72233720584E+02 -4.88140399805E+03  4.92586070294E+03  8.42839222141E+01  0.00000000000E+00  1.
       25    2    1    2    0    0 -5.38829240413E+02 -3.72233720584E+02  1.15777223162E+03  1.33602261709E+03  1.25000000000E+02  0.00000000000E+00  1.
       -1    1    3    3    0  502  3.55682420115E+01  1.16894960317E+01 -1.78503248366E+02  1.82387373012E+02  3.65002414999E-06  0.00000000000E+00  1.
        2    1    3    3  502    0  5.03260998402E+02  3.60544224553E+02 -4.70290074968E+03  4.74347332993E+03  6.74349576174E-05  0.00000000000E+00  1.
       23    2    4    4    0    0 -4.92573264788E+02 -3.21522386478E+02  9.93656225647E+02  1.15813130728E+03  8.89402268652E+01  0.00000000000E+00  1.
       22    1    4    4    0    0 -4.62559756253E+01 -5.07113341056E+01  1.64116005973E+02  1.77891309806E+02  2.10734242554E-06  0.00000000000E+00  1.
       -2    1    7    7    0  803 -4.66940141123E+02 -2.93617175456E+02  9.61295128558E+02  1.10830161297E+03  2.38418579102E-05  0.00000000000E+00  1.
        2    1    7    7  803    0 -2.56331236650E+01 -2.79052110221E+01  3.23610970887E+01  4.98296943177E+01  2.58095682795E-06  0.00000000000E+00  1.
</event>
<event>
10  50   1.0000000E+00   1.2500000E+02   7.8125000E-03   1.2380861E-01
       -2   -1    0    0    0  503  0.00000000000E+00  0.00000000000E+00  3.90037968681E+03  3.90037968681E+03  0.00000000000E+00  0.00000000000E+00  1.
        1   -1    0    0  503    0  0.00000000000E+00  0.00000000000E+00 -1.23065116952E+03  1.23065116952E+03  0.00000000000E+00  0.00000000000E+00  1.
      -24    2    1    2    0    0 -2.49901376902E+02 -1.03597574236E+03  3.57240277187E+03  3.72883891268E+03  8.05086041343E+01  0.00000000000E+00  1.
       25    2    1    2    0    0  2.49901376902E+02  1.03597574236E+03 -9.02674254586E+02  1.40219194365E+03  1.25000000000E+02  0.00000000000E+00  1.
       -4    1    3    3    0  502 -1.33408646358E+02 -7.11133276469E+02  2.39620194498E+03  2.50305688921E+03  1.27499999914E+00  0.00000000000E+00  1.
        3    1    3    3  502    0 -1.16492730544E+02 -3.24842465889E+02  1.17620082688E+03  1.22578202348E+03  0.00000000000E+00  0.00000000000E+00  1.
       23    2    4    4    0    0  4.14502224840E+01  2.77833978594E+02 -2.88154985479E+02  4.04261710694E+02  3.85278402101E+01  0.00000000000E+00  1.
       22    1    4    4    0    0  2.08451154418E+02  7.58141763766E+02 -6.14519269107E+02  9.97930232956E+02  1.19209289551E-05  0.00000000000E+00  1.
      -11    1    7    7    0    0  1.94912943993E+01  3.83294925194E+01 -4.16503313208E+01  5.98649367622E+01  5.11001479941E-04  0.00000000000E+00  1.
       11    1    7    7    0    0  2.19589280848E+01  2.39504486075E+02 -2.46504654158E+02  3.44396773931E+02  5.11003380998E-04  0.00000000000E+00  1.
</event>
<event>
10  50   1.0000000E+00   1.2500000E+02   7.8125000E-03   1.2380861E-01
       -1   -1    0    0    0  503  0.00000000000E+00  0.00000000000E+00  1.87853929984E+03  1.87853929984E+03  0.00000000000E+00  0.00000000000E+00  1.
        2   -1    0    0  503    0  0.00000000000E+00  0.00000000000E+00 -1.52447613984E+03  1.52447613984E+03  0.00000000000E+00  0.00000000000E+00  1.
       24    2    1    2    0    0 -1.29201131005E+03 -9.89939004297E+02  6.30932716912E+02  1.74725150450E+03  7.44262667374E+01  0.00000000000E+00  1.
       25    2    1    2    0    0  1.29201131005E+03  9.89939004297E+02 -2.76869556905E+02  1.65576393518E+03  1.25000000000E+02  0.00000000000E+00  1.
       -3    1    3    3    0  502 -1.02801569019E+03 -7.72384592238E+02  5.27818679740E+02  1.38995927145E+03  3.09714819354E-05  0.00000000000E+00  1.
        4    1    3    3  502    0 -2.63995619853E+02 -2.17554412059E+02  1.03114037171E+02  3.57292233046E+02  1.27499999999E+00  0.00000000000E+00  1.
       23    2    4    4    0    0  1.09159261694E+03  8.64102657355E+02 -2.19163043656E+02  1.41218134050E+03  8.93076421522E+01  0.00000000000E+00  1.
       22    1    4    4    0    0  2.00418693106E+02  1.25836346942E+02 -5.77065132493E+01  2.43582594676E+02  2.58095682795E-06  0.00000000000E+00  1.
       -2    1    7    7    0  803  1.50028316412E+02  8.17864319973E+01 -2.33112038232E+01  1.72455583870E+02  4.13993574137E-06  0.00000000000E+00  1.
        2    1    7    7  803    0  9.41564300532E+02  7.82316225358E+02 -1.95851839832E+02  1.23972575663E+03  7.59813117026E-06  0.00000000000E+00  1.
</event>
<event>
10  50   1.0000000E+00   1.2500000E+02   7.8125000E-03   1.2380861E-01
       -2   -1    0    0    0  503  0.00000000000E+00  0.00000000000E+00  3.55650768746E+03  3.55650768746E+03  0.00000000000E+00  0.00000000000E+00  1.
        1   -1    0    0  503    0  0.00000000000E+00  0.00000000000E+00 -4.70510743028E+03  4.70510743028E+03  0.00000000000E+00  0.00000000000E+00  1.
      -24    2    1    2    0    0  2.77947967388E+03 -8.01436308386E+01  2.45364889557E+03  3.70928049561E+03  8.02410947481E+01  0.00000000000E+00  1.
       25    2    1    2    0    0 -2.77947967388E+03  8.01436308386E+01 -3.60224863839E+03  4.55233462213E+03  1.25000000000E+02  0.00000000000E+00  1.
       -4    1    3    3    0  502  1.35484460557E+03 -4.30231272883E+01  1.14294047127E+03  1.77306780502E+03  1.27500000003E+00  0.00000000000E+00  1.
        3    1    3    3  502    0  1.42463506831E+03 -3.71205035503E+01  1.31070842430E+03  1.93621269058E+03  0.00000000000E+00  0.00000000000E+00  1.
       23    2    4    4    0    0 -1.85099427036E+03  2.95554541927E+01 -2.37652803587E+03  3.01381738024E+03  9.03126920901E+01  0.00000000000E+00  1.
       22    1    4    4    0    0 -9.28485403517E+02  5.05881766459E+01 -1.22572060252E+03  1.53851724189E+03  0.00000000000E+00  0.00000000000E+00  1.
       -3    1    7    7    0  803 -1.13785480453E+02  6.26838857294E+00 -1.83333089500E+02  2.15864424959E+02  4.71216091539E-06  0.00000000000E+00  1.
        3    1    7    7  803    0 -1.73720878991E+03  2.32870656198E+01 -2.19319494637E+03  2.79795295528E+03  3.37174788087E-05  0.00000000000E+00  1.
</event>
<event>
10  50   1.0000000E+00   1.2500000E+02   7.8125000E-03   1.2380861E-01
       -1   -1    0    0    0  503  0.00000000000E+00  0.00000000000E+00  1.58196809885E+03  1.58196809885E+03  0.00000000000E+00  0.00000000000E+00  1.
        2   -1    0    0  503    0  0.00000000000E+00  0.00000000000E+00 -4.04312029675E+03  4.04312029675E+03  0.00000000000E+00  0.00000000000E+00  1.
       24    2    1    2    0    0 -8.49673950055E+02  2.31532309883E+03 -6.18389547418E+02  2.54384415677E+03  7.79139795241E+01  0.00000000000E+00  1.
       25    2    1    2    0    0  8.49673950055E+02 -2.31532309883E+03 -1.84276265048E+03  3.08124423884E+03  1.25000000000E+02  0.00000000000E+00  1.
      -11    1    3    3    0    0 -1.19135708224E+02  3.27151050418E+02 -1.15487866165E+02  3.66822264858E+02  5.10920814258E-04  0.00000000000E+00  1.
       12    1    3    3    0    0 -7.30538241831E+02  1.98817204841E+03 -5.02901681253E+02  2.17702189191E+03  3.62560899871E-05  0.00000000000E+00  1.
       23    2    4    4    0    0  5.40728107715E+02 -1.46237259848E+03 -1.13763384348E+03  1.93225393253E+03  9.20543028073E+01  0.00000000000E+00  1.
       22    1    4    4    0    0  3.08945842340E+02 -8.52950500345E+02 -7.05128807003E+02  1.14899030631E+03  1.46000966000E-05  0.00000000000E+00  1.
       -1    1    7    7    0  803  2.04328345683E+02 -4.51131163520E+02 -3.30943399264E+02  5.95644972332E+02  1.68587394044E-05  0.00000000000E+00  1.
        1    1    7    7  803    0  3.36399762032E+02 -1.01124143496E+03 -8.06690444213E+02  1.33660896019E+03  2.38418579102E-05  0.00000000000E+00  1.
</event>
<event>
10  50   1.0000000E+00   1.2500000E+02   7.8125000E-03   1.2380861E-01
        1   -1    0    0  503    0  0.00000000000E+00  0.00000000000E+00  3.72471482559E+03  3.72471482559E+03  0.00000000000E+00  0.00000000000E+00  1.
       -2   -1    0    0    0  503  0.00000000000E+00  0.00000000000E+00 -4.47972946230E+03  4.47972946230E+03  0.00000000000E+00  0.00000000000E+00  1.
      -24    2    1    2    0    0 -7.68496994587E+02 -1.55374171597E+03 -4.09050790401E+03  4.44334853176E+03  7.99394226581E+01  0.00000000000E+00  1.
       25    2    1    2    0    0  7.68496994587E+02  1.55374171597E+03  3.33549326729E+03  3.76109575613E+03  1.25000000000E+02  0.00000000000E+00  1.
       -4    1    3    3    0  502 -3.50951622024E+02 -7.97976489985E+02 -2.07485579432E+03  2.25054698072E+03  1.27499999847E+00  0.00000000000E+00  1.
        3    1    3    3  502    0 -4.17545372563E+02 -7.55765225981E+02 -2.01565210969E+03  2.19280155104E+03  4.12953092472E-05  0.00000000000E+00  1.
       23    2    4    4    0    0  5.40265860819E+02  1.06293921875E+03  2.24301339208E+03  2.54187927846E+03  9.11822683371E+01  0.00000000000E+00  1.
       22    1    4    4    0    0  2.28231133768E+02  4.90802497218E+02  1.09247987521E+03  1.21921647767E+03  2.06476546236E-05  0.00000000000E+00  1.
       -2    1    7    7    0  803  5.37375568820E+02  1.03720735802E+03  2.21178114781E+03  2.50130914749E+03  3.37174788087E-05  0.00000000000E+00  1.
        2    1    7    7  803    0  2.89029199948E+00  2.57318607323E+01  3.12322442699E+01  4.05701309676E+01  2.38534966016E-06  0.00000000000E+00  1.
</event>
<event>
10  50   1.0000000E+00   1.2500000E+02   7.8125000E-03   1.2380861E-01
       -2   -1    0    0    0  503  0.00000000000E+00  0.00000000000E+00  3.36857527807E+03  3.36857527807E+03  0.00000000000E+00  0.00000000000E+00  1.
        1   -1    0    0  503    0  0.00000000000E+00  0.00000000000E+00 -1.56143299323E+03  1.56143299323E+03  0.00000000000E+00  0.00000000000E+00  1.
      -24    2    1    2    0    0  1.60545248842E+03  1.60019261149E+03  5.45886373695E+02  2.33299353129E+03  8.22970085245E+01  0.00000000000E+00  1.
       25    2    1    2    0    0 -1.60545248842E+03 -1.60019261149E+03  1.26125591115E+03  2.59701474001E+03  1.25000000000E+02  0.00000000000E+00  1.
       -4    1    3    3    0  502  1.54687371744E+03  1.55139199489E+03  5.40872816787E+02  2.25658601633E+03  1.27499999938E+00  0.00000000000E+00  1.
        3    1    3    3  502    0  5.85787709771E+01  4.88006166044E+01  5.01355690823E+00  7.64075149644E+01  4.92149129160E-06  0.00000000000E+00  1.
       23    2    4    4    0    0 -7.56565489406E+02 -7.97480887363E+02  6.12004552849E+02  1.26042109368E+03  7.57935038363E+01  0.00000000000E+00  1.
       22    1    4    4    0    0 -8.48886999014E+02 -8.02711724127E+02  6.49251358301E+02  1.33659364633E+03  2.06476546236E-05  0.00000000000E+00  1.
       -1    1    7    7    0  803 -3.62323953233E+01 -6.57146292306E+01  4.07299198418E+01  8.53822307984E+01  3.83542110808E-06  0.00000000000E+00  1.
        1    1    7    7  803    0 -7.20333094083E+02 -7.31766258133E+02  5.71274633008E+02  1.17503886289E+03  1.46000966000E-05  0.00000000000E+00  1.
</event>
<event>
10  50   1.0000000E+00   1.2500000E+02   7.8125000E-03   1.2380861E-01
       -2   -1    0    0    0  503  0.00000000000E+00  0.00000000000E+00  4.30195087509E+03  4.30195087509E+03  0.00000000000E+00  0.00000000000E+00  1.
        1   -1    0    0  503    0  0.00000000000E+00  0.00000000000E+00 -4.64140550095E+03  4.64140550095E+03  0.00000000000E+00  0.00000000000E+00  1.
      -24    2    1    2    0    0 -2.92647199101E+03  2.49631057877E+03  2.10356664095E+03  4.38487167936E+03  7.93864703457E+01  0.00000000000E+00  1.
       25    2    1    2    0    0  2.92647199101E+03 -2.49631057877E+03 -2.44302126680E+03  4.55848469668E+03  1.25000000000E+02  0.00000000000E+00  1.
       -4    1    3    3    0  502 -1.71064804371E+03  1.47763135777E+03  1.27764967133E+03  2.59655569307E+03  1.27499999970E+00  0.00000000000E+00  1.
        3    1    3    3  502    0 -1.21582394730E+03  1.01867922100E+03  8.25916969621E+02  1.78831598629E+03  3.37174788087E-05  0.00000000000E+00  1.
       23    2    4    4    0    0  1.79357634847E+03 -1.52950905097E+03 -1.46977601781E+03  2.77933769721E+03  9.03462108301E+01  0.00000000000E+00  1.
       22    1    4    4    0    0  1.13289564254E+03 -9.66801527802E+02 -9.73245248989E+02  1.77914699947E+03  3.57627868652E-05  0.00000000000E+00  1.
       -5    1    7    7    0  803  2.60249286725E+02 -1.81991652412E+02 -1.95771065457E+02  3.73094526037E+02  4.75000000000E+00  0.00000000000E+00  1.
        5    1    7    7  803    0  1.53332706175E+03 -1.34751739856E+03 -1.27400495235E+03  2.40624317117E+03  4.74999999978E+00  0.00000000000E+00  1.
</event>
<event>
10  50   1.0000000E+00   1.2500000E+02   7.8125000E-03   1.2380861E-01
       -1   -1    0    0    0  503  0.00000000000E+00  0.00000000000E+00  5.11423952826E+03  5.11423952826E+03  0.00000000000E+00  0.00000000000E+00  1.
        2   -1    0    0  503    0  0.00000000000E+00  0.00000000000E+00 -1.61610878254E+03  1.61610878254E+03  0.00000000000E+00  0.00000000000E+00  1.
       24    2    1    2    0    0  4.46318858559E+02  2.83516625234E+03  1.90003866200E+03  3.44296462312E+03  8.05622558129E+01  0.00000000000E+00  1.
       25    2    1    2    0    0 -4.46318858559E+02 -2.83516625234E+03  1.59809208373E+03  3.28738368768E+03  1.25000000000E+02  0.00000000000E+00  1.
       -3    1    3    3    0  502  1.68376066630E+02  1.27696434287E+03  8.24001589841E+02  1.52904122012E+03  2.38418579102E-05  0.00000000000E+00  1.
        4    1    3    3  502    0  2.77942791929E+02  1.55820190947E+03  1.07603707216E+03  1.91392340300E+03  1.27500000020E+00  0.00000000000E+00  1.
       23    2    4    4    0    0 -1.63500113643E+02 -8.72784356512E+02  5.51415621070E+02  1.04540671076E+03  1.81984507669E+01  0.00000000000E+00  1.
       22    1    4    4    0    0 -2.82818744916E+02 -1.96238189583E+03  1.04667646266E+03  2.24197697692E+03  2.06476546236E-05  0.00000000000E+00  1.
      -15    1    7    7    0    0 -8.42953931550E+01 -4.24939764273E+02  2.78001352797E+02  5.14749867162E+02  1.77680000000E+00  0.00000000000E+00  1.
       15    1    7    7    0    0 -7.92047204876E+01 -4.47844592239E+02  2.73414268274E+02  5.30656843599E+02  1.77680000000E+00  0.00000000000E+00  1.
</event>
<event>
10  50   1.0000000E+00   1.2500000E+02   7.8125000E-03   1.2380861E-01
        2   -1    0    0  503    0  0.00000000000E+00  0.00000000000E+00  4.45357979111E+03  4.45357979111E+03  0.00000000000E+00  0.00000000000E+00  1.
       -1   -1    0    0    0  503  0.00000000000E+00  0.00000000000E+00 -1.14926384458E+03  1.14926384458E+03  0.00000000000E+00  0.00000000000E+00  1.
       24    2    1    2    0    0  1.29893864579E+03  2.25083330536E+01 -6.38450571681E+02  1.44967845143E+03  7.87416629585E+01  0.00000000000E+00  1.
       25    2    1    2    0    0 -1.29893864579E+03 -2.25083330536E+01  3.94276651821E+03  4.15316518426E+03  1.25000000000E+02  0.00000000000E+00  1.
       -1    1    3    3    0  502  1.27664553712E+03  1.24931352172E+01 -6.31002772889E+02  1.42412934991E+03  3.03925246810E-05  0.00000000000E+00  1.
        2    1    3    3  502    0  2.22931086678E+01  1.00151978364E+01 -7.44779879162E+00  2.55491015227E+01  1.20353400552E-06  0.00000000000E+00  1.
       23    2    4    4    0    0 -7.13929034255E+02 -1.15814453999E+01  2.17052930435E+03  2.28683713575E+03  9.27244766862E+01  0.00000000000E+00  1.
       22    1    4    4    0    0 -5.85009611535E+02 -1.09268876537E+01  1.77223721386E+03  1.86632804851E+03  3.37174788087E-05  0.00000000000E+00  1.
      -16    1    7    7    0    0 -4.63031388382E+02  3.41951748045E+01  1.35259432810E+03  1.43006251368E+03  1.68587394044E-05  0.00000000000E+00  1.
       16    1    7    7    0    0 -2.50897645873E+02 -4.57766202044E+01  8.17934976249E+02  8.56774622076E+02  1.19209289551E-05  0.00000000000E+00  1.
</event>
<event>
10  50   1.0000000E+00   1.2500000E+02   7.8125000E-03   1.2380861E-01
       -2   -1    0    0    0  503  0.00000000000E+00  0.00000000000E+00  2.38151401494E+03  2.38151401494E+03  0.00000000000E+00  0.00000000000E+00  1.
        1   -1    0    0  503    0  0.00000000000E+00  0.00000000000E+00 -3.29158217424E+03  3.29158217424E+03  0.00000000000E+00  0.00000000000E+00  1.
      -24    2    1    2    0    0  1.67507407563E+03 -2.08501107427E+03  3.77808803213E+02  2.70200271888E+03  7.02485754061E+01  0.00000000000E+00  1.
       25    2    1    2    0    0 -1.67507407563E+03  2.08501107427E+03 -1.28787696251E+03  2.97109347030E+03  1.25000000000E+02  0.00000000000E+00  1.
       -2    1    3    3    0  502  1.62205775094E+03 -2.02287729931E+03  3.78143887674E+02  2.62032378061E+03  3.88574743581E-05  0.00000000000E+00  1.
        1    1    3    3  502    0  5.30163246911E+01 -6.21337749651E+01 -3.35084460853E-01  8.16789382691E+01  3.87176560137E-06  0.00000000000E+00  1.
       23    2    4    4    0    0 -1.25227664302E+03  1.60290532321E+03 -9.92126152876E+02  2.26494039509E+03  9.02132156073E+01  0.00000000000E+00  1.
       22    1    4    4    0    0 -4.22797432608E+02  4.82105751058E+02 -2.95750809634E+02  7.06153075206E+02  9.42432183077E-06  0.00000000000E+00  1.
       -3    1    7    7    0  803 -9.96638743252E+02  1.23303133168E+03 -7.42991094025E+02  1.75091142416E+03  2.38418579102E-05  0.00000000000E+00  1.
        3    1    7    7  803    0 -2.55637899770E+02  3.69873991530E+02 -2.49135058852E+02  5.14028970933E+02  1.19209289551E-05  0.00000000000E+00  1.
</event>
<event>
10  50   1.0000000E+00   1.2500000E+02   7.8125000E-03   1.2380861E-01
        1   -1    0    0  503    0  0.00000000000E+00  0.00000000000E+00  2.06595277237E+03  2.06595277237E+03  0.00000000000E+00  0.00000000000E+00  1.
       -2   -1    0    0    0  503  0.00000000000E+00  0.00000000000E+00 -2.21806269445E+03  2.21806269445E+03  0.00000000000E+00  0.00000000000E+00  1.
      -24    2    1    2    0    0 -5.59259277681E+02  6.94326913034E+02 -2.02055881808E+03  2.20998868810E+03  8.08162260011E+01  0.00000000000E+00  1.
       25    2    1    2    0    0  5.59259277681E+02 -6.94326913034E+02  1.86844889600E+03  2.07402677871E+03  1.25000000000E+02  0.00000000000E+00  1.
      -14    1    3    3    0    0 -1.09210420212E+02  1.54594630090E+02 -5.09068631390E+02  5.43118115147E+02  5.96046447754E-06  0.00000000000E+00  1.
       13    1    3    3    0    0 -4.50048857469E+02  5.39732282944E+02 -1.51149018669E+03  1.66687057296E+03  1.05660001000E-01  0.00000000000E+00  1.
       23    2    4    4    0    0  4.52912152834E+02 -6.05772116306E+02  1.59662794316E+03  1.76900498705E+03  8.98252761611E+01  0.00000000000E+00  1.
       22    1    4    4    0    0  1.06347124847E+02 -8.85547967280E+01  2.71820952835E+02  3.05021791659E+02  0.00000000000E+00  0.00000000000E+00  1.
      -16    1    7    7    0    0  2.63818812906E+02 -3.73507827948E+02  8.64698704063E+02  9.78167834469E+02  1.68587394044E-05  0.00000000000E+00  1.
       16    1    7    7    0    0  1.89093339928E+02 -2.32264288358E+02  7.31929239102E+02  7.90837152582E+02  1.19209289551E-05  0.00000000000E+00  1.
</event>
<event>
10  50   1.0000000E+00   1.2500000E+02   7.8125000E-03   1.2380861E-01
       -1   -1    0    0    0  503  0.00000000000E+00  0.00000000000E+00  4.52564965700E+03  4.52564965700E+03  0.00000000000E+00  0.00000000000E+00  1.
        2   -1    0    0  503    0  0.00000000000E+00  0.00000000000E+00 -3.09093635260E+03  3.09093635260E+03  0.00000000000E+00  0.00000000000E+00  1.
       24    2    1    2    0    0 -1.49961518604E+03  2.99123216843E+03 -9.80804776856E+02  3.48782491303E+03  8.14188062005E+01  0.00000000000E+00  1.
       25    2    1    2    0    0  1.49961518604E+03 -2.99123216843E+03  2.41551808126E+03  4.12876109657E+03  1.25000000000E+02  0.00000000000E+00  1.
       -1    1    3    3    0  502 -1.32004818906E+02  3.05166047503E+02 -8.13577495660E+01  3.42302018951E+02  4.47034835815E-06  0.00000000000E+00  1.
        2    1    3    3  502    0 -1.36761036714E+03  2.68606612092E+03 -8.99447027290E+02  3.14552289408E+03  6.19429638708E-05  0.00000000000E+00  1.
       23    2    4    4    0    0  7.12270843061E+02 -1.43980655161E+03  1.23358381517E+03  2.02547767099E+03  2.14034275587E+01  0.00000000000E+00  1.
       22    1    4    4    0    0  7.87344342979E+02 -1.55142561682E+03  1.18193426609E+03  2.10328342558E+03  1.68587394044E-05  0.00000000000E+00  1.
       -2    1    7    7    0  803  6.50109628620E+02 -1.30015131049E+03  1.11739121361E+03  1.83346641192E+03  2.66560074985E-05  0.00000000000E+00  1.
        2    1    7    7  803    0  6.21612144406E+01 -1.39655241119E+02  1.16192601558E+02  1.92011259070E+02  3.33200093731E-06  0.00000000000E+00  1.
</event>
<event>
10  50   1.0000000E+00   1.2500000E+02   7.8125000E-03   1.2380861E-01
       -2   -1    0    0    0  503  0.00000000000E+00  0.00000000000E+00  4.69930925799E+03  4.69930925799E+03  0.00000000000E+00  0.00000000000E+00  1.
        1   -1    0    0  503    0  0.00000000000E+00  0.00000000000E+00 -2.43131996622E+03  2.43131996622E+03  0.00000000000E+00  0.00000000000E+00  1.
      -24    2    1    2    0    0  2.23498015627E+02 -1.86427478242E+03  4.09632973262E+03  4.50690561167E+03  8.25171910040E+01  0.00000000000E+00  1.
       25    2    1    2    0    0 -2.23498015627E+02  1.86427478242E+03 -1.82834044084E+03  2.62372361254E+03  1.25000000000E+02  0.00000000000E+00  1.
       -4    1    3    3    0  502  1.87457927059E+02 -1.56659366837E+03  3.51199650225E+03  3.85012691397E+03  1.27500000182E+00  0.00000000000E+00  1.
        3    1    3    3  502    0  3.60400885680E+01 -2.97681114056E+02  5.84333230366E+02  6.56778697705E+02  1.19209289551E-05  0.00000000000E+00  1.
       23    2    4    4    0    0 -1.43919991562E+02  1.43946846810E+03 -1.46642837493E+03  2.06000966908E+03  2.11003146348E+01  0.00000000000E+00  1.
       22    1    4    4    0    0 -7.95780240650E+01  4.24806314318E+02 -3.61912065911E+02  5.63713943459E+02  1.11510079705E-05  0.00000000000E+00  1.
       -1    1    7    7    0  803 -1.84504642021E+01  1.72215673985E+02 -1.85281170123E+02  2.53629197841E+02  4.71216091539E-06  0.00000000000E+00  1.
        1    1    7    7  803    0 -1.25469527360E+02  1.26725279412E+03 -1.28114720481E+03  1.80638047124E+03  0.00000000000E+00  0.00000000000E+00  1.
</event>
<event>
10  50   1.0000000E+00   1.2500000E+02   7.8125000E-03   1.2380861E-01
       -1   -1    0    0    0  503  0.00000000000E+00  0.00000000000E+00  1.57151841441E+03  1.57151841441E+03  0.00000000000E+00  0.00000000000E+00  1.
        2   -1    0    0  503    0  0.00000000000E+00  0.00000000000E+00 -2.43415835646E+03  2.43415835646E+03  0.00000000000E+00  0.00000000000E+00  1.
       24    2    1    2    0    0  4.95613301452E+02 -8.55015526442E+01  1.50145064291E+03  1.58545108842E+03  7.97374479018E+01  0.00000000000E+00  1.
       25    2    1    2    0    0 -4.95613301452E+02  8.55015526442E+01 -2.36409058496E+03  2.42022568244E+03  1.25000000000E+02  0.00000000000E+00  1.
       -1    1    3    3    0  502  2.57755357001E+02 -5.73884422908E+01  9.04000738824E+02  9.41779482239E+02  0.00000000000E+00  0.00000000000E+00  1.
        2    1    3    3  502    0  2.37857944452E+02 -2.81131103534E+01  5.97449904084E+02  6.43671606181E+02  1.46000966000E-05  0.00000000000E+00  1.
       23    2    4    4    0    0 -2.93769692998E+02  7.18533645634E+01 -1.41224160632E+03  1.44711541456E+03  9.08467386227E+01  0.00000000000E+00  1.
       22    1    4    4    0    0 -2.01843608454E+02  1.36481880808E+01 -9.51848978639E+02  9.73110267877E+02  1.19209289551E-05  0.00000000000E+00  1.
       -4    1    7    7    0  803 -2.74881648131E+02  3.93761552894E+01 -1.26852273004E+03  1.29856149040E+03  1.27500000015E+00  0.00000000000E+00  1.
        4    1    7    7  803    0 -1.88880448673E+01  3.24772092741E+01 -1.43718876278E+02  1.48553924165E+02  1.27500000000E+00  0.00000000000E+00  1.
</event>
<event>
10  50   1.0000000E+00   1.2500000E+02   7.8125000E-03   1.2380861E-01
       -2   -1    0    0    0  503  0.00000000000E+00  0.00000000000E+00  1.42122924015E+03  1.42122924015E+03  0.00000000000E+00  0.00000000000E+00  1.
        1   -1    0    0  503    0  0.00000000000E+00  0.00000000000E+00 -3.82840777843E+03  3.82840777843E+03  0.00000000000E+00  0.00000000000E+00  1.
      -24    2    1    2    0    0  1.67178367518E+03  1.41722046669E+03 -3.11715769302E+02  2.21484481417E+03  7.06846672995E+01  0.00000000000E+00  1.
       25    2    1    2    0    0 -1.67178367518E+03 -1.41722046669E+03 -2.09546276897E+03  3.03479220441E+03  1.25000000000E+02  0.00000000000E+00  1.
       -2    1    3    3    0  502  1.11940348155E+01  9.26596444565E+00 -8.12814865326E+00  1.66502646552E+01  2.08458204620E-06  0.00000000000E+00  1.
        1    1    3    3  502    0  1.66058964037E+03  1.40795450225E+03 -3.03587620649E+02  2.19819454951E+03  5.31451538209E-05  0.00000000000E+00  1.
       23    2    4    4    0    0 -1.27856076360E+03 -1.04669647587E+03 -1.57447190311E+03  2.28422990302E+03  9.19420324580E+01  0.00000000000E+00  1.
       22    1    4    4    0    0 -3.93222911579E+02 -3.70523990820E+02 -5.20990865858E+02  7.50562301392E+02  5.96046447754E-06  0.00000000000E+00  1.
      -12    1    7    7    0    0 -1.30706615827E+02 -1.41739432907E+02 -1.67153842864E+02  2.55175808896E+02  5.57550398525E-06  0.00000000000E+00  1.
       12    1    7    7    0    0 -1.14785414777E+03 -9.04957042964E+02 -1.40731806025E+03  2.02905409412E+03  1.68587394044E-05  0.00000000000E+00  1.
</event>
<event>
10  50   1.0000000E+00   1.2500000E+02   7.8125000E-03   1.2380861E-01
       -1   -1    0    0    0  503  0.00000000000E+00  0.00000000000E+00  4.22214020984E+03  4.22214020984E+03  0.00000000000E+00  0.00000000000E+00  1.
        2   -1    0    0  503    0  0.00000000000E+00  0.00000000000E+00 -2.28661954645E+03  2.28661954645E+03  0.00000000000E+00  0.00000000000E+00  1.
       24    2    1    2    0    0  2.62517205996E+03  1.59508868326E+03  4.89949552748E+02  3.11153484648E+03  7.59097146674E+01  0.00000000000E+00  1.
       25    2    1    2    0    0 -2.62517205996E+03 -1.59508868326E+03  1.44557111064E+03  3.39722490980E+03  1.25000000000E+02  0.00000000000E+00  1.
       -3    1    3    3    0  502  2.84411206714E+02  1.45857356244E+02  4.85481091330E+01  3.23297110682E+02  3.72529029846E-06  0.00000000000E+00  1.
        4    1    3    3  502    0  2.34076085324E+03  1.44923132702E+03  4.41401443615E+02  2.78823773580E+03  1.27499999845E+00  0.00000000000E+00  1.
       23    2    4    4    0    0 -2.10703057664E+03 -1.29986328666E+03  1.19196194539E+03  2.74919231785E+03  8.97925740135E+01  0.00000000000E+00  1.
       22    1    4    4    0    0 -5.18141483321E+02 -2.95225396602E+02  2.53609165250E+02  6.48032591954E+02  1.03238273118E-05  0.00000000000E+00  1.
       -4    1    7    7    0  803 -1.99945096168E+03 -1.25157730169E+03  1.12248431576E+03  2.61232129628E+03  1.27500000054E+00  0.00000000000E+00  1.
        4    1    7    7  803    0 -1.07579614964E+02 -4.82859849668E+01  6.94776296283E+01  1.36871021563E+02  1.27499999999E+00  0.00000000000E+00  1.
</event>
<event>
10  50   1.0000000E+00   1.2500000E+02   7.8125000E-03   1.2380861E-01
        1   -1    0    0  503    0  0.00000000000E+00  0.00000000000E+00  4.73287069764E+03  4.73287069764E+03  0.00000000000E+00  0.00000000000E+00  1.
       -2   -1    0    0    0  503  0.00000000000E+00  0.00000000000E+00 -9.50662633254E+02  9.50662633254E+02  0.00000000000E+00  0.00000000000E+00  1.
      -24    2    1    2    0    0  1.95793435697E+03  6.58590318027E+02  2.51985481429E+03  3.25940278960E+03  8.24021024730E+01  0.00000000000E+00  1.
       25    2    1    2    0    0 -1.95793435697E+03 -6.58590318027E+02  1.26235325009E+03  2.42413054129E+03  1.25000000000E+02  0.00000000000E+00  1.
       -2    1    3    3    0  502  6.12171967208E+02  2.33197769260E+02  8.43842096824E+02  1.06827206338E+03  1.19209289551E-05  0.00000000000E+00  1.
        1    1    3    3  502    0  1.34576238977E+03  4.25392548767E+02  1.67601271747E+03  2.19113072622E+03  4.76837158203E-05  0.00000000000E+00  1.
       23    2    4    4    0    0 -1.50138105669E+03 -4.87005569663E+02  9.88312653282E+02  1.86468394816E+03  9.46827524513E+01  0.00000000000E+00  1.
       22    1    4    4    0    0 -4.56553300281E+02 -1.71584748364E+02  2.74040596808E+02  5.59446593132E+02  9.42432183077E-06  0.00000000000E+00  1.
       -5    1    7    7    0  803 -1.31218902436E+03 -4.55469964859E+02  8.55021719737E+02  1.63106640829E+03  4.74999999997E+00  0.00000000000E+00  1.
        5    1    7    7  803    0 -1.89192032333E+02 -3.15356048046E+01  1.33290933546E+02  2.33617539868E+02  4.75000000000E+00  0.00000000000E+00  1.
</event>
<event>
10  50   1.0000000E+00   1.2500000E+02   7.8125000E-03   1.2380861E-01
        1   -1    0    0  503    0  0.00000000000E+00  0.00000000000E+00  4.63689290238E+03  4.63689290238E+03  0.00000000000E+00  0.00000000000E+00  1.
       -2   -1    0    0    0  503  0.00000000000E+00  0.00000000000E+00 -3.17839120099E+03  3.17839120099E+03  0.00000000000E+00  0.00000000000E+00  1.
      -24    2    1    2    0    0  1.04361671197E+03 -5.69361469455E+02  4.44318285328E+03  4.60012393585E+03  7.71882963298E+01  0.00000000000E+00  1.
       25    2    1    2    0    0 -1.04361671197E+03  5.69361469455E+02 -2.98468115188E+03  3.21516016752E+03  1.25000000000E+02  0.00000000000E+00  1.
       -4    1    3    3    0  502  7.60675498090E+02 -4.25873995833E+02  3.12707540053E+03  3.24632069580E+03  1.27500000048E+00  0.00000000000E+00  1.
        3    1    3    3  502    0  2.82941213883E+02 -1.43487473622E+02  1.31610745275E+03  1.35380324005E+03  2.38418579102E-05  0.00000000000E+00  1.
       23    2    4    4    0    0 -5.28626575935E+02  3.57936144393E+02 -1.62649559150E+03  1.74731020082E+03  6.37875406565E+00  0.00000000000E+00  1.
       22    1    4    4    0    0 -5.14990136035E+02  2.11425325062E+02 -1.35818556038E+03  1.46784996670E+03  2.38418579102E-05  0.00000000000E+00  1.
      -15    1    7    7    0    0 -3.21453980014E+02  2.17173135940E+02 -9.81435527118E+02  1.05532728722E+03  1.77679999990E+00  0.00000000000E+00  1.
       15    1    7    7    0    0 -2.07172595921E+02  1.40763008453E+02 -6.45060064378E+02  6.91982913606E+02  1.77680000002E+00  0.00000000000E+00  1.
</event>
<event>
10  50   1.0000000E+00   1.2500000E+02   7.8125000E-03   1.2380861E-01
        1   -1    0    0  503    0  0.00000000000E+00  0.00000000000E+00  1.26768241819E+03  1.26768241819E+03  0.00000000000E+00  0.00000000000E+00  1.
       -2   -1    0    0    0  503  0.00000000000E+00  0.00000000000E+00 -5.21776632657E+03  5.21776632657E+03  0.00000000000E+00  0.00000000000E+00  1.
      -24    2    1    2    0    0  4.72945775205E+02 -1.36238178119E+03  7.07358323303E+02  1.60824104307E+03  7.95086855674E+01  0.00000000000E+00  1.
       25    2    1    2    0    0 -4.72945775205E+02  1.36238178119E+03 -4.65744223167E+03  4.87720770169E+03  1.25000000000E+02  0.00000000000E+00  1.
       -4    1    3    3    0  502  2.89725603114E+02 -8.50414466595E+02  3.97883435628E+02  9.82577500285E+02  1.27500000037E+00  0.00000000000E+00  1.
        3    1    3    3  502    0  1.83220172091E+02 -5.11967314595E+02  3.09474887675E+02  6.25663542790E+02  1.39785282607E-05  0.00000000000E+00  1.
       23    2    4    4    0    0 -2.89074665316E+02  8.98878453213E+02 -3.01126202544E+03  3.15716316986E+03  9.18349578338E+01  0.00000000000E+00  1.
       22    1    4    4    0    0 -1.83871109889E+02  4.63503327977E+02 -1.64618020623E+03  1.72004453183E+03  3.37174788087E-05  0.00000000000E+00  1.
       -2    1    7    7    0  803 -1.91649577514E+02  6.79323387688E+02 -2.14019391978E+03  2.25358377698E+03  3.37174788087E-05  0.00000000000E+00  1.
        2    1    7    7  803    0 -9.74250878019E+01  2.19555065524E+02 -8.71068105663E+02  9.03579392878E+02  2.06476546236E-05  0.00000000000E+00  1.
</event>
<event>
10  50   1.0000000E+00   1.2500000E+02   7.8125000E-03   1.2380861E-01
       -2   -1    0    0    0  503  0.00000000000E+00  0.00000000000E+00  3.36052076212E+03  3.36052076212E+03  0.00000000000E+00  0.00000000000E+00  1.
        1   -1    0    0  503    0  0.00000000000E+00  0.00000000000E+00 -3.23454728789E+03  3.23454728789E+03  0.00000000000E+00  0.00000000000E+00  1.
      -24    2    1    2    0    0  3.10904761320E+03  7.71730504667E+02  8.35720004185E+02  3.31160795892E+03  8.10821507734E+01  0.00000000000E+00  1.
       25    2    1    2    0    0 -3.10904761320E+03 -7.71730504667E+02 -7.09746529956E+02  3.28346009109E+03  1.25000000000E+02  0.00000000000E+00  1.
      -14    1    3    3    0    0  1.08052693817E+03  2.89995125711E+02  2.58457774272E+02  1.14823170925E+03  1.71201307968E-05  0.00000000000E+00  1.
       13    1    3    3    0    0  2.02852067503E+03  4.81735378956E+02  5.77262229913E+02  2.16337624967E+03  1.05659980153E-01  0.00000000000E+00  1.
       23    2    4    4    0    0 -1.40825930439E+03 -3.45743105361E+02 -2.93704935142E+02  1.48145100555E+03  7.55111224490E+01  0.00000000000E+00  1.
       22    1    4    4    0    0 -1.70078830881E+03 -4.25987399306E+02 -4.16041594814E+02  1.80200908554E+03  3.03925246810E-05  0.00000000000E+00  1.
       -4    1    7    7    0  803 -1.14382537770E+03 -3.08249609391E+02 -2.51864577148E+02  1.21111176495E+03  1.27500000003E+00  0.00000000000E+00  1.
        4    1    7    7  803    0 -2.64433926690E+02 -3.74934959705E+01 -4.18403579934E+01  2.70339240597E+02  1.27499999996E+00  0.00000000000E+00  1.
</event>
<event>
10  50   1.0000000E+00   1.2500000E+02   7.8125000E-03   1.2380861E-01
       -1   -1    0    0    0  503  0.00000000000E+00  0.00000000000E+00  1.37741288602E+03  1.37741288602E+03  0.00000000000E+00  0.00000000000E+00  1.
        2   -1    0    0  503    0  0.00000000000E+00  0.00000000000E+00 -4.85422202789E+03  4.85422202789E+03  0.00000000000E+00  0.00000000000E+00  1.
       24    2    1    2    0    0 -3.88139144270E+02  2.52362180621E+03 -2.21365588356E+03  3.38023172072E+03  7.98442160515E+01  0.00000000000E+00  1.
       25    2    1    2    0    0  3.88139144270E+02 -2.52362180621E+03 -1.26315325831E+03  2.85140319318E+03  1.25000000000E+02  0.00000000000E+00  1.
      -11    1    3    3    0    0 -3.60396503276E+02  2.34696345879E+03 -2.08468062033E+03  3.15974942128E+03  5.07445255608E-04  0.00000000000E+00  1.
       12    1    3    3    0    0 -2.77426409940E+01  1.76658347421E+02 -1.28975263232E+02  2.20482299445E+02  2.98023223877E-06  0.00000000000E+00  1.
       23    2    4    4    0    0  3.48336947202E+02 -2.38455606063E+03 -1.18273023928E+03  2.68589984434E+03  8.80960832358E+01  0.00000000000E+00  1.
       22    1    4    4    0    0  3.98021970679E+01 -1.39065745585E+02 -8.04230190318E+01  1.65503348838E+02  4.82852809013E-06  0.00000000000E+00  1.
       -5    1    7    7    0  803  1.91272581988E+01 -5.27874773853E+01 -3.33444744288E+01  6.54735538201E+01  4.75000000000E+00  0.00000000000E+00  1.
        5    1    7    7  803    0  3.29209689003E+02 -2.33176858324E+03 -1.14938576485E+03  2.62042629052E+03  4.75000000005E+00  0.00000000000E+00  1.
</event>
<event>
10  50   1.0000000E+00   1.2500000E+02   7.8125000E-03   1.2380861E-01
       -2   -1    0    0    0  503  0.00000000000E+00  0.00000000000E+00  2.69412595457E+03  2.69412595457E+03  0.00000000000E+00  0.00000000000E+00  1.
        1   -1    0    0  503    0  0.00000000000E+00  0.00000000000E+00 -5.29809395965E+03  5.29809395965E+03  0.00000000000E+00  0.00000000000E+00  1.
      -24    2    1    2    0    0  2.35461815780E+03  2.83064771502E+03 -2.19056088555E+03  4.28502102529E+03  7.78141264364E+01  0.00000000000E+00  1.
       25    2    1    2    0    0 -2.35461815780E+03 -2.83064771502E+03 -4.13407119530E+02  3.70719888893E+03  1.25000000000E+02  0.00000000000E+00  1.
      -12    1    3    3    0    0  1.26339555860E+03  1.51247708521E+03 -1.21734599261E+03  2.31639515984E+03  2.38418579102E-05  0.00000000000E+00  1.
       11    1    3    3    0    0  1.09122259920E+03  1.31817062981E+03 -9.73214892938E+02  1.96862586545E+03  5.12322639154E-04  0.00000000000E+00  1.
       23    2    4    4    0    0 -1.96565604793E+03 -2.40381159817E+03 -3.58735011271E+02  3.12713886360E+03  9.05138976969E+01  0.00000000000E+00  1.
       22    1    4    4    0    0 -3.88962109875E+02 -4.26836116850E+02 -5.46721082589E+01  5.80060025331E+02  1.48077360648E-05  0.00000000000E+00  1.
       -4    1    7    7    0  803 -6.67455202289E+02 -7.91164836927E+02 -1.59471958965E+02  1.04731617842E+03  1.27499999997E+00  0.00000000000E+00  1.
        4    1    7    7  803    0 -1.29820084564E+03 -1.61264676124E+03 -1.99263052306E+02  2.07982268518E+03  1.27499999962E+00  0.00000000000E+00  1.
</event>
<event>
10  50   1.0000000E+00   1.2500000E+02   7.8125000E-03   1.2380861E-01
       -2   -1    0    0    0  503  0.00000000000E+00  0.00000000000E+00  4.85910029817E+02  4.85910029817E+02  0.00000000000E+00  0.00000000000E+00  1.
        1   -1    0    0  503    0  0.00000000000E+00  0.00000000000E+00 -2.43604006147E+03  2.43604006147E+03  0.00000000000E+00  0.00000000000E+00  1.
      -24    2    1    2    0    0 -4.23006709353E+02 -1.09736628699E+02 -2.30359049833E+03  2.34615837083E+03  8.33853297185E+01  0.00000000000E+00  1.
       25    2    1    2    0    0  4.23006709353E+02  1.09736628699E+02  3.53460466677E+02  5.75791720451E+02  1.25000000000E+02  0.00000000000E+00  1.
       -4    1    3    3    0  502 -4.01348905375E+01  7.32870768119E+00 -1.39711533518E+02  1.45552250473E+02  1.27500000000E+00  0.00000000000E+00  1.
        3    1    3    3  502    0 -3.82871818816E+02 -1.17065336380E+02 -2.16387896481E+03  2.20060612036E+03  2.38418579102E-05  0.00000000000E+00  1.
       23    2    4    4    0    0  4.01908162995E+02  6.93736857727E+01  3.29413852381E+02  5.24288754719E+02  4.72571948763E+00  0.00000000000E+00  1.
       22    1    4    4    0    0  2.10985463584E+01  4.03629429263E+01  2.40466142956E+01  5.15029657320E+01  8.73658016291E-07  0.00000000000E+00  1.
      -13    1    7    7    0    0  3.39857762406E+02  5.70376411960E+01  2.77557342987E+02  4.42486927480E+02  1.05660000160E-01  0.00000000000E+00  1.
       13    1    7    7    0    0  6.20504005886E+01  1.23360445767E+01  5.18565093942E+01  8.18018272387E+01  1.05660000010E-01  0.00000000000E+00  1.
</event>
<event>
10  50   1.0000000E+00   1.2500000E+02   7.8125000E-03   1.2380861E-01
       -2   -1    0    0    0  503  0.00000000000E+00  0.00000000000E+00  5.27612983653E+03  5.27612983653E+03  0.00000000000E+00  0.00000000000E+00  1.
        1   -1    0    0  503    0  0.00000000000E+00  0.00000000000E+00 -2.84260288493E+03  2.84260288493E+03  0.00000000000E+00  0.00000000000E+00  1.
      -24    2    1    2    0    0  2.25819553142E+03 -2.81910573546E+03  2.67660406553E+03  4.49636944741E+03  7.95278451394E+01  0.00000000000E+00  1.
       25    2    1    2    0    0 -2.25819553142E+03  2.81910573546E+03 -2.43077113932E+02  3.62236327404E+03  1.25000000000E+02  0.00000000000E+00  1.
      -14    1    3    3    0    0  2.16991228980E+03 -2.73191499405E+03  2.58641053967E+03  4.34297114426E+03  8.25906184945E-05  0.00000000000E+00  1.
       13    1    3    3    0    0  8.82832416185E+01 -8.71907414083E+01  9.01935258622E+01  1.53398303151E+02  1.05659999813E-01  0.00000000000E+00  1.
       23    2    4    4    0    0 -2.07846246671E+03  2.55544491618E+03 -1.97955021544E+02  3.30009474409E+03  3.36776524553E+01  0.00000000000E+00  1.
       22    1    4    4    0    0 -1.79733064708E+02  2.63660819281E+02 -4.51220923877E+01  3.22268529948E+02  5.74709796181E-06  0.00000000000E+00  1.
      -13    1    7    7    0    0 -1.00836134530E+03  1.22753660481E+03 -1.10448098134E+02  1.59243132109E+03  1.05660003575E-01  0.00000000000E+00  1.
       13    1    7    7    0    0 -1.07010112141E+03  1.32790831137E+03 -8.75069234101E+01  1.70766342300E+03  1.05660004336E-01  0.00000000000E+00  1.
</event>
<event>
10  50   1.0000000E+00   1.2500000E+02   7.8125000E-03   1.2380861E-01
        1   -1    0    0  503    0  0.00000000000E+00  0.00000000000E+00  3.27102249304E+03  3.27102249304E+03  0.00000000000E+00  0.00000000000E+00  1.
       -2   -1    0    0    0  503  0.00000000000E+00  0.00000000000E+00 -1.27389798487E+03  1.27389798487E+03  0.00000000000E+00  0.00000000000E+00  1.
      -24    2    1    2    0    0  1.37006260441E+03  1.16362186611E+03 -7.21895071781E+01  1.80105953366E+03  8.66990860855E+01  0.00000000000E+00  1.
       25    2    1    2    0    0 -1.37006260441E+03 -1.16362186611E+03  2.06931401534E+03  2.74386094425E+03  1.25000000000E+02  0.00000000000E+00  1.
      -12    1    3    3    0    0  1.35724385330E+03  1.14254660517E+03 -7.75344019467E+01  1.77581958707E+03  2.99324235716E-05  0.00000000000E+00  1.
       11    1    3    3    0    0  1.28187511127E+01  2.10752609378E+01  5.34489476862E+00  2.52399465933E+01  5.11009597578E-04  0.00000000000E+00  1.
       23    2    4    4    0    0 -1.13492208459E+03 -9.98032910418E+02  1.71747602906E+03  2.28943742494E+03  8.76469279144E+01  0.00000000000E+00  1.
       22    1    4    4    0    0 -2.35140519823E+02 -1.65588955692E+02  3.51837986283E+02  4.54423519309E+02  4.21468485109E-06  0.00000000000E+00  1.
      -13    1    7    7    0    0 -3.64795669017E+02 -3.31468948371E+02  5.00098376297E+02  7.02172301509E+02  1.05660000160E-01  0.00000000000E+00  1.
       13    1    7    7    0    0 -7.70126415570E+02 -6.66563962047E+02  1.21737765276E+03  1.58726512343E+03  1.05660002345E-01  0.00000000000E+00  1.
</event>
<event>
10  50   1.0000000E+00   1.2500000E+02   7.8125000E-03   1.2380861E-01
        2   -1    0    0  503    0  0.00000000000E+00  0.00000000000E+00  3.08725024567E+03  3.08725024567E+03  0.00000000000E+00  0.00000000000E+00  1.
       -1   -1    0    0    0  503  0.00000000000E+00  0.00000000000E+00 -1.48913247458E+03  1.48913247458E+03  0.00000000000E+00  0.00000000000E+00  1.
       24    2    1    2    0    0 -1.48959261446E+03 -6.09638963950E+02  2.30669277595E+03  2.81335992944E+03  6.01390598094E+01  0.00000000000E+00  1.
       25    2    1    2    0    0  1.48959261446E+03  6.09638963950E+02 -7.08575004865E+02  1.76302279082E+03  1.25000000000E+02  0.00000000000E+00  1.
      -11    1    3    3    0    0 -2.73773198065E+02 -1.35378513849E+02  4.21118222366E+02  5.20211171737E+02  5.10933851999E-04  0.00000000000E+00  1.
       12    1    3    3    0    0 -1.21581941639E+03 -4.74260450101E+02  1.88557455359E+03  2.29314875770E+03  2.38418579102E-05  0.00000000000E+00  1.
       23    2    4    4    0    0  1.08522216785E+03  4.19584430853E+02 -5.09009216048E+02  1.27367354161E+03  9.69312145403E+01  0.00000000000E+00  1.
       22    1    4    4    0    0  4.04370446607E+02  1.90054533097E+02 -1.99565788817E+02  4.89349249213E+02  9.88431212412E-06  0.00000000000E+00  1.
       -3    1    7    7    0  803  5.66626758356E+02  2.59171889695E+02 -2.38539572737E+02  6.67185940690E+02  4.21468485109E-06  0.00000000000E+00  1.
        3    1    7    7  803    0  5.18595409497E+02  1.60412541157E+02 -2.70469643311E+02  6.06487600916E+02  0.00000000000E+00  0.00000000000E+00  1.
</event>
<event>
10  50   1.0000000E+00   1.2500000E+02   7.8125000E-03   1.2380861E-01
        2   -1    0    0  503    0  0.00000000000E+00  0.00000000000E+00  2.60622238254E+03  2.60622238254E+03  0.00000000000E+00  0.00000000000E+00  1.
       -1   -1    0    0    0  503  0.00000000000E+00  0.00000000000E+00 -3.72848535860E+03  3.72848535860E+03  0.00000000000E+00  0.00000000000E+00  1.
       24    2    1    2    0    0 -1.99593524627E+03 -1.97321138628E+03 -1.93500211535E+03  3.41007262018E+03  8.39130873790E+01  0.00000000000E+00  1.
       25    2    1    2    0    0  1.99593524627E+03  1.97321138628E+03  8.12739139285E+02  2.92463512096E+03  1.25000000000E+02  0.00000000000E+00  1.
       -1    1    3    3    0  502 -1.47075416203E+03 -1.40482912118E+03 -1.41803002264E+03  2.47940956882E+03  3.76972873231E-05  0.00000000000E+00  1.
        2    1    3    3  502    0 -5.25181084234E+02 -5.68382265102E+02 -5.16972092706E+02  9.30663051355E+02  5.96046447754E-06  0.00000000000E+00  1.
       23    2    4    4    0    0  1.11335328672E+03  1.03191089304E+03  4.67599928052E+02  1.58892609238E+03  4.05068155908E+01  0.00000000000E+00  1.
       22    1    4    4    0    0  8.82581959549E+02  9.41300493243E+02  3.45139211233E+02  1.33570902858E+03  1.03238273118E-05  0.00000000000E+00  1.
       -4    1    7    7    0  803  1.41331576462E+02  1.23914764578E+02  7.07964279060E+01  2.00856275020E+02  1.27500000001E+00  0.00000000000E+00  1.
        4    1    7    7  803    0  9.72021710260E+02  9.07996128459E+02  3.96803500146E+02  1.38806981736E+03  1.27499999970E+00  0.00000000000E+00  1.
</event>
<event>
10  50   1.0000000E+00   1.2500000E+02   7.8125000E-03   1.2380861E-01
        1   -1    0    0  503    0  0.00000000000E+00  0.00000000000E+00  1.74731355485E+03  1.74731355485E+03  0.00000000000E+00  0.00000000000E+00  1.
       -2   -1    0    0    0  503  0.00000000000E+00  0.00000000000E+00 -5.03613465056E+03  5.03613465056E+03  0.00000000000E+00  0.00000000000E+00  1.
      -24    2    1    2    0    0 -9.84009576027E+02 -2.77872561019E+03 -1.28401694876E+03  3.21631272578E+03  7.98571405798E+01  0.00000000000E+00  1.
       25    2    1    2    0    0  9.84009576027E+02  2.77872561019E+03 -2.00480414695E+03  3.56713547963E+03  1.25000000000E+02  0.00000000000E+00  1.
       -4    1    3    3    0  502 -1.58801758800E+02 -3.69371668510E+02 -1.67198562550E+02  4.35442778146E+02  1.27499999994E+00  0.00000000000E+00  1.
        3    1    3    3  502    0 -8.25207817228E+02 -2.40935394168E+03 -1.11681838621E+03  2.78086994764E+03  2.06476546236E-05  0.00000000000E+00  1.
       23    2    4    4    0    0  8.35163673720E+02  2.30427086082E+03 -1.64241163951E+03  2.95183820084E+03  9.31139540401E+01  0.00000000000E+00  1.
       22    1    4    4    0    0  1.48845902307E+02  4.74454749375E+02 -3.62392507436E+02  6.15297278787E+02  0.00000000000E+00  0.00000000000E+00  1.
       -4    1    7    7    0  803  7.22083500961E+02  1.88923191898E+03 -1.35947374551E+03  2.43695964604E+03  1.27499999970E+00  0.00000000000E+00  1.
        4    1    7    7  803    0  1.13080172759E+02  4.15038941832E+02 -2.82937894008E+02  5.14878554806E+02  1.27500000000E+00  0.00000000000E+00  1.
</event>
<event>
10  50   1.0000000E+00   1.2500000E+02   7.8125000E-03   1.2380861E-01
        2   -1    0    0  503    0  0.00000000000E+00  0.00000000000E+00  4.48191970295E+03  4.48191970295E+03  0.00000000000E+00  0.00000000000E+00  1.
       -1   -1    0    0    0  503  0.00000000000E+00  0.00000000000E+00 -7.94293576110E+02  7.94293576110E+02  0.00000000000E+00  0.00000000000E+00  1.
       24    2    1    2    0    0  1.78483925357E+03 -5.95810551754E+02  1.71523718460E+03  2.54737020659E+03  8.00936658963E+01  0.00000000000E+00  1.
       25    2    1    2    0    0 -1.78483925357E+03  5.95810551754E+02  1.97238894223E+03  2.72884307246E+03  1.25000000000E+02  0.00000000000E+00  1.
       -1    1    3    3    0  502  2.59707062962E+02 -8.59979508047E+01  2.88689122486E+02  3.97724547315E+02  4.21468485109E-06  0.00000000000E+00  1.
        2    1    3    3  502    0  1.52513219061E+03 -5.09812600949E+02  1.42654806212E+03  2.14964565928E+03  2.38418579102E-05  0.00000000000E+00  1.
       23    2    4    4    0    0 -3.99158312800E+02  1.26297137945E+02  5.08572242867E+02  6.59226237224E+02  2.55964821568E+01  0.00000000000E+00  1.
       22    1    4    4    0    0 -1.38568094077E+03  4.69513413809E+02  1.46381669936E+03  2.06961683524E+03  1.68587394044E-05  0.00000000000E+00  1.
       -4    1    7    7    0  803 -1.08846731688E+02  4.47372561277E+01  1.33678171985E+02  1.78102533320E+02  1.27500000000E+00  0.00000000000E+00  1.
        4    1    7    7  803    0 -2.90311581112E+02  8.15598818177E+01  3.74894070883E+02  4.81123703904E+02  1.27499999996E+00  0.00000000000E+00  1.
</event>
<event>
10  50   1.0000000E+00   1.2500000E+02   7.8125000E-03   1.2380861E-01
        2   -1    0    0  503    0  0.00000000000E+00  0.00000000000E+00  2.49019752141E+03  2.49019752141E+03  0.00000000000E+00  0.00000000000E+00  1.
       -1   -1    0    0    0  503  0.00000000000E+00  0.00000000000E+00 -2.63682419303E+03  2.63682419303E+03  0.00000000000E+00  0.00000000000E+00  1.
       24    2    1    2    0    0 -9.85916000104E+02 -1.08997344139E+03  2.02402413372E+03  2.50263180802E+03  8.01237196799E+01  0.00000000000E+00  1.
       25    2    1    2    0    0  9.85916000104E+02  1.08997344139E+03 -2.17065080533E+03  2.62438990641E+03  1.25000000000E+02  0.00000000000E+00  1.
      -13    1    3    3    0    0 -4.34498373520E+02 -4.67025545147E+02  8.12991445926E+02  1.03337156857E+03  1.05659999655E-01  0.00000000000E+00  1.
       14    1    3    3    0    0 -5.51417626583E+02 -6.22947896241E+02  1.21103268779E+03  1.46926023945E+03  0.00000000000E+00  0.00000000000E+00  1.
       23    2    4    4    0    0  3.27728532178E+02  3.56299862689E+02 -8.21745283036E+02  9.53751174938E+02  4.51780345145E+00  0.00000000000E+00  1.
       22    1    4    4    0    0  6.58187467926E+02  7.33673578701E+02 -1.34890552229E+03  1.67063873147E+03  1.68587394044E-05  0.00000000000E+00  1.
      -15    1    7    7    0    0  1.93334383258E+02  2.08215395256E+02 -4.82143298641E+02  5.59640198712E+02  1.77679999994E+00  0.00000000000E+00  1.
       15    1    7    7    0    0  1.34394148920E+02  1.48084467433E+02 -3.39601984395E+02  3.94110976227E+02  1.77680000000E+00  0.00000000000E+00  1.
</event>
<event>
10  50   1.0000000E+00   1.2500000E+02   7.8125000E-03   1.2380861E-01
       -1   -1    0    0    0  503  0.00000000000E+00  0.00000000000E+00  4.94675496759E+03  4.94675496759E+03  0.00000000000E+00  0.00000000000E+00  1.
        2   -1    0    0  503    0  0.00000000000E+00  0.00000000000E+00 -1.12834946053E+03  1.12834946053E+03  0.00000000000E+00  0.00000000000E+00  1.
       24    2    1    2    0    0 -1.08029089188E+03  1.60812303900E+03  1.75107342962E+02  1.94686816644E+03  8.09009040773E+01  0.00000000000E+00  1.
       25    2    1    2    0    0  1.08029089188E+03 -1.60812303900E+03  3.64329816410E+03  4.12823626167E+03  1.25000000000E+02  0.00000000000E+00  1.
       -1    1    3    3    0  502 -3.96782678000E+02  6.16834249817E+02  1.02888391891E+02  7.40612588669E+02  4.94215606206E-06  0.00000000000E+00  1.
        2    1    3    3  502    0 -6.83508213883E+02  9.91288789187E+02  7.22189510710E+01  1.20625557777E+03  1.13971967554E-05  0.00000000000E+00  1.
       23    2    4    4    0    0  8.62502454117E+02 -1.23470523949E+03  2.81922924554E+03  3.19766534060E+03  9.27500929996E+01  0.00000000000E+00  1.
       22    1    4    4    0    0  2.17788437763E+02 -3.73417799506E+02  8.24068918560E+02  9.30570921074E+02  2.06476546236E-05  0.00000000000E+00  1.
      -12    1    7    7    0    0  4.51068080763E+02 -7.25694405738E+02  1.58811139154E+03  1.80338364635E+03  2.38418579102E-05  0.00000000000E+00  1.
       12    1    7    7    0    0  4.11434373354E+02 -5.09010833756E+02  1.23111785400E+03  1.39428169424E+03  2.92001931999E-05  0.00000000000E+00  1.
</event>
<event>
10  50   1.0000000E+00   1.2500000E+02   7.8125000E-03   1.2380861E-01
       -2   -1    0    0    0  503  0.00000000000E+00  0.00000000000E+00  5.49469726211E+03  5.49469726211E+03  0.00000000000E+00  0.00000000000E+00  1.
        1   -1    0    0  503    0  0.00000000000E+00  0.00000000000E+00 -3.16623601207E+03  3.16623601207E+03  0.00000000000E+00  0.00000000000E+00  1.
      -24    2    1    2    0    0  3.79249842714E+03  8.31547162872E-01  2.96336825402E+03  4.81362552524E+03  7.99642232705E+01  0.00000000000E+00  1.
       25    2    1    2    0    0 -3.79249842714E+03 -8.31547162872E-01 -6.34907003977E+02  3.84730774894E+03  1.25000000000E+02  0.00000000000E+00  1.
       -4    1    3    3    0  502  3.52963394507E+03 -1.95028459305E+01  2.75572160333E+03  4.47802404280E+03  1.27500000271E+00  0.00000000000E+00  1.
        3    1    3    3  502    0  2.62864482068E+02  2.03343930934E+01  2.07646650687E+02  3.35601482441E+02  8.42936970218E-06  0.00000000000E+00  1.
       23    2    4    4    0    0 -3.29231224419E+03 -2.59576043824E+01 -5.58340210941E+02  3.34067177493E+03  9.13805569586E+01  0.00000000000E+00  1.
       22    1    4    4    0    0 -5.00186182947E+02  2.51260572196E+01 -7.65667930362E+01  5.06635974007E+02  5.67419313331E-06  0.00000000000E+00  1.
       -4    1    7    7    0  803 -2.69788683902E+02  1.95720356190E+01 -3.32148730221E+01  2.72532295251E+02  1.27499999999E+00  0.00000000000E+00  1.
        4    1    7    7  803    0 -3.02252356029E+03 -4.55296400015E+01 -5.25125337919E+02  3.06813947968E+03  1.27499999803E+00  0.00000000000E+00  1.
</event>
<event>
10  50   1.0000000E+00   1.2500000E+02   7.8125000E-03   1.2380861E-01
       -2   -1    0    0    0  503  0.00000000000E+00  0.00000000000E+00  2.30922993811E+03  2.30922993811E+03  0.00000000000E+00  0.00000000000E+00  1.
        1   -1    0    0  503    0  0.00000000000E+00  0.00000000000E+00 -1.35219526451E+03  1.35219526451E+03  0.00000000000E+00  0.00000000000E+00  1.
      -24    2    1    2    0    0  1.52391296645E+03  5.53300447548E+02  1.19818152712E+03  2.01757943141E+03  8.08435251370E+01  0.00000000000E+00  1.
       25    2    1    2    0    0 -1.52391296645E+03 -5.53300447548E+02 -2.41146853517E+02  1.64384577121E+03  1.25000000000E+02  0.00000000000E+00  1.
       -2    1    3    3    0  502  8.65373707319E+02  2.75521316900E+02  6.91597923077E+02  1.14153026092E+03  0.00000000000E+00  0.00000000000E+00  1.
        1    1    3    3  502    0  6.58539259126E+02  2.77779130648E+02  5.06583604038E+02  8.76049170489E+02  8.42936970218E-06  0.00000000000E+00  1.
       23    2    4    4    0    0 -1.16690458498E+03 -3.69854627541E+02 -1.66212511109E+02  1.23552909387E+03  2.11373366641E+01  0.00000000000E+00  1.
       22    1    4    4    0    0 -3.57008381470E+02 -1.83445820007E+02 -7.49343424078E+01  4.08316677335E+02  2.78775199262E-06  0.00000000000E+00  1.
       -4    1    7    7    0  803 -7.22812827641E+02 -2.23597672083E+02 -1.11543182778E+02  7.64786120437E+02  1.27499999997E+00  0.00000000000E+00  1.
        4    1    7    7  803    0 -4.44091757339E+02 -1.46256955457E+02 -5.46693283310E+01  4.70742973438E+02  1.27499999996E+00  0.00000000000E+00  1.
</event>
<event>
10  50   1.0000000E+00   1.2500000E+02   7.8125000E-03   1.2380861E-01
        2   -1    0    0  503    0  0.00000000000E+00  0.00000000000E+00  3.17771468681E+03  3.17771468681E+03  0.00000000000E+00  0.00000000000E+00  1.
       -1   -1    0    0    0  503  0.00000000000E+00  0.00000000000E+00 -3.69725841990E+03  3.69725841990E+03  0.00000000000E+00  0.00000000000E+00  1.
       24    2    1    2    0    0 -2.25313737831E+03  1.08944139797E+03  2.08666404932E+03  3.25952643856E+03  8.26749282105E+01  0.00000000000E+00  1.
       25    2    1    2    0    0  2.25313737831E+03 -1.08944139797E+03 -2.60620778242E+03  3.61544666816E+03  1.25000000000E+02  0.00000000000E+00  1.
       -1    1    3    3    0  502 -3.87707369276E+02  1.85263031141E+02  3.18490642159E+02  5.34860434170E+02  1.33280037493E-05  0.00000000000E+00  1.
        2    1    3    3  502    0 -1.86543000903E+03  9.04178366827E+02  1.76817340717E+03  2.72466600438E+03  4.76837158203E-05  0.00000000000E+00  1.
       23    2    4    4    0    0  1.03358849794E+03 -5.59694878741E+02 -1.22772547004E+03  1.70020664879E+03  4.27700648384E+01  0.00000000000E+00  1.
       22    1    4    4    0    0  1.21954888037E+03 -5.29746519229E+02 -1.37848231238E+03  1.91524001937E+03  1.68587394044E-05  0.00000000000E+00  1.
       -4    1    7    7    0  803  2.00309929126E+02 -9.10359725126E+01 -2.39074116397E+02  3.24914873088E+02  1.27500000001E+00  0.00000000000E+00  1.
        4    1    7    7  803    0  8.33278568813E+02 -4.68658906228E+02 -9.88651353644E+02  1.37529177570E+03  1.27499999981E+00  0.00000000000E+00  1.
</event>
<event>
10  50   1.0000000E+00   1.2500000E+02   7.8125000E-03   1.2380861E-01
        2   -1    0    0  503    0  0.00000000000E+00  0.00000000000E+00  1.71189710029E+03  1.71189710029E+03  0.00000000000E+00  0.00000000000E+00  1.
       -1   -1    0    0    0  503  0.00000000000E+00  0.00000000000E+00 -1.00607067484E+03  1.00607067484E+03  0.00000000000E+00  0.00000000000E+00  1.
       24    2    1    2    0    0 -9.96750044277E+01 -1.03651410956E+03  1.17239882342E+03  1.57009521759E+03  7.98960906570E+01  0.00000000000E+00  1.
       25    2    1    2    0    0  9.96750044277E+01  1.03651410956E+03 -4.66572397973E+02  1.14787255755E+03  1.25000000000E+02  0.00000000000E+00  1.
       -3    1    3    3    0  502 -5.24701185642E+01 -6.22305496540E+02  7.60205431809E+02  9.83834103352E+02  1.46000966000E-05  0.00000000000E+00  1.
        4    1    3    3  502    0 -4.72048858634E+01 -4.14208613022E+02  4.12193391613E+02  5.86261114236E+02  1.27500000001E+00  0.00000000000E+00  1.
       23    2    4    4    0    0  9.71339727527E+01  1.00120467113E+03 -4.66384807827E+02  1.11247130794E+03  9.07293770122E+01  0.00000000000E+00  1.
       22    1    4    4    0    0  2.54103167502E+00  3.53094384261E+01 -1.87590145849E-01  3.54012496108E+01  5.44039265825E-07  0.00000000000E+00  1.
      -14    1    7    7    0    0 -7.92764359135E+00  1.39522816995E+01 -1.27169496809E+00  1.60975434655E+01  6.38270292518E-07  0.00000000000E+00  1.
       14    1    7    7    0    0  1.05061616344E+02  9.87252389434E+02 -4.65113112859E+02  1.09637376447E+03  8.42936970218E-06  0.00000000000E+00  1.
</event>
<event>
10  50   1.0000000E+00   1.2500000E+02   7.8125000E-03   1.2380861E-01
       -2   -1    0    0    0  503  0.00000000000E+00  0.00000000000E+00  5.38239923044E+03  5.38239923044E+03  0.00000000000E+00  0.00000000000E+00  1.
        1   -1    0    0  503    0  0.00000000000E+00  0.00000000000E+00 -9.35025736472E+02  9.35025736472E+02  0.00000000000E+00  0.00000000000E+00  1.
      -24    2    1    2    0    0  1.13228336132E+03 -1.65901409743E+03  3.62166664937E+03  4.14215252904E+03  8.10238785579E+01  0.00000000000E+00  1.
       25    2    1    2    0    0 -1.13228336132E+03  1.65901409743E+03  8.25706844604E+02  2.17527243788E+03  1.25000000000E+02  0.00000000000E+00  1.
       -4    1    3    3    0  502  3.43745560074E+01 -4.98480419367E+01  1.40542345103E+02  1.53036641944E+02  1.27500000000E+00  0.00000000000E+00  1.
        3    1    3    3  502    0  1.09790880531E+03 -1.60916605549E+03  3.48112430427E+03  3.98911588709E+03  0.00000000000E+00  0.00000000000E+00  1.
       23    2    4    4    0    0 -8.43938753335E+02  1.27979164566E+03  6.48416131060E+02  1.66695730138E+03  9.05753274466E+01  0.00000000000E+00  1.
       22    1    4    4    0    0 -2.88344607985E+02  3.79222451773E+02  1.77290713544E+02  5.08315136497E+02  2.98023223877E-06  0.00000000000E+00  1.
       -5    1    7    7    0  803 -4.28686947866E+02  6.88902116074E+02  3.00072112776E+02  8.65115287212E+02  4.74999999997E+00  0.00000000000E+00  1.
        5    1    7    7  803    0 -4.15251805468E+02  5.90889529583E+02  3.48344018284E+02  8.01842014171E+02  4.74999999998E+00  0.00000000000E+00  1.
</event>
<event>
10  50   1.0000000E+00   1.2500000E+02   7.8125000E-03   1.2380861E-01
       -2   -1    0    0    0  503  0.00000000000E+00  0.00000000000E+00  1.05293463618E+03  1.05293463618E+03  0.00000000000E+00  0.00000000000E+00  1.
        1   -1    0    0  503    0  0.00000000000E+00  0.00000000000E+00 -1.66202292069E+03  1.66202292069E+03  0.00000000000E+00  0.00000000000E+00  1.
      -24    2    1    2    0    0 -6.45458735224E+02 -6.24635820680E+02 -1.29486177947E+03  1.57798914318E+03  8.12146581960E+01  0.00000000000E+00  1.
       25    2    1    2    0    0  6.45458735224E+02  6.24635820680E+02  6.85773494958E+02  1.13696841370E+03  1.25000000000E+02  0.00000000000E+00  1.
      -14    1    3    3    0    0 -5.79655709923E+02 -5.37700624653E+02 -1.09949040198E+03  1.35425324362E+03  1.19209289551E-05  0.00000000000E+00  1.
       13    1    3    3    0    0 -6.58030253010E+01 -8.69351960276E+01 -1.95371377488E+02  2.23735899562E+02  1.05660000139E-01  0.00000000000E+00  1.
       23    2    4    4    0    0  5.30741556955E+02  5.45479831302E+02  5.58849925162E+02  9.48460339035E+02  8.96042924825E+01  0.00000000000E+00  1.
       22    1    4    4    0    0  1.14717178269E+02  7.91559893780E+01  1.26923569796E+02  1.88508074665E+02  2.58095682795E-06  0.00000000000E+00  1.
       -1    1    7    7    0  803  3.13665279555E+02  3.80797001921E+02  3.76447988919E+02  6.20568572062E+02  7.30004829998E-06  0.00000000000E+00  1.
        1    1    7    7  803    0  2.17076277400E+02  1.64682829381E+02  1.82401936243E+02  3.27891766972E+02  2.10734242554E-06  0.00000000000E+00  1.
</event>
<event>
10  50   1.0000000E+00   1.2500000E+02   7.8125000E-03   1.2380861E-01
        2   -1    0    0  503    0  0.00000000000E+00  0.00000000000E+00  3.87475090400E+03  3.87475090400E+03  0.00000000000E+00  0.00000000000E+00  1.
       -1   -1    0    0    0  503  0.00000000000E+00  0.00000000000E+00 -1.44936493912E+03  1.44936493912E+03  0.00000000000E+00  0.00000000000E+00  1.
       24    2    1    2    0    0  6.27587300016E+02 -1.80064586449E+03 -3.64015545174E+02  1.94290642448E+03  7.86556335464E+01  0.00000000000E+00  1.
       25    2    1    2    0    0 -6.27587300016E+02  1.80064586449E+03  2.78940151005E+03  3.38120941865E+03  1.25000000000E+02  0.00000000000E+00  1.
      -11    1    3    3    0    0  6.00217554669E+02 -1.69374417459E+03 -3.58881497961E+02  1.83243727627E+03  5.09680708085E-04  0.00000000000E+00  1.
       12    1    3    3    0    0  2.73697453464E+01 -1.06901689900E+02 -5.13404721291E+00  1.10469148202E+02  7.18930358009E-06  0.00000000000E+00  1.
       23    2    4    4    0    0 -4.47382253432E+02  1.35954901923E+03  2.06671363540E+03  2.51557782849E+03  9.11161021991E+01  0.00000000000E+00  1.
       22    1    4    4    0    0 -1.80205046584E+02  4.41096845264E+02  7.22687874645E+02  8.65631590156E+02  1.19209289551E-05  0.00000000000E+00  1.
       -1    1    7    7    0  803 -4.32773393621E+02  1.23275126349E+03  1.87922353849E+03  2.28876595471E+03  3.37174788087E-05  0.00000000000E+00  1.
        1    1    7    7  803    0 -1.46088598107E+01  1.26797755739E+02  1.87490096918E+02  2.26811873780E+02  7.59813117026E-06  0.00000000000E+00  1.
</event>
<event>
10  50   1.0000000E+00   1.2500000E+02   7.8125000E-03   1.2380861E-01
       -1   -1    0    0    0  503  0.00000000000E+00  0.00000000000E+00  3.68056355958E+03  3.68056355958E+03  0.00000000000E+00  0.00000000000E+00  1.
        2   -1    0    0  503    0  0.00000000000E+00  0.00000000000E+00 -2.82751603480E+03  2.82751603480E+03  0.00000000000E+00  0.00000000000E+00  1.
       24    2    1    2    0    0 -3.39807884863E+02  1.28985090143E+03  3.38732197140E+03  3.64148636943E+03  8.53703358428E+01  0.00000000000E+00  1.
       25    2    1    2    0    0  3.39807884863E+02 -1.28985090143E+03 -2.53427444662E+03  2.86659322495E+03  1.25000000000E+02  0.00000000000E+00  1.
       -3    1    3    3    0  502 -1.42477966521E+02  5.37523249288E+02  1.29867886071E+03  1.41272714907E+03  2.38418579102E-05  0.00000000000E+00  1.
        4    1    3    3  502    0 -1.97329918342E+02  7.52327652137E+02  2.08864311070E+03  2.22875922036E+03  1.27500000048E+00  0.00000000000E+00  1.
       23    2    4    4    0    0  3.18509418159E+02 -1.11009984276E+03 -2.20813322353E+03  2.49358898212E+03  9.14536412587E+01  0.00000000000E+00  1.
       22    1    4    4    0    0  2.12984667042E+01 -1.79751058666E+02 -3.26141223086E+02  3.73004242833E+02  5.96046447754E-06  0.00000000000E+00  1.
       -2    1    7    7    0  803  1.56119821889E+02 -4.20024652909E+02 -9.17195031188E+02  1.02080401306E+03  1.19209289551E-05  0.00000000000E+00  1.
        2    1    7    7  803    0  1.62389596269E+02 -6.90075189856E+02 -1.29093819235E+03  1.47278496906E+03  2.38418579102E-05  0.00000000000E+00  1.
</event>
<event>
10  50   1.0000000E+00   1.2500000E+02   7.8125000E-03   1.2380861E-01
       -1   -1    0    0    0  503  0.00000000000E+00  0.00000000000E+00  1.91526185135E+03  1.91526185135E+03  0.00000000000E+00  0.00000000000E+00  1.
        2   -1    0    0  503    0  0.00000000000E+00  0.00000000000E+00 -4.50894164272E+03  4.50894164272E+03  0.00000000000E+00  0.00000000000E+00  1.
       24    2    1    2    0    0 -3.43982116597E+01  5.00380581439E+02  1.86636338399E+03  1.93430660335E+03  8.16442980546E+01  0.00000000000E+00  1.
       25    2    1    2    0    0  3.43982116597E+01 -5.00380581439E+02 -4.46004317536E+03  4.48989689072E+03  1.25000000000E+02  0.00000000000E+00  1.
      -13    1    3    3    0    0 -5.82121949211E+01  3.74813202274E+02  1.34006245062E+03  1.39270994071E+03  1.05660014450E-01  0.00000000000E+00  1.
       14    1    3    3    0    0  2.38139832614E+01  1.25567379165E+02  5.26300933373E+02  5.41596662636E+02  1.33280037493E-05  0.00000000000E+00  1.
       23    2    4    4    0    0 -4.99422985603E-01 -3.98497880632E+02 -3.44262019373E+03  3.46679012543E+03  9.05492420135E+01  0.00000000000E+00  1.
       22    1    4    4    0    0  3.48976346453E+01 -1.01882700807E+02 -1.01742298163E+03  1.02310676529E+03  1.19209289551E-05  0.00000000000E+00  1.
       -5    1    7    7    0  803 -3.09131841057E+01 -5.24949301058E+01 -5.52887231692E+02  5.56253715589E+02  4.74999999999E+00  0.00000000000E+00  1.
        5    1    7    7  803    0  3.04137611201E+01 -3.46002950526E+02 -2.88973296204E+03  2.91053640984E+03  4.74999999972E+00  0.00000000000E+00  1.
</event>
<event>
10  50   1.0000000E+00   1.2500000E+02   7.8125000E-03   1.2380861E-01
        2   -1    0    0  503    0  0.00000000000E+00  0.00000000000E+00  1.65694832726E+03  1.65694832726E+03  0.00000000000E+00  0.00000000000E+00  1.
       -1   -1    0    0    0  503  0.00000000000E+00  0.00000000000E+00 -1.80427124000E+03  1.80427124000E+03  0.00000000000E+00  0.00000000000E+00  1.
       24    2    1    2    0    0 -1.66985274944E+03  3.36592483823E+02 -3.50922931412E+02  1.74110891019E+03  8.13057708530E+01  0.00000000000E+00  1.
       25    2    1    2    0    0  1.66985274944E+03 -3.36592483823E+02  2.03600018667E+02  1.72011065707E+03  1.25000000000E+02  0.00000000000E+00  1.
       -3    1    3    3    0  502 -1.49718550498E+03  3.09069141065E+02 -2.90489990836E+02  1.55610815982E+03  1.88486436615E-05  0.00000000000E+00  1.
        4    1    3    3  502    0 -1.72667244455E+02  2.75233427572E+01 -6.04329405755E+01  1.85000750366E+02  1.27500000001E+00  0.00000000000E+00  1.
       23    2    4    4    0    0  9.62110466672E+02 -1.81025821370E+02  1.22982491800E+02  9.91002084275E+02  9.23771598738E+01  0.00000000000E+00  1.
       22    1    4    4    0    0  7.07742282768E+02 -1.55566662453E+02  8.06175268670E+01  7.29108572795E+02  1.46380683067E-05  0.00000000000E+00  1.
       -5    1    7    7    0  803  9.48796451513E+02 -1.79184972730E+02  1.31349338911E+02  9.74472766263E+02  4.75000000001E+00  0.00000000000E+00  1.
        5    1    7    7  803    0  1.33140151585E+01 -1.84084863980E+00 -8.36684711116E+00  1.65293180119E+01  4.75000000000E+00  0.00000000000E+00  1.
</event>
<event>
10  50   1.0000000E+00   1.2500000E+02   7.8125000E-03   1.2380861E-01
       -1   -1    0    0    0  503  0.00000000000E+00  0.00000000000E+00  5.10326933812E+03  5.10326933812E+03  0.00000000000E+00  0.00000000000E+00  1.
        2   -1    0    0  503    0  0.00000000000E+00  0.00000000000E+00 -5.24338110430E+03  5.24338110430E+03  0.00000000000E+00  0.00000000000E+00  1.
       24    2    1    2    0    0  2.59800978666E+03  6.49573210174E+02  4.35480929362E+03  5.11295762178E+03  7.98213713592E+01  0.00000000000E+00  1.
       25    2    1    2    0    0 -2.59800978666E+03 -6.49573210174E+02 -4.49492105980E+03  5.23369282064E+03  1.25000000000E+02  0.00000000000E+00  1.
      -11    1    3    3    0    0  2.03220496385E+03  4.86665319855E+02  3.34782841100E+03  3.94647377011E+03  5.09122765161E-04  0.00000000000E+00  1.
       12    1    3    3    0    0  5.65804822819E+02  1.62907890319E+02  1.00698088262E+03  1.16648385167E+03  0.00000000000E+00  0.00000000000E+00  1.
       23    2    4    4    0    0 -1.60481406523E+03 -3.88941751418E+02 -2.81814196373E+03  3.26748971939E+03  8.86626674939E+01  0.00000000000E+00  1.
       22    1    4    4    0    0 -9.93195721425E+02 -2.60631458756E+02 -1.67677909607E+03  1.96620310125E+03  0.00000000000E+00  0.00000000000E+00  1.
       -3    1    7    7    0  803 -1.87609652471E+02 -1.78500838053E+01 -3.04882336594E+02  3.58426068192E+02  4.21468485109E-06  0.00000000000E+00  1.
        3    1    7    7  803    0 -1.41720441276E+03 -3.71091667613E+02 -2.51325962714E+03  2.90906365120E+03  6.74349576174E-05  0.00000000000E+00  1.
</event>
<event>
10  50   1.0000000E+00   1.2500000E+02   7.8125000E-03   1.2380861E-01
       -2   -1    0    0    0  503  0.00000000000E+00  0.00000000000E+00  1.44172432116E+03  1.44172432116E+03  0.00000000000E+00  0.00000000000E+00  1.
        1   -1    0    0  503    0  0.00000000000E+00  0.00000000000E+00 -1.75669102164E+03  1.75669102164E+03  0.00000000000E+00  0.00000000000E+00  1.
      -24    2    1    2    0    0  4.36678309470E+02  8.15210154319E+02  1.13985646389E+03  1.47000827812E+03  7.99752323398E+01  0.00000000000E+00  1.
       25    2    1    2    0    0 -4.36678309470E+02 -8.15210154319E+02 -1.45482316437E+03  1.72840706468E+03  1.25000000000E+02  0.00000000000E+00  1.
       -2    1    3    3    0  502  4.13696614466E+02  7.20777730645E+02  1.02010601952E+03  1.31578178923E+03  2.66560074985E-05  0.00000000000E+00  1.
        1    1    3    3  502    0  2.29816950039E+01  9.44324236742E+01  1.19750444376E+02  1.54226488887E+02  5.96046447754E-06  0.00000000000E+00  1.
       23    2    4    4    0    0 -3.39709825102E+02 -6.19827227821E+02 -1.16398984856E+03  1.36486698091E+03  9.16566985482E+01  0.00000000000E+00  1.
       22    1    4    4    0    0 -9.69684843679E+01 -1.95382926498E+02 -2.90833315806E+02  3.63540083774E+02  5.96046447754E-06  0.00000000000E+00  1.
       -5    1    7    7    0  803 -2.04478295101E+02 -4.35766218140E+02 -8.45245765910E+02  9.72710921769E+02  4.74999999997E+00  0.00000000000E+00  1.
        5    1    7    7  803    0 -1.35231530001E+02 -1.84061009681E+02 -3.18744082654E+02  3.92156059137E+02  4.75000000000E+00  0.00000000000E+00  1.
</event>
<event>
10  50   1.0000000E+00   1.2500000E+02   7.8125000E-03   1.2380861E-01
       -2   -1    0    0    0  503  0.00000000000E+00  0.00000000000E+00  2.49793004145E+03  2.49793004145E+03  0.00000000000E+00  0.00000000000E+00  1.
        1   -1    0    0  503    0  0.00000000000E+00  0.00000000000E+00 -2.03532252222E+03  2.03532252222E+03  0.00000000000E+00  0.00000000000E+00  1.
      -24    2    1    2    0    0 -2.20758823972E+03 -1.95295193811E+02 -1.72642720896E+02  2.22441001458E+03  8.12917892809E+01  0.00000000000E+00  1.
       25    2    1    2    0    0  2.20758823972E+03  1.95295193811E+02  6.35250240126E+02  2.30884254909E+03  1.25000000000E+02  0.00000000000E+00  1.
       -4    1    3    3    0  502 -4.33642474773E+02 -4.09811893743E+01 -1.71310339178E+00  4.35579859679E+02  1.27499999994E+00  0.00000000000E+00  1.
        3    1    3    3  502    0 -1.77394576495E+03 -1.54314004437E+02 -1.70929617504E+02  1.78883015490E+03  5.18337700693E-05  0.00000000000E+00  1.
       23    2    4    4    0    0  1.75445386814E+02  1.49881737712E+01  8.27706218545E+01  1.95232148686E+02  1.60899636693E+01  0.00000000000E+00  1.
       22    1    4    4    0    0  2.03214285291E+03  1.80307020040E+02  5.52479618272E+02  2.11361040040E+03  1.19209289551E-05  0.00000000000E+00  1.
       -4    1    7    7    0  803  6.71622295290E+01  7.49357533058E+00  2.35315609982E+01  7.15700966504E+01  1.27500000000E+00  0.00000000000E+00  1.
        4    1    7    7  803    0  1.08283157285E+02  7.49459844061E+00  5.92390608563E+01  1.23662052035E+02  1.27500000000E+00  0.00000000000E+00  1.
</event>
<event>
10  50   1.0000000E+00   1.2500000E+02   7.8125000E-03   1.2380861E-01
        1   -1    0    0  503    0  0.00000000000E+00  0.00000000000E+00  2.72589815613E+03  2.72589815613E+03  0.00000000000E+00  0.00000000000E+00  1.
       -2   -1    0    0    0  503  0.00000000000E+00  0.00000000000E+00 -2.30853841236E+03  2.30853841236E+03  0.00000000000E+00  0.00000000000E+00  1.
      -24    2    1    2    0    0  1.98353430805E+03 -1.52730638055E+03  3.30697072092E+02  2.52640775088E+03  7.93879019668E+01  0.00000000000E+00  1.
       25    2    1    2    0    0 -1.98353430805E+03  1.52730638055E+03  8.66626716745E+01  2.50802881760E+03  1.25000000000E+02  0.00000000000E+00  1.
       -4    1    3    3    0  502  1.18756882430E+03 -9.52828485580E+02  2.25245207489E+02  1.53913575246E+03  1.27499999973E+00  0.00000000000E+00  1.
        3    1    3    3  502    0  7.95965483748E+02 -5.74477894969E+02  1.05451864603E+02  9.87271998425E+02  8.02452088465E-06  0.00000000000E+00  1.
       23    2    4    4    0    0 -3.73896465862E+02  3.37600019537E+02  4.79427804888E+01  5.06071166097E+02  6.09709588311E+00  0.00000000000E+00  1.
       22    1    4    4    0    0 -1.60963784219E+03  1.18970636101E+03  3.87198911857E+01  2.00195765150E+03  2.29581876667E-05  0.00000000000E+00  1.
      -13    1    7    7    0    0 -2.72310915089E+02  2.45043950148E+02  3.75167058284E+01  3.68248946178E+02  1.05660000007E-01  0.00000000000E+00  1.
       13    1    7    7    0    0 -1.01585550773E+02  9.25560693891E+01  1.04260746604E+01  1.37822219919E+02  1.05660000037E-01  0.00000000000E+00  1.
</event>
<event>
10  50   1.0000000E+00   1.2500000E+02   7.8125000E-03   1.2380861E-01
       -2   -1    0    0    0  503  0.00000000000E+00  0.00000000000E+00  5.42184695364E+03  5.42184695364E+03  0.00000000000E+00  0.00000000000E+00  1.
        1   -1    0    0  503    0  0.00000000000E+00  0.00000000000E+00 -3.02255154285E+03  3.02255154285E+03  0.00000000000E+00  0.00000000000E+00  1.
      -24    2    1    2    0    0 -2.54665293277E+03 -2.64467308915E+03 -5.75698695713E+02  3.71724799728E+03  8.22604190468E+01  0.00000000000E+00  1.
       25    2    1    2    0    0  2.54665293277E+03  2.64467308915E+03  2.97499410651E+03  4.72715049922E+03  1.25000000000E+02  0.00000000000E+00  1.
      -14    1    3    3    0    0 -5.94366266629E+02 -6.63552487097E+02 -1.54383898970E+02  9.04105939755E+02  1.65932308520E-05  0.00000000000E+00  1.
       13    1    3    3    0    0 -1.95228666615E+03 -1.98112060205E+03 -4.21314796743E+02  2.81314205752E+03  1.05660020334E-01  0.00000000000E+00  1.
       23    2    4    4    0    0  1.66848858804E+03  1.73045632329E+03  1.97952447189E+03  3.11534259976E+03  9.22449120000E+01  0.00000000000E+00  1.
       22    1    4    4    0    0  8.78164344725E+02  9.14216765855E+02  9.95469634625E+02  1.61180789946E+03  1.19209289551E-05  0.00000000000E+00  1.
      -12    1    7    7    0    0  1.06806168657E+03  1.08046574277E+03  1.19847714907E+03  1.93507350363E+03  4.46040318820E-05  0.00000000000E+00  1.
       12    1    7    7    0    0  6.00426901480E+02  6.49990580529E+02  7.81047322814E+02  1.18026909613E+03  2.23020159410E-05  0.00000000000E+00  1.
</event>
<event>
10  50   1.0000000E+00   1.2500000E+02   7.8125000E-03   1.2380861E-01
       -2   -1    0    0    0  503  0.00000000000E+00  0.00000000000E+00  2.05082558436E+03  2.05082558436E+03  0.00000000000E+00  0.00000000000E+00  1.
        1   -1    0    0  503    0  0.00000000000E+00  0.00000000000E+00 -2.62254834121E+03  2.62254834121E+03  0.00000000000E+00  0.00000000000E+00  1.
      -24    2    1    2    0    0 -1.46541206390E+03  1.78972818981E+03 -1.55103948113E+02  2.31970535455E+03  8.01011035558E+01  0.00000000000E+00  1.
       25    2    1    2    0    0  1.46541206390E+03 -1.78972818981E+03 -4.16618808735E+02  2.35366857102E+03  1.25000000000E+02  0.00000000000E+00  1.
       -2    1    3    3    0  502 -3.26506970565E+02  3.86941236131E+02 -1.65468102552E+00  5.06293452471E+02  2.83011369899E-06  0.00000000000E+00  1.
        1    1    3    3  502    0 -1.13890509334E+03  1.40278695368E+03 -1.53449267088E+02  1.81341190208E+03  3.71633884708E-05  0.00000000000E+00  1.
       23    2    4    4    0    0  9.26243704271E+02 -1.09653715280E+03 -2.44452679853E+02  1.45876214588E+03  8.89312003920E+01  0.00000000000E+00  1.
       22    1    4    4    0    0  5.39168359629E+02 -6.93191037015E+02 -1.72166128882E+02  8.94906425140E+02  1.39785282607E-05  0.00000000000E+00  1.
      -14    1    7    7    0    0  5.67561194504E+02 -7.36660577092E+02 -1.50181615992E+02  9.41992055768E+02  9.18569267239E-06  0.00000000000E+00  1.
       14    1    7    7    0    0  3.58682509768E+02 -3.59876575703E+02 -9.42710638614E+01  5.16770090112E+02  9.48304091495E-06  0.00000000000E+00  1.
</event>
<event>
10  50   1.0000000E+00   1.2500000E+02   7.8125000E-03   1.2380861E-01
       -1   -1    0    0    0  503  0.00000000000E+00  0.00000000000E+00  1.60912570063E+03  1.60912570063E+03  0.00000000000E+00  0.00000000000E+00  1.
        2   -1    0    0  503    0  0.00000000000E+00  0.00000000000E+00 -4.47909944501E+03  4.47909944501E+03  0.00000000000E+00  0.00000000000E+00  1.
       24    2    1    2    0    0 -1.94684927887E+03 -1.83334679641E+03 -1.19400600379E+03  2.92976421379E+03  8.05321103133E+01  0.00000000000E+00  1.
       25    2    1    2    0    0  1.94684927887E+03  1.83334679641E+03 -1.67596774059E+03  3.15846093185E+03  1.25000000000E+02  0.00000000000E+00  1.
       -1    1    3    3    0  502 -1.17450229248E+03 -1.08171578722E+03 -6.74106566042E+02  1.73320060632E+03  1.68587394044E-05  0.00000000000E+00  1.
        2    1    3    3  502    0 -7.72346986389E+02 -7.51631009185E+02 -5.19899437746E+02  1.19656360747E+03  0.00000000000E+00  0.00000000000E+00  1.
       23    2    4    4    0    0  1.67195622277E+03  1.59119683545E+03 -1.49179611330E+03  2.74843412275E+03  3.30076265684E+01  0.00000000000E+00  1.
       22    1    4    4    0    0  2.74893056103E+02  2.42149960959E+02 -1.84171627285E+02  4.10026809103E+02  1.13483862666E-05  0.00000000000E+00  1.
       -2    1    7    7    0  803  9.26178641863E+01  8.31862573117E+01 -7.27828037241E+01  1.44205959273E+02  1.05367121277E-06  0.00000000000E+00  1.
        2    1    7    7  803    0  1.57933835858E+03  1.50801057814E+03 -1.41901330958E+03  2.60422816347E+03  3.37174788087E-05  0.00000000000E+00  1.
</event>
<event>
10  50   1.0000000E+00   1.2500000E+02   7.8125000E-03   1.2380861E-01
       -1   -1    0    0    0  503  0.00000000000E+00  0.00000000000E+00  4.30730939342E+03  4.30730939342E+03  0.00000000000E+00  0.00000000000E+00  1.
        2   -1    0    0  503    0  0.00000000000E+00  0.00000000000E+00 -2.70045972584E+03  2.70045972584E+03  0.00000000000E+00  0.00000000000E+00  1.
       24    2    1    2    0    0 -1.31263297209E+03 -3.97872276222E+02 -2.40297169507E+03  2.76800497158E+03  7.91889373899E+01  0.00000000000E+00  1.
       25    2    1    2    0    0  1.31263297209E+03  3.97872276222E+02  4.00982136265E+03  4.23976414768E+03  1.25000000000E+02  0.00000000000E+00  1.
       -3    1    3    3    0  502 -9.21083161202E+02 -2.89720187023E+02 -1.61996400100E+03  1.88589908032E+03  2.38418579102E-05  0.00000000000E+00  1.
        4    1    3    3  502    0 -3.91549810884E+02 -1.08152089199E+02 -7.83007694064E+02  8.82105891257E+02  1.27499999998E+00  0.00000000000E+00  1.
       23    2    4    4    0    0  1.26525032538E+03  3.69962820648E+02  3.90258696813E+03  4.11925162431E+03  1.78332855313E+01  0.00000000000E+00  1.
       22    1    4    4    0    0  4.73826467069E+01  2.79094555738E+01  1.07234394522E+02  1.20512523366E+02  5.16191365590E-06  0.00000000000E+00  1.
      -13    1    7    7    0    0  9.37781784216E+02  2.67470899869E+02  2.90051477476E+03  3.06005903977E+03  1.05660002345E-01  0.00000000000E+00  1.
       13    1    7    7    0    0  3.27468541167E+02  1.02491920779E+02  1.00207219337E+03  1.05919258455E+03  1.05660001000E-01  0.00000000000E+00  1.
</event>
<event>
10  50   1.0000000E+00   1.2500000E+02   7.8125000E-03   1.2380861E-01
       -2   -1    0    0    0  503  0.00000000000E+00  0.00000000000E+00  1.66146290812E+03  1.66146290812E+03  0.00000000000E+00  0.00000000000E+00  1.
        1   -1    0    0  503    0  0.00000000000E+00  0.00000000000E+00 -5.24495364545E+03  5.24495364545E+03  0.00000000000E+00  0.00000000000E+00  1.
      -24    2    1    2    0    0  1.31035844328E+03 -2.56940306649E+03 -2.51658573485E+03  3.82862795585E+03  7.94788999151E+01  0.00000000000E+00  1.
       25    2    1    2    0    0 -1.31035844328E+03  2.56940306649E+03 -1.06690500247E+03  3.07778859772E+03  1.25000000000E+02  0.00000000000E+00  1.
       -2    1    3    3    0  502  3.40313738876E+02 -6.22538452066E+02 -5.82741674280E+02  9.18126039338E+02  2.23020159410E-05  0.00000000000E+00  1.
        1    1    3    3  502    0  9.70044704404E+02 -1.94686461442E+03 -1.93384406057E+03  2.91050191651E+03  5.84003863998E-05  0.00000000000E+00  1.
       23    2    4    4    0    0 -1.29466561706E+03  2.52697609773E+03 -1.03423388618E+03  3.02198793184E+03  3.16870693727E+01  0.00000000000E+00  1.
       22    1    4    4    0    0 -1.56928262215E+01  4.24269687558E+01 -3.26711162941E+01  5.58006658788E+01  3.61180294858E-06  0.00000000000E+00  1.
       -2    1    7    7    0  803 -8.87417259193E+02  1.76047486809E+03 -7.10893221158E+02  2.09574576821E+03  8.42936970218E-06  0.00000000000E+00  1.
        2    1    7    7  803    0 -4.07248357866E+02  7.66501229648E+02 -3.23340665018E+02  9.26242163632E+02  1.51962623405E-05  0.00000000000E+00  1.
</event>
<event>
10  50   1.0000000E+00   1.2500000E+02   7.8125000E-03   1.2380861E-01
       -2   -1    0    0    0  503  0.00000000000E+00  0.00000000000E+00  9.06453155170E+02  9.06453155170E+02  0.00000000000E+00  0.00000000000E+00  1.
        1   -1    0    0  503    0  0.00000000000E+00  0.00000000000E+00 -3.29003610358E+03  3.29003610358E+03  0.00000000000E+00  0.00000000000E+00  1.
      -24    2    1    2    0    0  1.16078494699E+03  1.24383165357E+03 -8.54253235818E+02  1.90541674890E+03  7.95331410496E+01  0.00000000000E+00  1.
       25    2    1    2    0    0 -1.16078494699E+03 -1.24383165357E+03 -1.52932971260E+03  2.29107250985E+03  1.25000000000E+02  0.00000000000E+00  1.
      -12    1    3    3    0    0  2.03274682551E+02  2.61996709292E+02 -1.56239446221E+02  3.66570098073E+02  8.42936970218E-06  0.00000000000E+00  1.
       11    1    3    3    0    0  9.57510264437E+02  9.81834944274E+02 -6.98013789597E+02  1.53884665083E+03  5.10098764785E-04  0.00000000000E+00  1.
       23    2    4    4    0    0 -5.00524254896E+02 -5.40519399748E+02 -6.45325929099E+02  9.82617314918E+02  8.00342524542E+01  0.00000000000E+00  1.
       22    1    4    4    0    0 -6.60260692094E+02 -7.03312253822E+02 -8.84003783501E+02  1.30845519493E+03  2.06476546236E-05  0.00000000000E+00  1.
       -5    1    7    7    0  803 -2.80899628644E+02 -3.40214460888E+02 -4.24697034225E+02  6.12405596112E+02  4.75000000002E+00  0.00000000000E+00  1.
        5    1    7    7  803    0 -2.19624626252E+02 -2.00304938861E+02 -2.20628894874E+02  3.70211718806E+02  4.75000000001E+00  0.00000000000E+00  1.
</event>
<event>
10  50   1.0000000E+00   1.2500000E+02   7.8125000E-03   1.2380861E-01
        2   -1    0    0  503    0  0.00000000000E+00  0.00000000000E+00  4.34314230997E+03  4.34314230997E+03  0.00000000000E+00  0.00000000000E+00  1.
       -3   -1    0    0    0  503  0.00000000000E+00  0.00000000000E+00 -1.32926245327E+03  1.32926245327E+03  0.00000000000E+00  0.00000000000E+00  1.
       24    2    1    2    0    0  1.13526390945E+03  8.55384952179E+01 -9.88293616862E+02  1.50957417687E+03  7.71293982894E+01  0.00000000000E+00  1.
       25    2    1    2    0    0 -1.13526390945E+03 -8.55384952179E+01  4.00217347356E+03  4.16283058636E+03  1.25000000000E+02  0.00000000000E+00  1.
       -1    1    3    3    0  502  8.28329934652E+02  3.74120527690E+01 -7.49684193626E+02  1.11783564646E+03  1.46000966000E-05  0.00000000000E+00  1.
        2    1    3    3  502    0  3.06933974799E+02  4.81264424489E+01 -2.38609423237E+02  3.91738530408E+02  8.94069671631E-06  0.00000000000E+00  1.
       23    2    4    4    0    0 -9.11620235386E+02 -9.29749320888E+01  3.24359655490E+03  3.37193822007E+03  9.67106891945E+01  0.00000000000E+00  1.
       22    1    4    4    0    0 -2.23643674064E+02  7.43643687091E+00  7.58576918656E+02  7.90892366293E+02  0.00000000000E+00  0.00000000000E+00  1.
      -13    1    7    7    0    0 -3.38123025890E+02 -5.71040802639E+01  1.36586146517E+03  1.40824912918E+03  1.05660002345E-01  0.00000000000E+00  1.
       13    1    7    7    0    0 -5.73497209496E+02 -3.58708518249E+01  1.87773508973E+03  1.96368909089E+03  1.05659988896E-01  0.00000000000E+00  1.
</event>
<event>
10  50   1.0000000E+00   1.2500000E+02   7.8125000E-03   1.2380861E-01
        1   -1    0    0  503    0  0.00000000000E+00  0.00000000000E+00  1.89013141153E+03  1.89013141153E+03  0.00000000000E+00  0.00000000000E+00  1.
       -2   -1    0    0    0  503  0.00000000000E+00  0.00000000000E+00 -1.74741799074E+03  1.74741799074E+03  0.00000000000E+00  0.00000000000E+00  1.
      -24    2    1    2    0    0 -1.40403283423E+03  6.68379449556E+02 -8.64309043184E+02  1.78073532133E+03  7.71289460631E+01  0.00000000000E+00  1.
       25    2    1    2    0    0  1.40403283423E+03 -6.68379449556E+02  1.00702246398E+03  1.85681408094E+03  1.25000000000E+02  0.00000000000E+00  1.
      -12    1    3    3    0    0 -1.25332921441E+03  6.08084243299E+02 -7.97712048693E+02  1.60528660347E+03  8.42936970218E-06  0.00000000000E+00  1.
       11    1    3    3    0    0 -1.50703619820E+02  6.02952062565E+01 -6.65969944913E+01  1.75448717863E+02  5.11019132348E-04  0.00000000000E+00  1.
       23    2    4    4    0    0  8.52143565453E+02 -3.51842707174E+02  6.24812883921E+02  1.11461367852E+03  4.50617985376E+01  0.00000000000E+00  1.
       22    1    4    4    0    0  5.51889268777E+02 -3.16536742382E+02  3.82209580059E+02  7.42200402424E+02  4.21468485109E-06  0.00000000000E+00  1.
      -15    1    7    7    0    0  1.46711638011E+02 -7.86699659822E+01  1.17693618765E+02  2.03882841828E+02  1.77680000001E+00  0.00000000000E+00  1.
       15    1    7    7    0    0  7.05431927443E+02 -2.73172741192E+02  5.07119265156E+02  9.10730836689E+02  1.77679999987E+00  0.00000000000E+00  1.
</event>
<event>
10  50   1.0000000E+00   1.2500000E+02   7.8125000E-03   1.2380861E-01
       -2   -1    0    0    0  503  0.00000000000E+00  0.00000000000E+00  3.03209944345E+03  3.03209944345E+03  0.00000000000E+00  0.00000000000E+00  1.
        1   -1    0    0  503    0  0.00000000000E+00  0.00000000000E+00 -2.37429066717E+03  2.37429066717E+03  0.00000000000E+00  0.00000000000E+00  1.
      -24    2    1    2    0    0  1.16000306553E+03  1.68734836644E+03 -1.41485929846E+03  2.49017174263E+03  7.98551914068E+01  0.00000000000E+00  1.
       25    2    1    2    0    0 -1.16000306553E+03 -1.68734836644E+03  2.07266807474E+03  2.91621836799E+03  1.25000000000E+02  0.00000000000E+00  1.
      -12    1    3    3    0    0  4.09184571843E+02  6.56023676482E+02 -5.12547877291E+02  9.27633766341E+02  2.30847796572E-05  0.00000000000E+00  1.
       11    1    3    3    0    0  7.50818493686E+02  1.03132468996E+03 -9.02311421169E+02  1.56253797629E+03  5.08843564282E-04  0.00000000000E+00  1.
       23    2    4    4    0    0 -5.92058752747E+02 -9.41997101644E+02  1.18471478988E+03  1.62526124769E+03  5.73442914364E+00  0.00000000000E+00  1.
       22    1    4    4    0    0 -5.67944312783E+02 -7.45351264796E+02  8.87953284861E+02  1.29095712030E+03  1.68587394044E-05  0.00000000000E+00  1.
       -4    1    7    7    0  803 -5.07431773843E+01 -8.17134015035E+01  1.01209876265E+02  1.39631710993E+02  1.27500000000E+00  0.00000000000E+00  1.
        4    1    7    7  803    0 -5.41315575363E+02 -8.60283700140E+02  1.08350491361E+03  1.48562953670E+03  1.27500000020E+00  0.00000000000E+00  1.
</event>
<event>
10  50   1.0000000E+00   1.2500000E+02   7.8125000E-03   1.2380861E-01
        2   -1    0    0  503    0  0.00000000000E+00  0.00000000000E+00  2.81454396155E+03  2.81454396155E+03  0.00000000000E+00  0.00000000000E+00  1.
       -1   -1    0    0    0  503  0.00000000000E+00  0.00000000000E+00 -4.66465525078E+03  4.66465525078E+03  0.00000000000E+00  0.00000000000E+00  1.
       24    2    1    2    0    0  2.76597559140E+03  1.33557322139E+03  1.05615803113E+03  3.24878514697E+03  6.89807406333E+01  0.00000000000E+00  1.
       25    2    1    2    0    0 -2.76597559140E+03 -1.33557322139E+03 -2.90626932036E+03  4.23041406536E+03  1.25000000000E+02  0.00000000000E+00  1.
      -11    1    3    3    0    0  2.16018902186E+02  1.19018291317E+02  9.89299575030E+01  2.65737946597E+02  5.10892564678E-04  0.00000000000E+00  1.
       12    1    3    3    0    0  2.54995668921E+03  1.21655493007E+03  9.57228073631E+02  2.98304720038E+03  3.15398134120E-05  0.00000000000E+00  1.
       23    2    4    4    0    0 -1.95073647507E+03 -9.67078954253E+02 -2.08402453736E+03  3.01530529456E+03  9.10672726476E+01  0.00000000000E+00  1.
       22    1    4    4    0    0 -8.15239116331E+02 -3.68494267137E+02 -8.22244782997E+02  1.21510877080E+03  0.00000000000E+00  0.00000000000E+00  1.
       -3    1    7    7    0  803 -1.32246238459E+03 -6.86708332226E+02 -1.38126857681E+03  2.03184103057E+03  0.00000000000E+00  0.00000000000E+00  1.
        3    1    7    7  803    0 -6.28274090474E+02 -2.80370622028E+02 -7.02755960552E+02  9.83464263992E+02  8.42936970218E-06  0.00000000000E+00  1.
</event>
<event>
10  50   1.0000000E+00   1.2500000E+02   7.8125000E-03   1.2380861E-01
        1   -1    0    0  503    0  0.00000000000E+00  0.00000000000E+00  4.34415388661E+03  4.34415388661E+03  0.00000000000E+00  0.00000000000E+00  1.
       -2   -1    0    0    0  503  0.00000000000E+00  0.00000000000E+00 -2.86266225337E+03  2.86266225337E+03  0.00000000000E+00  0.00000000000E+00  1.
      -24    2    1    2    0    0 -1.67326625931E+02 -3.50303066050E+03  3.78070146042E+02  3.52817699125E+03  7.66409685708E+01  0.00000000000E+00  1.
       25    2    1    2    0    0  1.67326625931E+02  3.50303066050E+03  1.10342148720E+03  3.67863914873E+03  1.25000000000E+02  0.00000000000E+00  1.
      -14    1    3    3    0    0 -5.90982116413E+01 -6.23233244835E+02  6.58232468342E+01  6.29479924946E+02  1.42343142439E-05  0.00000000000E+00  1.
       13    1    3    3    0    0 -1.08228414290E+02 -2.87979741567E+03  3.12246899208E+02  2.89869706630E+03  1.05659993014E-01  0.00000000000E+00  1.
       23    2    4    4    0    0  1.23216554819E+02  3.09448500056E+03  9.72806781203E+02  3.24746000260E+03  9.28638621895E+01  0.00000000000E+00  1.
       22    1    4    4    0    0  4.41100711119E+01  4.08545659943E+02  1.30614705997E+02  4.31179146126E+02  5.16191365590E-06  0.00000000000E+00  1.
       -5    1    7    7    0  803  1.28245128837E+00  2.11101810030E+02  4.37915469668E+01  2.15652222259E+02  4.75000000001E+00  0.00000000000E+00  1.
        5    1    7    7  803    0  1.21934103531E+02  2.88338319053E+03  9.29015234236E+02  3.03180778035E+03  4.74999999985E+00  0.00000000000E+00  1.
</event>
<event>
10  50   1.0000000E+00   1.2500000E+02   7.8125000E-03   1.2380861E-01
       -1   -1    0    0    0  503  0.00000000000E+00  0.00000000000E+00  3.99820441574E+03  3.99820441574E+03  0.00000000000E+00  0.00000000000E+00  1.
        2   -1    0    0  503    0  0.00000000000E+00  0.00000000000E+00 -4.59163869932E+03  4.59163869932E+03  0.00000000000E+00  0.00000000000E+00  1.
       24    2    1    2    0    0  1.47931842763E+03 -7.35342472818E+02 -4.25812211334E+03  4.56806820189E+03  8.08183291350E+01  0.00000000000E+00  1.
       25    2    1    2    0    0 -1.47931842763E+03  7.35342472818E+02  3.66468782975E+03  4.02177491317E+03  1.25000000000E+02  0.00000000000E+00  1.
      -11    1    3    3    0    0  6.09594997422E+01 -3.71955547711E+01 -1.45745376130E+02  1.62299983263E+02  5.10972963225E-04  0.00000000000E+00  1.
       12    1    3    3    0    0  1.41835892789E+03 -6.98146918047E+02 -4.11237673721E+03  4.40576821863E+03  6.74349576174E-05  0.00000000000E+00  1.
       23    2    4    4    0    0 -7.30575954248E+02  4.22363515740E+02  1.94665148027E+03  2.12171701480E+03  9.94690431046E+00  0.00000000000E+00  1.
       22    1    4    4    0    0 -7.48742473382E+02  3.12978957078E+02  1.71803634948E+03  1.90005789837E+03  3.37174788087E-05  0.00000000000E+00  1.
       -4    1    7    7    0  803 -6.00086827875E+02  3.44866781059E+02  1.58862681505E+03  1.73285143067E+03  1.27499999981E+00  0.00000000000E+00  1.
        4    1    7    7  803    0 -1.30489126373E+02  7.74967346812E+01  3.58024665221E+02  3.88865584129E+02  1.27499999998E+00  0.00000000000E+00  1.
</event>
<event>
10  50   1.0000000E+00   1.2500000E+02   7.8125000E-03   1.2380861E-01
       -2   -1    0    0    0  503  0.00000000000E+00  0.00000000000E+00  1.92615414085E+03  1.92615414085E+03  0.00000000000E+00  0.00000000000E+00  1.
        1   -1    0    0  503    0  0.00000000000E+00  0.00000000000E+00 -2.61632451491E+03  2.61632451491E+03  0.00000000000E+00  0.00000000000E+00  1.
      -24    2    1    2    0    0 -1.49750375689E+03 -9.03166459429E+02 -1.76501794482E+03  2.48598906044E+03  8.14009076382E+01  0.00000000000E+00  1.
       25    2    1    2    0    0  1.49750375689E+03  9.03166459429E+02  1.07484757076E+03  2.05648959533E+03  1.25000000000E+02  0.00000000000E+00  1.
       -4    1    3    3    0  502 -5.39956357809E+02 -2.94987446970E+02 -5.80331641300E+02  8.45787740351E+02  1.27499999981E+00  0.00000000000E+00  1.
        3    1    3    3  502    0 -9.57547399077E+02 -6.08179012460E+02 -1.18468630352E+03  1.64020132009E+03  0.00000000000E+00  0.00000000000E+00  1.
       23    2    4    4    0    0  9.11963349469E+02  5.26630261150E+02  6.47742512017E+02  1.23975474941E+03  9.16782093813E+01  0.00000000000E+00  1.
       22    1    4    4    0    0  5.85540407421E+02  3.76536198279E+02  4.27105058743E+02  8.16734845921E+02  8.42936970218E-06  0.00000000000E+00  1.
       -2    1    7    7    0  803  5.66645023597E+02  2.85280619192E+02  4.20027256926E+02  7.60851175339E+02  0.00000000000E+00  0.00000000000E+00  1.
        2    1    7    7  803    0  3.45318325872E+02  2.41349641958E+02  2.27715255091E+02  4.78903574070E+02  1.26440545533E-05  0.00000000000E+00  1.
</event>
<event>
10  50   1.0000000E+00   1.2500000E+02   7.8125000E-03   1.2380861E-01
       -2   -1    0    0    0  503  0.00000000000E+00  0.00000000000E+00  1.89271380667E+03  1.89271380667E+03  0.00000000000E+00  0.00000000000E+00  1.
        1   -1    0    0  503    0  0.00000000000E+00  0.00000000000E+00 -4.56319673159E+03  4.56319673159E+03  0.00000000000E+00  0.00000000000E+00  1.
      -24    2    1    2    0    0  2.51142300392E+03 -1.05872948105E+03 -1.32896848502E+02  2.72990440383E+03  8.10114994126E+01  0.00000000000E+00  1.
       25    2    1    2    0    0 -2.51142300392E+03  1.05872948105E+03 -2.53758607642E+03  3.72600613444E+03  1.25000000000E+02  0.00000000000E+00  1.
       -4    1    3    3    0  502  2.36800619043E+03 -1.01116822885E+03 -1.11254118557E+02  2.57726475347E+03  1.27500000020E+00  0.00000000000E+00  1.
        3    1    3    3  502    0  1.43416813483E+02 -4.75612521970E+01 -2.16427299456E+01  1.52639650353E+02  2.80016965761E-06  0.00000000000E+00  1.
       23    2    4    4    0    0 -2.25611778615E+03  9.43036442363E+02 -2.24571698433E+03  3.32134182870E+03  9.31749578415E+01  0.00000000000E+00  1.
       22    1    4    4    0    0 -2.55305217770E+02  1.15693038687E+02 -2.91869092089E+02  4.04664305738E+02  4.21468485109E-06  0.00000000000E+00  1.
       -4    1    7    7    0  803 -4.89441182588E+02  1.79722437600E+02 -4.37951207205E+02  6.80922691138E+02  1.27499999988E+00  0.00000000000E+00  1.
        4    1    7    7  803    0 -1.76667660356E+03  7.63314004763E+02 -1.80776577713E+03  2.64041913756E+03  1.27499999914E+00  0.00000000000E+00  1.
</event>
</LesHouchesEvents>
