<LesHouchesEvents version="1.0">
<!--
Output from the JHUGenerator v7.4.0 described in arXiv:1001.3396 [hep-ph], arXiv:1208.4018 [hep-ph], arXiv:1309.4819 [hep-ph], arXiv:1606.03107 [hep-ph]
   
   Command line: ./JHUGen Seed=765543533 VegasNc0=100000 ReadLHE=compare_to_reference/WH.lhe DataFile=compare_to_reference/WH_Zgamma DecayMode1=9 DecayMode2=7 ghg2=0.383432074687728,0.918260989345657 ghg3=6294.49296087723,2253.12941717723 ghg4=0.335495485382528,0.17285803562226 ghz1=0.154934976270359,0.453918144016304 ghz2=0.469297059144414,0.745302300947002 ghz3=3947.40921062637,3597.4885961919 ghz4=0.177791270766536,0.920170534486048 ghzgs2=0.0240331049939919,0.232175381101053 ghzgs3=0.331962910170583,0.0450183240308457 ghzgs4=0.808286540247172,0.133184346613754 ghgsgs2=0.530394804029869,0.211218112389125 ghgsgs3=0.914978695198138,0.055650585081425 ghgsgs4=0.694524307167701,0.511424456076726 ghz1_prime=0.143354267833606,0.0910761280837012 ghz1_prime2=7416.7007267243,4861.35525489789 ghz1_prime3=4431.44656075298,4436.48625894176 ghz1_prime4=2441.69123517064,6946.16318931911 ghz1_prime5=78314042.889773,69465359.939181 ghz1_prime6=51233058.8130761,29537873.5850789 ghz1_prime7=47832192.9001564,59559649.9
   
   Input Parameter:
    Collider: P-P, sqrt(s)=13000.00
    Resonance: spin=0, mass= 125.00 width=   0.00407
               (This is ReadLHEFile mode. Resonance mass/width are read from LHE input parameters.)
    DecayMode1: 9  DecayMode2: 7
    Z boson: mass=91.188, width=2.4952
      m(gammastar) >=     4.00 GeV
    Random seed:   765543533
    To reproduce results using this seed, JHUGen should be compiled with the same compiler:
      GNU Fortran (GCC) 6.3.0
    Interference: T
    Intermediate off-shell photons: T
    
    Spin-0-VV couplings: 
      generate_as=F
      kappa_top=  0.10000000E+01  0.00000000E+00i
      kappa_bot=  0.10000000E+01  0.00000000E+00i
      ghg2=  0.38343207E+00  0.91826099E+00i
      ghg3=  0.62944930E+04  0.22531294E+04i
      ghg4=  0.33549549E+00  0.17285804E+00i
      ghz1=  0.15493498E+00  0.45391814E+00i
      ghz2=  0.46929706E+00  0.74530230E+00i
      ghz3=  0.39474092E+04  0.35974886E+04i
      ghz4=  0.17779127E+00  0.92017053E+00i
      ghz1_prime=   0.14335427E+00  0.91076128E-01i,    Lambda_z1=  1.0000E+04
      ghz1_prime2=  0.74167007E+04  0.48613553E+04i,    Lambda_z1=  1.0000E+04
      ghz1_prime3=  0.44314466E+04  0.44364863E+04i,    Lambda_z1=  1.0000E+04
      ghz1_prime4=  0.24416912E+04  0.69461632E+04i,    Lambda_z1=  1.0000E+04
      ghz1_prime5=  0.78314043E+08  0.69465360E+08i,    Lambda_z1=  1.0000E+04
      ghz1_prime6=  0.51233059E+08  0.29537874E+08i,    Lambda_z1=  1.0000E+04
      ghz1_prime7=  0.47832193E+08  0.59559650E+08i,    Lambda_z1=  1.0000E+04
      ghz2_prime=   0.57465793E+00  0.41992191E+00i,    Lambda_z2=  1.0000E+04
      ghz2_prime2=  0.43854587E+04  0.61761246E+04i,    Lambda_z2=  1.0000E+04
      ghz2_prime3=  0.45921696E+04  0.75499391E+04i,    Lambda_z2=  1.0000E+04
      ghz2_prime4=  0.84715906E+04  0.71997238E+04i,    Lambda_z2=  1.0000E+04
      ghz2_prime5=  0.19558280E+08  0.94843889E+08i,    Lambda_z2=  1.0000E+04
      ghz2_prime6=  0.23209661E+08  0.67617823E+08i,    Lambda_z2=  1.0000E+04
      ghz2_prime7=  0.70059904E+07  0.53660191E+08i,    Lambda_z2=  1.0000E+04
      ghz3_prime=   0.40457065E+04  0.19693161E+04i,    Lambda_z3=  1.0000E+04
      ghz3_prime2=  0.33402456E+08  0.37615919E+07i,    Lambda_z3=  1.0000E+04
      ghz3_prime3=  0.44855080E+08  0.12184926E+08i,    Lambda_z3=  1.0000E+04
      ghz3_prime4=  0.27878602E+08  0.78237524E+08i,    Lambda_z3=  1.0000E+04
      ghz3_prime5=  0.93246434E+12  0.63158085E+12i,    Lambda_z3=  1.0000E+04
      ghz3_prime6=  0.35811562E+12  0.41077746E+12i,    Lambda_z3=  1.0000E+04
      ghz3_prime7=  0.62298148E+12  0.61827857E+12i,    Lambda_z3=  1.0000E+04
      ghz4_prime=   0.41653395E+00  0.33115593E+00i,    Lambda_z4=  1.0000E+04
      ghz4_prime2=  0.75883756E+04  0.39234327E+04i,    Lambda_z4=  1.0000E+04
      ghz4_prime3=  0.89560755E+04  0.93020315E+04i,    Lambda_z4=  1.0000E+04
      ghz4_prime4=  0.32034411E+04  0.28637675E+04i,    Lambda_z4=  1.0000E+04
      ghz4_prime5=  0.49012574E+08  0.74595801E+08i,    Lambda_z4=  1.0000E+04
      ghz4_prime6=  0.73323810E+08  0.53968832E+08i,    Lambda_z4=  1.0000E+04
      ghz4_prime7=  0.68563876E+08  0.43025214E+08i,    Lambda_z4=  1.0000E+04
      ghzgs2=  0.24033105E-01  0.23217538E+00i
      ghzgs3=  0.33196291E+00  0.45018324E-01i
      ghzgs4=  0.80828654E+00  0.13318435E+00i
      ghzgs1_prime2=  0.56689643E+04  0.70176759E+04i,  Lambda_zgs1=  1.0000E+04
      ghgsgs2=  0.53039480E+00  0.21121811E+00i
      ghgsgs3=  0.91497870E+00  0.55650585E-01i
      ghgsgs4=  0.69452431E+00  0.51142446E+00i
      Lambda=  1000.0
      Lambda_Q=  10000.0
      Lambda_z11=   1.3888E+02
      Lambda_z21=   1.5452E+02
      Lambda_z31=   1.1998E+02
      Lambda_z41=   1.8136E+02
      Lambda_z12=   1.3667E+02
      Lambda_z22=   1.6659E+02
      Lambda_z32=   1.3884E+02
      Lambda_z42=   4.9064E+01
      Lambda_z10=   9.6973E+00
      Lambda_z20=   1.9326E+02
      Lambda_z30=   8.9204E+01
      Lambda_z40=   1.6167E+02
    
    LHE output: compare_to_reference/WH_Zgamma.lhe
    Histogram output: compare_to_reference/WH_Zgamma.dat
    Log file: compare_to_reference/WH_Zgamma.log
    LHE input: compare_to_reference/WH.lhe
    

Output from the JHUGenerator v7.4.0 described in arXiv:1001.3396 [hep-ph], arXiv:1208.4018 [hep-ph], arXiv:1309.4819 [hep-ph], arXiv:1606.03107 [hep-ph]

   Command line: ./JHUGen Seed=765543533 PDFSet=3 Process=50 VegasNc0=100000 VegasNc2=100 DataFile=compare_to_reference/WH DecayMode1=11 ghg2=0.383432074687728,

   Input Parameter:
    Collider: P-P, sqrt(s)=13000.00
    Resonance: spin=0, mass= 125.00 width=   0.00407
    DecayMode1:11
    W boson: mass=80.399, width=2.0850
    Jet cuts:
            pT >=     0.00 GeV
        DeltaR >=     0.00
           mJJ >=     0.00 GeV
    Random seed:   765543533
    To reproduce results using this seed, JHUGen should be compiled with the same compiler:
      GNU Fortran (GCC) 6.3.0

    WidthScheme:   2
    PDFSet:   3
    Unweighted: T

    Spin-0-VV couplings:
      generate_as=F
      kappa_top=  0.10000000E+01  0.00000000E+00i
      kappa_bot=  0.10000000E+01  0.00000000E+00i
      ghg2=  0.38343207E+00  0.91826099E+00i
      ghg3=  0.62944930E+04  0.22531294E+04i
      ghg4=  0.33549549E+00  0.17285804E+00i
      ghz1=  0.15493498E+00  0.45391814E+00i
      ghz2=  0.46929706E+00  0.74530230E+00i
      ghz3=  0.39474092E+04  0.35974886E+04i
      ghz4=  0.17779127E+00  0.92017053E+00i
      ghz1_prime=   0.14335427E+00  0.91076128E-01i,    Lambda_z1=  1.0000E+04
      ghz1_prime2=  0.74167007E+04  0.48613553E+04i,    Lambda_z1=  1.0000E+04
      ghz1_prime3=  0.44314466E+04  0.44364863E+04i,    Lambda_z1=  1.0000E+04
      ghz1_prime4=  0.24416912E+04  0.69461632E+04i,    Lambda_z1=  1.0000E+04
      ghz1_prime5=  0.78314043E+08  0.69465360E+08i,    Lambda_z1=  1.0000E+04
      ghz1_prime6=  0.51233059E+08  0.29537874E+08i,    Lambda_z1=  1.0000E+04
      ghz1_prime7=  0.47832193E+08  0.59559650E+08i,    Lambda_z1=  1.0000E+04
      ghz2_prime=   0.57465793E+00  0.41992191E+00i,    Lambda_z2=  1.0000E+04
      ghz2_prime2=  0.43854587E+04  0.61761246E+04i,    Lambda_z2=  1.0000E+04
      ghz2_prime3=  0.45921696E+04  0.75499391E+04i,    Lambda_z2=  1.0000E+04
      ghz2_prime4=  0.84715906E+04  0.71997238E+04i,    Lambda_z2=  1.0000E+04
      ghz2_prime5=  0.19558280E+08  0.94843889E+08i,    Lambda_z2=  1.0000E+04
      ghz2_prime6=  0.23209661E+08  0.67617823E+08i,    Lambda_z2=  1.0000E+04
      ghz2_prime7=  0.70059904E+07  0.53660191E+08i,    Lambda_z2=  1.0000E+04
      ghz3_prime=   0.40457065E+04  0.19693161E+04i,    Lambda_z3=  1.0000E+04
      ghz3_prime2=  0.33402456E+08  0.37615919E+07i,    Lambda_z3=  1.0000E+04
      ghz3_prime3=  0.44855080E+08  0.12184926E+08i,    Lambda_z3=  1.0000E+04
      ghz3_prime4=  0.27878602E+08  0.78237524E+08i,    Lambda_z3=  1.0000E+04
      ghz3_prime5=  0.93246434E+12  0.63158085E+12i,    Lambda_z3=  1.0000E+04
      ghz3_prime6=  0.35811562E+12  0.41077746E+12i,    Lambda_z3=  1.0000E+04
      ghz3_prime7=  0.62298148E+12  0.61827857E+12i,    Lambda_z3=  1.0000E+04
      ghz4_prime=   0.41653395E+00  0.33115593E+00i,    Lambda_z4=  1.0000E+04
      ghz4_prime2=  0.75883756E+04  0.39234327E+04i,    Lambda_z4=  1.0000E+04
      ghz4_prime3=  0.89560755E+04  0.93020315E+04i,    Lambda_z4=  1.0000E+04
      ghz4_prime4=  0.32034411E+04  0.28637675E+04i,    Lambda_z4=  1.0000E+04
      ghz4_prime5=  0.49012574E+08  0.74595801E+08i,    Lambda_z4=  1.0000E+04
      ghz4_prime6=  0.73323810E+08  0.53968832E+08i,    Lambda_z4=  1.0000E+04
      ghz4_prime7=  0.68563876E+08  0.43025214E+08i,    Lambda_z4=  1.0000E+04
      ghzgs2=  0.24033105E-01  0.23217538E+00i
      ghzgs3=  0.33196291E+00  0.45018324E-01i
      ghzgs4=  0.80828654E+00  0.13318435E+00i
      ghzgs1_prime2=  0.56689643E+04  0.70176759E+04i,  Lambda_zgs1=  1.0000E+04
      ghgsgs2=  0.53039480E+00  0.21121811E+00i
      ghgsgs3=  0.91497870E+00  0.55650585E-01i
      ghgsgs4=  0.69452431E+00  0.51142446E+00i
      Lambda=  1000.0
      Lambda_Q=  10000.0
      Lambda_z11=   1.3888E+02
      Lambda_z21=   1.5452E+02
      Lambda_z31=   1.1998E+02
      Lambda_z41=   1.8136E+02
      Lambda_z12=   1.3667E+02
      Lambda_z22=   1.6659E+02
      Lambda_z32=   1.3884E+02
      Lambda_z42=   4.9064E+01
      Lambda_z10=   9.6973E+00
      Lambda_z20=   1.9326E+02
      Lambda_z30=   8.9204E+01
      Lambda_z40=   1.6167E+02

    LHE output: compare_to_reference/WH.lhe
    Histogram output: compare_to_reference/WH.dat
    Log file: compare_to_reference/WH.log

-->
<init>
2212 2212   6500.0000000000000000    6500.0000000000000000 0 0  263000  263000  3  1
 1.0000000E+00  1.0000000E+14  1.0000000E+00  50
</init>
<event>
10  50   1.0000000E+00   1.2500000E+02   7.8125000E-03   1.2380861E-01
       -2   -1    0    0    0  503  0.00000000000E+00  0.00000000000E+00  1.59278755723E+03  1.59278755723E+03  0.00000000000E+00 0.00000000000E+00  1.
        1   -1    0    0  503    0  0.00000000000E+00  0.00000000000E+00 -2.93981649442E+03  2.93981649442E+03  0.00000000000E+00 0.00000000000E+00  1.
      -24    2    1    2    0    0  4.98904156271E+02 -1.02561795932E+03  1.24961617177E+03  1.69376830833E+03  8.07028493626E+01 0.00000000000E+00  1.
       25    2    1    2    0    0 -4.98904156271E+02  1.02561795932E+03 -2.59664510897E+03  2.83883574333E+03  1.25000000000E+02 0.00000000000E+00  1.
       -4    1    3    3    0  502  1.93282083810E+02 -3.79595567316E+02  4.10761289086E+02  5.91757738339E+02  1.27499999999E+00 0.00000000000E+00  1.
        3    1    3    3  502    0  3.05622072461E+02 -6.46022392009E+02  8.38854882688E+02  1.10201056999E+03  2.38418579102E-05 0.00000000000E+00  1.
       23    2    4    4    0    0 -3.06670537440E+02  5.97633732845E+02 -1.57413621761E+03  1.71382521217E+03  8.98839757427E+01 0.00000000000E+00  1.
       22    1    4    4    0    0 -1.92233618831E+02  4.27984226475E+02 -1.02250889136E+03  1.12501053116E+03  0.00000000000E+00 0.00000000000E+00  1.
       -4    1    7    7    0  803 -1.35983746528E+02  1.89516076491E+02 -6.08723617137E+02  6.51884951701E+02  1.27499999998E+00 0.00000000000E+00  1.
        4    1    7    7  803    0 -1.70686790912E+02  4.08117656354E+02 -9.65412600476E+02  1.06194026047E+03  1.27500000003E+00 0.00000000000E+00  1.
</event>
<event>
10  50   1.0000000E+00   1.2500000E+02   7.8125000E-03   1.2380861E-01
        2   -1    0    0  503    0  0.00000000000E+00  0.00000000000E+00  2.05323397235E+03  2.05323397235E+03  0.00000000000E+00 0.00000000000E+00  1.
       -1   -1    0    0    0  503  0.00000000000E+00  0.00000000000E+00 -5.87537781937E+03  5.87537781937E+03  0.00000000000E+00 0.00000000000E+00  1.
       24    2    1    2    0    0  1.16652212090E+03 -3.26929478482E+03 -1.97122735973E+03  3.99280449314E+03  8.76821991856E+01 0.00000000000E+00  1.
       25    2    1    2    0    0 -1.16652212090E+03  3.26929478482E+03 -1.85091648729E+03  3.93580729858E+03  1.25000000000E+02 0.00000000000E+00  1.
      -13    1    3    3    0    0  9.52327127303E+02 -2.73052954437E+03 -1.61263336719E+03  3.31108818037E+03  1.05659996965E-01 0.00000000000E+00  1.
       14    1    3    3    0    0  2.14194993599E+02 -5.38765240458E+02 -3.58593992544E+02  6.81716312771E+02  7.30004829998E-06 0.00000000000E+00  1.
       23    2    4    4    0    0 -5.82895785292E+02  1.62452316599E+03 -9.30872734321E+02  1.96289729427E+03  8.71706774452E+01 0.00000000000E+00  1.
       22    1    4    4    0    0 -5.83626335608E+02  1.64477161883E+03 -9.20043752969E+02  1.97291000431E+03  4.61695593143E-05 0.00000000000E+00  1.
       -1    1    7    7    0  803 -3.52796178239E+02  8.61035460173E+02 -5.16731636774E+02  1.06435839429E+03  1.97686242482E-05 0.00000000000E+00  1.
        1    1    7    7  803    0 -2.30099607053E+02  7.63487705820E+02 -4.14141097546E+02  8.98538899982E+02  5.96046447754E-06 0.00000000000E+00  1.
</event>
<event>
10  50   1.0000000E+00   1.2500000E+02   7.8125000E-03   1.2380861E-01
       -1   -1    0    0    0  503  0.00000000000E+00  0.00000000000E+00  5.38939633946E+03  5.38939633946E+03  0.00000000000E+00 0.00000000000E+00  1.
        2   -1    0    0  503    0  0.00000000000E+00  0.00000000000E+00 -4.33332584528E+03  4.33332584528E+03  0.00000000000E+00 0.00000000000E+00  1.
       24    2    1    2    0    0 -3.56434015997E+03 -5.62107820995E+02 -2.70398788833E+03  4.50983910354E+03  8.13158115739E+01 0.00000000000E+00  1.
       25    2    1    2    0    0  3.56434015997E+03  5.62107820995E+02  3.76005838251E+03  5.21288308120E+03  1.25000000000E+02 0.00000000000E+00  1.
      -15    1    3    3    0    0 -4.73199374139E+02 -5.83896427470E+01 -3.29694321016E+02  5.79679653252E+02  1.77680000009E+00 0.00000000000E+00  1.
       16    1    3    3    0    0 -3.09114078583E+03 -5.03718178248E+02 -2.37429356731E+03  3.93015945029E+03  8.92080637640E-05 0.00000000000E+00  1.
       23    2    4    4    0    0  2.48103148802E+03  4.02889327229E+02  2.58168272295E+03  3.60431931109E+03  9.05260169712E+01 0.00000000000E+00  1.
       22    1    4    4    0    0  1.08330867195E+03  1.59218493766E+02  1.17837565956E+03  1.60856377011E+03  1.68587394044E-05 0.00000000000E+00  1.
       -4    1    7    7    0  803  1.03775242819E+03  1.59581984407E+02  1.01596389646E+03  1.46102045725E+03  1.27500000015E+00 0.00000000000E+00  1.
        4    1    7    7  803    0  1.44327905983E+03  2.43307342821E+02  1.56571882649E+03  2.14329885384E+03  1.27500000070E+00 0.00000000000E+00  1.
</event>
<event>
10  50   1.0000000E+00   1.2500000E+02   7.8125000E-03   1.2380861E-01
        3   -1    0    0  503    0  0.00000000000E+00  0.00000000000E+00  4.74806879298E+03  4.74806879298E+03  0.00000000000E+00 0.00000000000E+00  1.
       -2   -1    0    0    0  503  0.00000000000E+00  0.00000000000E+00 -1.02586096059E+03  1.02586096059E+03  0.00000000000E+00 0.00000000000E+00  1.
      -24    2    1    2    0    0  9.20118304911E+02  1.47065080918E+03  8.08517158063E+01  1.73852012561E+03  8.05216097583E+01 0.00000000000E+00  1.
       25    2    1    2    0    0 -9.20118304911E+02 -1.47065080918E+03  3.64135611659E+03  4.03540962796E+03  1.25000000000E+02 0.00000000000E+00  1.
       -4    1    3    3    0  502  1.55180186034E+02  2.64199842514E+02 -1.51827926896E+01  3.06781012680E+02  1.27500000000E+00 0.00000000000E+00  1.
        3    1    3    3  502    0  7.64938118877E+02  1.20645096667E+03  9.60345084959E+01  1.43173911293E+03  1.49011611938E-05 0.00000000000E+00  1.
       23    2    4    4    0    0 -8.28321496974E+02 -1.26586291609E+03  3.20426108707E+03  3.54406779183E+03  6.78378528112E+01 0.00000000000E+00  1.
       22    1    4    4    0    0 -9.17968079366E+01 -2.04787893085E+02  4.37095029522E+02  4.91341836133E+02  1.46000966000E-05 0.00000000000E+00  1.
      -14    1    7    7    0    0 -3.60860690136E+02 -5.48920505359E+02  1.31321065841E+03  1.46835159014E+03  3.37174788087E-05 0.00000000000E+00  1.
       14    1    7    7    0    0 -4.67460806838E+02 -7.16942410736E+02  1.89105042865E+03  2.07571620169E+03  2.38418579102E-05 0.00000000000E+00  1.
</event>
<event>
10  50   1.0000000E+00   1.2500000E+02   7.8125000E-03   1.2380861E-01
        2   -1    0    0  503    0  0.00000000000E+00  0.00000000000E+00  1.81772890686E+03  1.81772890686E+03  0.00000000000E+00 0.00000000000E+00  1.
       -1   -1    0    0    0  503  0.00000000000E+00  0.00000000000E+00 -3.80154777230E+03  3.80154777230E+03  0.00000000000E+00 0.00000000000E+00  1.
       24    2    1    2    0    0  9.64414207469E+02  2.12770758439E+03  2.91518993547E+02  2.35583957990E+03  8.81049055939E+01 0.00000000000E+00  1.
       25    2    1    2    0    0 -9.64414207469E+02 -2.12770758439E+03 -2.27533785899E+03  3.26343709925E+03  1.25000000000E+02 0.00000000000E+00  1.
       -1    1    3    3    0  502  7.25345854947E+02  1.68705925664E+03  2.33840347510E+02  1.85120956481E+03  8.42936970218E-06 0.00000000000E+00  1.
        2    1    3    3  502    0  2.39068352522E+02  4.40648327749E+02  5.76786460375E+01  5.04630015094E+02  1.01885157311E-05 0.00000000000E+00  1.
       23    2    4    4    0    0 -3.43549434442E+02 -7.18985360333E+02 -8.55746165804E+02  1.16934733367E+03  1.02724971590E+01 0.00000000000E+00  1.
       22    1    4    4    0    0 -6.20864773027E+02 -1.40872222406E+03 -1.41959169319E+03  2.09408976558E+03  3.37174788087E-05 0.00000000000E+00  1.
       -2    1    7    7    0  803 -1.33068791725E+02 -2.86380577054E+02 -3.44547589273E+02  4.67369425101E+02  9.42432183077E-06 0.00000000000E+00  1.
        2    1    7    7  803    0 -2.10480642717E+02 -4.32604783279E+02 -5.11198576530E+02  7.01977908571E+02  1.03238273118E-05 0.00000000000E+00  1.
</event>
<event>
10  50   1.0000000E+00   1.2500000E+02   7.8125000E-03   1.2380861E-01
        1   -1    0    0  503    0  0.00000000000E+00  0.00000000000E+00  3.62589164705E+03  3.62589164705E+03  0.00000000000E+00 0.00000000000E+00  1.
       -2   -1    0    0    0  503  0.00000000000E+00  0.00000000000E+00 -1.17734985855E+03  1.17734985855E+03  0.00000000000E+00 0.00000000000E+00  1.
      -24    2    1    2    0    0  1.25277203061E+03  1.54213966185E+03  1.87104494257E+03  2.73037872567E+03  8.07855875087E+01 0.00000000000E+00  1.
       25    2    1    2    0    0 -1.25277203061E+03 -1.54213966185E+03  5.77496845926E+02  2.07286277992E+03  1.25000000000E+02 0.00000000000E+00  1.
       -2    1    3    3    0  502  1.87941864498E+02  2.53565879567E+02  3.33697225065E+02  4.59316489719E+02  5.96046447754E-06 0.00000000000E+00  1.
        1    1    3    3  502    0  1.06483016611E+03  1.28857378229E+03  1.53734771751E+03  2.27106223595E+03  3.37174788087E-05 0.00000000000E+00  1.
       23    2    4    4    0    0 -1.04239863012E+03 -1.23859342139E+03  4.63150819594E+02  1.68624630139E+03  9.06054064701E+01 0.00000000000E+00  1.
       22    1    4    4    0    0 -2.10373400487E+02 -3.03546240461E+02  1.14346026332E+02  3.86616478527E+02  5.77119491429E-06 0.00000000000E+00  1.
       -2    1    7    7    0  803 -5.39214167394E+02 -5.70682841812E+02  2.19921103278E+02  8.15350302584E+02  1.15423898286E-05 0.00000000000E+00  1.
        2    1    7    7  803    0 -5.03184462729E+02 -6.67910579576E+02  2.43229716317E+02  8.70895998809E+02  8.42936970218E-06 0.00000000000E+00  1.
</event>
<event>
10  50   1.0000000E+00   1.2500000E+02   7.8125000E-03   1.2380861E-01
        1   -1    0    0  503    0  0.00000000000E+00  0.00000000000E+00  2.18997644134E+03  2.18997644134E+03  0.00000000000E+00 0.00000000000E+00  1.
       -2   -1    0    0    0  503  0.00000000000E+00  0.00000000000E+00 -2.10411841720E+03  2.10411841720E+03  0.00000000000E+00 0.00000000000E+00  1.
      -24    2    1    2    0    0 -1.42173358261E+03 -2.25137733268E+01 -1.56259211221E+03  2.11353389816E+03  5.91454110870E+01 0.00000000000E+00  1.
       25    2    1    2    0    0  1.42173358261E+03  2.25137733268E+01  1.64845013635E+03  2.18056096038E+03  1.25000000000E+02 0.00000000000E+00  1.
      -14    1    3    3    0    0 -5.00075660778E+02  7.61065718380E+00 -5.84785172459E+02  7.69485078824E+02  0.00000000000E+00 0.00000000000E+00  1.
       13    1    3    3    0    0 -9.21657921829E+02 -3.01244305106E+01 -9.77806939750E+02  1.34404881934E+03  1.05659998310E-01 0.00000000000E+00  1.
       23    2    4    4    0    0  1.27756111215E+03 -1.98472468250E+00  1.46343544160E+03  1.94472984514E+03  9.03578686379E+01 0.00000000000E+00  1.
       22    1    4    4    0    0  1.44172470455E+02  2.44984980093E+01  1.85014694754E+02  2.35831115243E+02  2.98023223877E-06 0.00000000000E+00  1.
      -14    1    7    7    0    0  1.01974232264E+03 -2.43380371441E+01  1.12300301755E+03  1.51710333270E+03  2.06476546236E-05 0.00000000000E+00  1.
       14    1    7    7    0    0  2.57818789511E+02  2.23533124616E+01  3.40432424043E+02  4.27626512441E+02  7.30004829998E-06 0.00000000000E+00  1.
</event>
<event>
10  50   1.0000000E+00   1.2500000E+02   7.8125000E-03   1.2380861E-01
       -2   -1    0    0    0  503  0.00000000000E+00  0.00000000000E+00  4.45293071509E+03  4.45293071509E+03  0.00000000000E+00 0.00000000000E+00  1.
        1   -1    0    0  503    0  0.00000000000E+00  0.00000000000E+00 -2.70836343294E+03  2.70836343294E+03  0.00000000000E+00 0.00000000000E+00  1.
      -24    2    1    2    0    0  3.18495338742E+03 -1.15565843113E+03  1.65034140605E+03  3.76954268231E+03  7.96918297914E+01 0.00000000000E+00  1.
       25    2    1    2    0    0 -3.18495338742E+03  1.15565843113E+03  9.42258760888E+01  3.39175146572E+03  1.25000000000E+02 0.00000000000E+00  1.
      -16    1    3    3    0    0  9.45115263021E+02 -3.38303997682E+02  5.29315765277E+02  1.13484255939E+03  1.68587394044E-05 0.00000000000E+00  1.
       15    1    3    3    0    0  2.23983812440E+03 -8.17354433445E+02  1.12102564078E+03  2.63470012292E+03  1.77679999958E+00 0.00000000000E+00  1.
       23    2    4    4    0    0 -2.84789557465E+03  1.05798930207E+03  9.67710722503E+01  3.04081884264E+03  8.58139027349E+01 0.00000000000E+00  1.
       22    1    4    4    0    0 -3.37057812767E+02  9.76691290552E+01 -2.54519616146E+00  3.50932623079E+02  9.81778110066E-06 0.00000000000E+00  1.
       -3    1    7    7    0  803 -2.54744586252E+03  9.32461372648E+02  1.09519715740E+02  2.71495104967E+03  1.95426896939E-05 0.00000000000E+00  1.
        3    1    7    7  803    0 -3.00449712131E+02  1.25527929427E+02 -1.27486434899E+01  3.25867792972E+02  2.34130864776E-06 0.00000000000E+00  1.
</event>
<event>
10  50   1.0000000E+00   1.2500000E+02   7.8125000E-03   1.2380861E-01
       -2   -1    0    0    0  503  0.00000000000E+00  0.00000000000E+00  1.28660626655E+03  1.28660626655E+03  0.00000000000E+00 0.00000000000E+00  1.
        1   -1    0    0  503    0  0.00000000000E+00  0.00000000000E+00 -5.28033329405E+03  5.28033329405E+03  0.00000000000E+00 0.00000000000E+00  1.
      -24    2    1    2    0    0 -1.69793891849E+03  1.20849113847E+03 -3.96365303584E+03  4.47888380281E+03  8.00457856700E+01 0.00000000000E+00  1.
       25    2    1    2    0    0  1.69793891849E+03 -1.20849113847E+03 -3.00739916608E+01  2.08805575779E+03  1.25000000000E+02 0.00000000000E+00  1.
       -2    1    3    3    0  502 -2.43199281373E+02  1.63734719743E+02 -5.01978617168E+02  5.81323903692E+02  1.03238273118E-05 0.00000000000E+00  1.
        1    1    3    3  502    0 -1.45473963712E+03  1.04475641873E+03 -3.46167441867E+03  3.89755989911E+03  4.76837158203E-05 0.00000000000E+00  1.
       23    2    4    4    0    0  1.07674750758E+03 -7.90550099819E+02 -7.26790524280E+01  1.33814331491E+03  3.14742940166E+01 0.00000000000E+00  1.
       22    1    4    4    0    0  6.21191410914E+02 -4.17941038651E+02  4.26050607672E+01  7.49912442879E+02  1.55483460089E-05 0.00000000000E+00  1.
       -2    1    7    7    0  803  5.05853353538E+02 -3.54678655399E+02 -4.16579481317E+01  6.19209131493E+02  5.08061859644E-06 0.00000000000E+00  1.
        2    1    7    7  803    0  5.70894154039E+02 -4.35871444420E+02 -3.10211042963E+01  7.18934183419E+02  1.32339594277E-05 0.00000000000E+00  1.
</event>
<event>
10  50   1.0000000E+00   1.2500000E+02   7.8125000E-03   1.2380861E-01
       -2   -1    0    0    0  503  0.00000000000E+00  0.00000000000E+00  1.73167029038E+03  1.73167029038E+03  0.00000000000E+00 0.00000000000E+00  1.
        1   -1    0    0  503    0  0.00000000000E+00  0.00000000000E+00 -5.84496120074E+03  5.84496120074E+03  0.00000000000E+00 0.00000000000E+00  1.
      -24    2    1    2    0    0 -7.59548552637E+02  5.43916486767E+02  1.56300508587E+03  1.82261373088E+03  7.85923987015E+01 0.00000000000E+00  1.
       25    2    1    2    0    0  7.59548552637E+02 -5.43916486767E+02 -5.67629599623E+03  5.75401776025E+03  1.25000000000E+02 0.00000000000E+00  1.
      -16    1    3    3    0    0 -1.70378385033E+02  8.32681217987E+01  3.16746906572E+02  3.69176078609E+02  4.21468485109E-06 0.00000000000E+00  1.
       15    1    3    3    0    0 -5.89170167604E+02  4.60648364969E+02  1.24625817930E+03  1.45343765227E+03  1.77679999978E+00 0.00000000000E+00  1.
       23    2    4    4    0    0  5.32742523186E+02 -4.00643533954E+02 -3.72219382651E+03  3.78158692402E+03  3.66462072673E+01 0.00000000000E+00  1.
       22    1    4    4    0    0  2.26806029451E+02 -1.43272952813E+02 -1.95410216972E+03  1.97243083623E+03  4.12953092472E-05 0.00000000000E+00  1.
       -2    1    7    7    0  803  1.49359884418E+02 -1.29532758580E+02 -1.15757732072E+03  1.17433911800E+03  1.68587394044E-05 0.00000000000E+00  1.
        2    1    7    7  803    0  3.83382638768E+02 -2.71110775374E+02 -2.56461650579E+03  2.60724780602E+03  4.76837158203E-05 0.00000000000E+00  1.
</event>
<event>
10  50   1.0000000E+00   1.2500000E+02   7.8125000E-03   1.2380861E-01
       -2   -1    0    0    0  503  0.00000000000E+00  0.00000000000E+00  3.98645444645E+03  3.98645444645E+03  0.00000000000E+00 0.00000000000E+00  1.
        1   -1    0    0  503    0  0.00000000000E+00  0.00000000000E+00 -9.87630552798E+02  9.87630552798E+02  0.00000000000E+00 0.00000000000E+00  1.
      -24    2    1    2    0    0 -9.90012869531E+02  1.24275730349E+03  2.98240387845E+03  3.38020112201E+03  8.03463366666E+01 0.00000000000E+00  1.
       25    2    1    2    0    0  9.90012869531E+02 -1.24275730349E+03  1.64200152019E+01  1.59388387724E+03  1.25000000000E+02 0.00000000000E+00  1.
       -2    1    3    3    0  502 -3.82603127707E+02  5.03570557196E+02  1.26522447221E+03  1.41448274097E+03  1.68587394044E-05 0.00000000000E+00  1.
        1    1    3    3  502    0 -6.07409741824E+02  7.39186746297E+02  1.71717940624E+03  1.96571838104E+03  2.38418579102E-05 0.00000000000E+00  1.
       23    2    4    4    0    0  6.58882486592E+02 -8.63109133385E+02  1.21874884153E+01  1.09010021548E+03  9.53228076268E+01 0.00000000000E+00  1.
       22    1    4    4    0    0  3.31130382939E+02 -3.79648170105E+02  4.23252678655E+00  5.03783661756E+02  6.54746927447E-06 0.00000000000E+00  1.
       -5    1    7    7    0  803  3.93387420914E+02 -4.37447791351E+02  7.90924474105E+00  5.88387076458E+02  4.75000000001E+00 0.00000000000E+00  1.
        5    1    7    7  803    0  2.65495065678E+02 -4.25661342035E+02  4.27824367430E+00  5.01713139026E+02  4.75000000001E+00 0.00000000000E+00  1.
</event>
<event>
10  50   1.0000000E+00   1.2500000E+02   7.8125000E-03   1.2380861E-01
       -1   -1    0    0    0  503  0.00000000000E+00  0.00000000000E+00  4.81035490703E+03  4.81035490703E+03  0.00000000000E+00 0.00000000000E+00  1.
        2   -1    0    0  503    0  0.00000000000E+00  0.00000000000E+00 -3.97982999958E+03  3.97982999958E+03  0.00000000000E+00 0.00000000000E+00  1.
       24    2    1    2    0    0 -3.29884427633E+03  2.19688222167E+02 -2.46169849870E+03  4.12274487696E+03  8.01832123079E+01 0.00000000000E+00  1.
       25    2    1    2    0    0  3.29884427633E+03 -2.19688222167E+02  3.29222340616E+03  4.66744002966E+03  1.25000000000E+02 0.00000000000E+00  1.
      -11    1    3    3    0    0 -1.25120727768E+03  8.18926969434E+01 -9.82261245090E+02  1.59281612848E+03  5.10655641332E-04 0.00000000000E+00  1.
       12    1    3    3    0    0 -2.04763699865E+03  1.37795525224E+02 -1.47943725361E+03  2.52992874848E+03  0.00000000000E+00 0.00000000000E+00  1.
       23    2    4    4    0    0  1.09706037559E+03 -1.13040639344E+02  1.14806689585E+03  1.59227610018E+03  3.10793825491E+01 0.00000000000E+00  1.
       22    1    4    4    0    0  2.20178390074E+03 -1.06647582823E+02  2.14415651031E+03  3.07516392948E+03  5.84003863998E-05 0.00000000000E+00  1.
       -4    1    7    7    0  803  1.39284208754E+02 -8.17059862307E+00  1.57282671860E+02  2.10252976156E+02  1.27499999999E+00 0.00000000000E+00  1.
        4    1    7    7  803    0  9.57776166833E+02 -1.04870040721E+02  9.90784223990E+02  1.38202312402E+03  1.27500000048E+00 0.00000000000E+00  1.
</event>
<event>
10  50   1.0000000E+00   1.2500000E+02   7.8125000E-03   1.2380861E-01
        1   -1    0    0  503    0  0.00000000000E+00  0.00000000000E+00  2.31849266327E+03  2.31849266327E+03  0.00000000000E+00 0.00000000000E+00  1.
       -2   -1    0    0    0  503  0.00000000000E+00  0.00000000000E+00 -5.53829413670E+03  5.53829413670E+03  0.00000000000E+00 0.00000000000E+00  1.
      -24    2    1    2    0    0  2.22938112136E+03 -2.42158761530E+03 -6.18051724028E+01  3.29358700156E+03  9.83295209394E+01 0.00000000000E+00  1.
       25    2    1    2    0    0 -2.22938112136E+03  2.42158761530E+03 -3.15799630103E+03  4.56319979840E+03  1.25000000000E+02 0.00000000000E+00  1.
      -16    1    3    3    0    0  1.68651317075E+03 -1.88817871668E+03 -6.37449171826E+01  2.53251040584E+03  5.86659302861E-06 0.00000000000E+00  1.
       15    1    3    3    0    0  5.42867950618E+02 -5.33408898620E+02  1.93974477981E+00  7.61076595727E+02  1.77680000008E+00 0.00000000000E+00  1.
       23    2    4    4    0    0 -1.93687478624E+03  2.13859667683E+03 -2.78290089183E+03  4.00971954279E+03  9.07400375005E+01 0.00000000000E+00  1.
       22    1    4    4    0    0 -2.92506335119E+02  2.82990938472E+02 -3.75095409202E+02  5.53480255607E+02  1.03238273118E-05 0.00000000000E+00  1.
      -16    1    7    7    0    0 -2.26596910776E+02  2.53971857640E+02 -2.88792880306E+02  4.46373377524E+02  9.42432183077E-06 0.00000000000E+00  1.
       16    1    7    7    0    0 -1.71027787546E+03  1.88462481919E+03 -2.49410801152E+03  3.56334616527E+03  0.00000000000E+00 0.00000000000E+00  1.
</event>
<event>
10  50   1.0000000E+00   1.2500000E+02   7.8125000E-03   1.2380861E-01
       -2   -1    0    0    0  503  0.00000000000E+00  0.00000000000E+00  2.58836344776E+03  2.58836344776E+03  0.00000000000E+00 0.00000000000E+00  1.
        1   -1    0    0  503    0  0.00000000000E+00  0.00000000000E+00 -2.94857131290E+03  2.94857131290E+03  0.00000000000E+00 0.00000000000E+00  1.
      -24    2    1    2    0    0  3.33613620985E+02 -1.83967266494E+03 -2.21542875675E+03  2.90004964393E+03  8.04350593573E+01 0.00000000000E+00  1.
       25    2    1    2    0    0 -3.33613620985E+02  1.83967266494E+03  1.85522089161E+03  2.63688511674E+03  1.25000000000E+02 0.00000000000E+00  1.
      -14    1    3    3    0    0  3.06060983351E+02 -1.65869366107E+03 -1.96073157042E+03  2.58638865564E+03  4.12953092472E-05 0.00000000000E+00  1.
       13    1    3    3    0    0  2.75526376343E+01 -1.80979003874E+02 -2.54697186331E+02  3.13660988287E+02  1.05659999445E-01 0.00000000000E+00  1.
       23    2    4    4    0    0 -6.80441499796E+01  6.76721217902E+02  6.48877172066E+02  9.40344995852E+02  2.50102717139E+01 0.00000000000E+00  1.
       22    1    4    4    0    0 -2.65569471005E+02  1.16295144704E+03  1.20634371954E+03  1.69654012089E+03  2.38418579102E-05 0.00000000000E+00  1.
      -11    1    7    7    0    0 -1.07155699524E+01  7.10502789817E+01  7.82392886532E+01  1.06227830026E+02  5.11000122038E-04 0.00000000000E+00  1.
       11    1    7    7    0    0 -5.73285800272E+01  6.05670938920E+02  5.70637883413E+02  8.34117165826E+02  5.11072900539E-04 0.00000000000E+00  1.
</event>
<event>
10  50   1.0000000E+00   1.2500000E+02   7.8125000E-03   1.2380861E-01
        2   -1    0    0  503    0  0.00000000000E+00  0.00000000000E+00  2.20854058504E+03  2.20854058504E+03  0.00000000000E+00 0.00000000000E+00  1.
       -1   -1    0    0    0  503  0.00000000000E+00  0.00000000000E+00 -1.68859522580E+03  1.68859522580E+03  0.00000000000E+00 0.00000000000E+00  1.
       24    2    1    2    0    0 -1.44241566746E+03 -1.13417817059E+03  8.56639434246E+02  2.02740027326E+03  9.79676851313E+01 0.00000000000E+00  1.
       25    2    1    2    0    0  1.44241566746E+03  1.13417817059E+03 -3.36694075007E+02  1.86973553758E+03  1.25000000000E+02 0.00000000000E+00  1.
       -3    1    3    3    0  502 -1.92371916953E+02 -1.78748368294E+02  9.36489942765E+01  2.78797538958E+02  6.05288029062E-06 0.00000000000E+00  1.
        4    1    3    3  502    0 -1.25004375050E+03 -9.55429802292E+02  7.62990439969E+02  1.74860273430E+03  1.27500000012E+00 0.00000000000E+00  1.
       23    2    4    4    0    0  9.60043674898E+02  7.79514022074E+02 -2.06869020144E+02  1.25709866118E+03  9.04228075882E+01 0.00000000000E+00  1.
       22    1    4    4    0    0  4.82371992562E+02  3.54664148516E+02 -1.29825054863E+02  6.12636876397E+02  1.04308128357E-05 0.00000000000E+00  1.
       -2    1    7    7    0  803  6.75522976656E+02  5.97520285052E+02 -1.37241146924E+02  9.12248275114E+02  1.94287371790E-05 0.00000000000E+00  1.
        2    1    7    7  803    0  2.84520698242E+02  1.81993737022E+02 -6.96278732202E+01  3.44850386070E+02  5.47503622498E-06 0.00000000000E+00  1.
</event>
<event>
10  50   1.0000000E+00   1.2500000E+02   7.8125000E-03   1.2380861E-01
       -2   -1    0    0    0  503  0.00000000000E+00  0.00000000000E+00  4.39338112602E+03  4.39338112602E+03  0.00000000000E+00 0.00000000000E+00  1.
        1   -1    0    0  503    0  0.00000000000E+00  0.00000000000E+00 -3.19721986474E+03  3.19721986474E+03  0.00000000000E+00 0.00000000000E+00  1.
      -24    2    1    2    0    0  2.95656572809E+03 -1.22281715968E+03  2.57174854826E+03  4.10571532626E+03  8.02809705540E+01 0.00000000000E+00  1.
       25    2    1    2    0    0 -2.95656572809E+03  1.22281715968E+03 -1.37558728698E+03  3.48488566450E+03  1.25000000000E+02 0.00000000000E+00  1.
       -2    1    3    3    0  502  2.92516837682E+03 -1.21725840784E+03  2.55105533480E+03  4.06770345347E+03  3.37174788087E-05 0.00000000000E+00  1.
        1    1    3    3  502    0  3.13973512783E+01 -5.55875184184E+00  2.06932134646E+01  3.80118727876E+01  3.32157211381E-06 0.00000000000E+00  1.
       23    2    4    4    0    0 -2.38666456034E+03  1.01527825094E+03 -1.11097481306E+03  2.82316102313E+03  9.49498649107E+01 0.00000000000E+00  1.
       22    1    4    4    0    0 -5.69901167746E+02  2.07538908744E+02 -2.64612473923E+02  6.61724641370E+02  1.07453801497E-05 0.00000000000E+00  1.
       -2    1    7    7    0  803 -1.87535574720E+02  8.55988524742E+01 -1.16262197030E+02  2.36672038460E+02  5.77119491429E-06 0.00000000000E+00  1.
        2    1    7    7  803    0 -2.19912898562E+03  9.29679398461E+02 -9.94712616027E+02  2.58648898467E+03  3.15398134120E-05 0.00000000000E+00  1.
</event>
<event>
10  50   1.0000000E+00   1.2500000E+02   7.8125000E-03   1.2380861E-01
       -2   -1    0    0    0  503  0.00000000000E+00  0.00000000000E+00  2.69405368692E+03  2.69405368692E+03  0.00000000000E+00 0.00000000000E+00  1.
        1   -1    0    0  503    0  0.00000000000E+00  0.00000000000E+00 -3.69596612962E+03  3.69596612962E+03  0.00000000000E+00 0.00000000000E+00  1.
      -24    2    1    2    0    0  6.41205443986E+02  2.77868816395E+03  8.62733888174E+02  2.98050617481E+03  8.27947002344E+01 0.00000000000E+00  1.
       25    2    1    2    0    0 -6.41205443986E+02 -2.77868816395E+03 -1.86464633087E+03  3.40951364172E+03  1.25000000000E+02 0.00000000000E+00  1.
      -16    1    3    3    0    0  3.13204555465E+02  1.19606104347E+03  3.53897889331E+02  1.28604153484E+03  1.19209289551E-05 0.00000000000E+00  1.
       15    1    3    3    0    0  3.28000888522E+02  1.58262712048E+03  5.08835998843E+02  1.69446463997E+03  1.77680000024E+00 0.00000000000E+00  1.
       23    2    4    4    0    0 -4.23959423675E+02 -1.88784174480E+03 -1.33257501664E+03  2.34937069887E+03  9.92267070409E+00 0.00000000000E+00  1.
       22    1    4    4    0    0 -2.17246020311E+02 -8.90846419146E+02 -5.32071314234E+02  1.06014294285E+03  1.46000966000E-05 0.00000000000E+00  1.
       -4    1    7    7    0  803 -2.68742717608E+02 -1.21204348915E+03 -8.58800199157E+02  1.50957327598E+03  1.27499999992E+00 0.00000000000E+00  1.
        4    1    7    7  803    0 -1.55216706067E+02 -6.75798255657E+02 -4.73774817479E+02  8.39797422890E+02  1.27500000003E+00 0.00000000000E+00  1.
</event>
<event>
10  50   1.0000000E+00   1.2500000E+02   7.8125000E-03   1.2380861E-01
        1   -1    0    0  503    0  0.00000000000E+00  0.00000000000E+00  3.59135571738E+03  3.59135571738E+03  0.00000000000E+00 0.00000000000E+00  1.
       -2   -1    0    0    0  503  0.00000000000E+00  0.00000000000E+00 -1.70781956692E+03  1.70781956692E+03  0.00000000000E+00 0.00000000000E+00  1.
      -24    2    1    2    0    0  3.21803320751E+02 -2.36523463513E+03  1.63839504231E+03  2.89634124523E+03  8.10064052228E+01 0.00000000000E+00  1.
       25    2    1    2    0    0 -3.21803320751E+02  2.36523463513E+03  2.45141108144E+02  2.40283403908E+03  1.25000000000E+02 0.00000000000E+00  1.
       -4    1    3    3    0  502  1.04343211447E+02 -7.66757391106E+02  5.77431793768E+02  9.65522399879E+02  1.27499999992E+00 0.00000000000E+00  1.
        3    1    3    3  502    0  2.17460109305E+02 -1.59847724402E+03  1.06096324855E+03  1.93081884535E+03  1.68587394044E-05 0.00000000000E+00  1.
       23    2    4    4    0    0 -2.40882699392E+02  1.57162293506E+03  1.63414162702E+02  1.60093194340E+03  9.08612895851E+01 0.00000000000E+00  1.
       22    1    4    4    0    0 -8.09206213591E+01  7.93611700071E+02  8.17269454422E+01  8.01902095684E+02  1.22425531783E-05 0.00000000000E+00  1.
       -5    1    7    7    0  803 -6.78955415769E+01  2.70414569656E+02  6.53039251933E+00  2.78924815272E+02  4.75000000001E+00 0.00000000000E+00  1.
        5    1    7    7  803    0 -1.72987157815E+02  1.30120836540E+03  1.56883770182E+02  1.32200712812E+03  4.74999999999E+00 0.00000000000E+00  1.
</event>
<event>
10  50   1.0000000E+00   1.2500000E+02   7.8125000E-03   1.2380861E-01
        1   -1    0    0  503    0  0.00000000000E+00  0.00000000000E+00  3.78311427443E+03  3.78311427443E+03  0.00000000000E+00 0.00000000000E+00  1.
       -2   -1    0    0    0  503  0.00000000000E+00  0.00000000000E+00 -2.17610739573E+03  2.17610739573E+03  0.00000000000E+00 0.00000000000E+00  1.
      -24    2    1    2    0    0  1.43219216640E+02 -1.84615654864E+03  3.07674110709E+03  3.59182870568E+03  7.80503989696E+01 0.00000000000E+00  1.
       25    2    1    2    0    0 -1.43219216640E+02  1.84615654864E+03 -1.46973422840E+03  2.36739296447E+03  1.25000000000E+02 0.00000000000E+00  1.
       -4    1    3    3    0  502  4.75864476478E+01 -7.91382555565E+02  1.24760363854E+03  1.47819730881E+03  1.27499999970E+00 0.00000000000E+00  1.
        3    1    3    3  502    0  9.56327689918E+01 -1.05477399308E+03  1.82913746855E+03  2.11363139687E+03  0.00000000000E+00 0.00000000000E+00  1.
       23    2    4    4    0    0 -7.13950931844E+01  1.02262051060E+03 -8.27237731476E+02  1.32041060587E+03  9.11698178399E+01 0.00000000000E+00  1.
       22    1    4    4    0    0 -7.18241234556E+01  8.23536038036E+02 -6.42496496924E+02  1.04698235860E+03  8.42936970218E-06 0.00000000000E+00  1.
       -1    1    7    7    0  803 -6.86864572332E+01  1.02302472843E+03 -8.20738543554E+02  1.31335797910E+03  2.66560074985E-05 0.00000000000E+00  1.
        1    1    7    7  803    0 -2.70863595117E+00 -4.04217826502E-01 -6.49918792180E+00  7.05262677377E+00  1.24602468314E-06 0.00000000000E+00  1.
</event>
<event>
10  50   1.0000000E+00   1.2500000E+02   7.8125000E-03   1.2380861E-01
       -1   -1    0    0    0  503  0.00000000000E+00  0.00000000000E+00  4.24211699225E+03  4.24211699225E+03  0.00000000000E+00 0.00000000000E+00  1.
        2   -1    0    0  503    0  0.00000000000E+00  0.00000000000E+00 -3.48200292988E+03  3.48200292988E+03  0.00000000000E+00 0.00000000000E+00  1.
       24    2    1    2    0    0  4.85793134092E+02 -3.47738725302E+03  1.94713562075E+03  4.01563475206E+03  7.59490600338E+01 0.00000000000E+00  1.
       25    2    1    2    0    0 -4.85793134092E+02  3.47738725302E+03 -1.18702155838E+03  3.70848517007E+03  1.25000000000E+02 0.00000000000E+00  1.
      -15    1    3    3    0    0  2.97956437739E+02 -2.30705011147E+03  1.25938172875E+03  2.64524171889E+03  1.77680000042E+00 0.00000000000E+00  1.
       16    1    3    3    0    0  1.87836696352E+02 -1.17033714155E+03  6.87753892001E+02  1.37039303317E+03  2.38418579102E-05 0.00000000000E+00  1.
       23    2    4    4    0    0 -3.82046100907E+02  2.52306981865E+03 -8.63437536256E+02  2.69547390073E+03  9.06346373992E+01 0.00000000000E+00  1.
       22    1    4    4    0    0 -1.03747033185E+02  9.54317434366E+02 -3.23584022124E+02  1.01301126934E+03  1.26440545533E-05 0.00000000000E+00  1.
       -3    1    7    7    0  803 -1.96463868914E+01  2.27270027358E+02 -5.49319744193E+01  2.34638376373E+02  7.30004829998E-06 0.00000000000E+00  1.
        3    1    7    7  803    0 -3.62399714016E+02  2.29579979130E+03 -8.08505561837E+02  2.46083552436E+03  3.15398134120E-05 0.00000000000E+00  1.
</event>
<event>
10  50   1.0000000E+00   1.2500000E+02   7.8125000E-03   1.2380861E-01
       -2   -1    0    0    0  503  0.00000000000E+00  0.00000000000E+00  2.13963140131E+03  2.13963140131E+03  0.00000000000E+00 0.00000000000E+00  1.
        1   -1    0    0  503    0  0.00000000000E+00  0.00000000000E+00 -2.08419565552E+03  2.08419565552E+03  0.00000000000E+00 0.00000000000E+00  1.
      -24    2    1    2    0    0 -5.97885495352E+02 -1.55924140345E+03 -1.26063700127E+03  2.09395070001E+03  8.19943004382E+01 0.00000000000E+00  1.
       25    2    1    2    0    0  5.97885495352E+02  1.55924140345E+03  1.31607274707E+03  2.12987635682E+03  1.25000000000E+02 0.00000000000E+00  1.
      -14    1    3    3    0    0 -5.18768784958E+02 -1.39672384825E+03 -1.09836509319E+03  1.85104414816E+03  4.12953092472E-05 0.00000000000E+00  1.
       13    1    3    3    0    0 -7.91167103935E+01 -1.62517555198E+02 -1.62271908084E+02  2.42906551843E+02  1.05660000454E-01 0.00000000000E+00  1.
       23    2    4    4    0    0  5.98752277163E+02  1.53800304562E+03  1.30481046471E+03  2.10582104227E+03  8.94106006875E+01 0.00000000000E+00  1.
       22    1    4    4    0    0 -8.66781810997E-01  2.12383578324E+01  1.12622823604E+01  2.40553145499E+01  1.53031914729E-06 0.00000000000E+00  1.
       -1    1    7    7    0  803  4.88663256526E+02  1.27018728846E+03  1.03187619608E+03  1.70790398152E+03  2.66560074985E-05 0.00000000000E+00  1.
        1    1    7    7  803    0  1.10089020637E+02  2.67815757160E+02  2.72934268626E+02  3.97917060753E+02  2.98023223877E-06 0.00000000000E+00  1.
</event>
<event>
10  50   1.0000000E+00   1.2500000E+02   7.8125000E-03   1.2380861E-01
        2   -1    0    0  503    0  0.00000000000E+00  0.00000000000E+00  2.25262753363E+03  2.25262753363E+03  0.00000000000E+00 0.00000000000E+00  1.
       -1   -1    0    0    0  503  0.00000000000E+00  0.00000000000E+00 -3.96657857764E+03  3.96657857764E+03  0.00000000000E+00 0.00000000000E+00  1.
       24    2    1    2    0    0 -9.77064525176E+02 -8.44564588710E+02 -3.65874776000E+03  3.88130027540E+03  1.00559562428E+02 0.00000000000E+00  1.
       25    2    1    2    0    0  9.77064525176E+02  8.44564588710E+02  1.94479671600E+03  2.33790583587E+03  1.25000000000E+02 0.00000000000E+00  1.
       -1    1    3    3    0  502 -7.45032599958E+01 -3.55502013808E+01 -2.68064064232E+02  2.80486889357E+02  5.96046447754E-06 0.00000000000E+00  1.
        2    1    3    3  502    0 -9.02561265180E+02 -8.09014387329E+02 -3.39068369577E+03  3.60081338604E+03  4.76837158203E-05 0.00000000000E+00  1.
       23    2    4    4    0    0  6.58411412825E+02  5.60316649815E+02  1.26448050205E+03  1.53468304751E+03  9.42378886284E+01 0.00000000000E+00  1.
       22    1    4    4    0    0  3.18653112351E+02  2.84247938895E+02  6.80316213946E+02  8.03222788356E+02  1.46000966000E-05 0.00000000000E+00  1.
      -12    1    7    7    0    0  2.57773453210E+02  2.79757686934E+02  5.38466189823E+02  6.59285487601E+02  1.33280037493E-05 0.00000000000E+00  1.
       12    1    7    7    0    0  4.00637959615E+02  2.80558962881E+02  7.26014312231E+02  8.75397559913E+02  1.46000966000E-05 0.00000000000E+00  1.
</event>
<event>
10  50   1.0000000E+00   1.2500000E+02   7.8125000E-03   1.2380861E-01
       -1   -1    0    0    0  503  0.00000000000E+00  0.00000000000E+00  5.04967684734E+03  5.04967684734E+03  0.00000000000E+00 0.00000000000E+00  1.
        2   -1    0    0  503    0  0.00000000000E+00  0.00000000000E+00 -2.20700020161E+03  2.20700020161E+03  0.00000000000E+00 0.00000000000E+00  1.
       24    2    1    2    0    0  1.78254532282E+03  2.75699157763E+03  7.72764340702E+02  3.37355558065E+03  7.24026410260E+01 0.00000000000E+00  1.
       25    2    1    2    0    0 -1.78254532282E+03 -2.75699157763E+03  2.06991230502E+03  3.88312146830E+03  1.25000000000E+02 0.00000000000E+00  1.
       -3    1    3    3    0  502  1.37737374944E+03  2.12602438254E+03  6.27276988975E+02  2.60971541393E+03  3.76972873231E-05 0.00000000000E+00  1.
        4    1    3    3  502    0  4.05171573383E+02  6.30967195099E+02  1.45487351727E+02  7.63840166728E+02  1.27499999993E+00 0.00000000000E+00  1.
       23    2    4    4    0    0 -1.47586402106E+03 -2.29383190842E+03  1.66387126975E+03  3.19505197882E+03  7.07900479501E+00 0.00000000000E+00  1.
       22    1    4    4    0    0 -3.06681301757E+02 -4.63159669213E+02  4.06041035271E+02  6.88069489482E+02  1.46000966000E-05 0.00000000000E+00  1.
       -1    1    7    7    0  803 -1.41888214875E+03 -2.20485932678E+03  1.60099418098E+03  3.07210246744E+03  2.38418579102E-05 0.00000000000E+00  1.
        1    1    7    7  803    0 -5.69818723160E+01 -8.89725816405E+01  6.28770887729E+01  1.22949511382E+02  2.47107803103E-06 0.00000000000E+00  1.
</event>
<event>
10  50   1.0000000E+00   1.2500000E+02   7.8125000E-03   1.2380861E-01
       -1   -1    0    0    0  503  0.00000000000E+00  0.00000000000E+00  9.10027752134E+02  9.10027752134E+02  0.00000000000E+00 0.00000000000E+00  1.
        2   -1    0    0  503    0  0.00000000000E+00  0.00000000000E+00 -4.26076420485E+03  4.26076420485E+03  0.00000000000E+00 0.00000000000E+00  1.
       24    2    1    2    0    0 -3.42329413355E+02  2.61706275726E+02  8.44597454107E+02  9.51534772154E+02  7.99622481617E+01 0.00000000000E+00  1.
       25    2    1    2    0    0  3.42329413355E+02 -2.61706275726E+02 -4.19533390682E+03  4.21925718483E+03  1.25000000000E+02 0.00000000000E+00  1.
       -3    1    3    3    0  502 -1.16797290077E+02  8.67828864883E+01  2.07606585035E+02  2.53521932989E+02  8.94069671631E-06 0.00000000000E+00  1.
        4    1    3    3  502    0 -2.25532123278E+02  1.74923389238E+02  6.36990869072E+02  6.98012839165E+02  1.27500000031E+00 0.00000000000E+00  1.
       23    2    4    4    0    0  2.20170575812E+02 -1.73118322084E+02 -3.05384482304E+03  3.06783721996E+03  8.49233127462E+01 0.00000000000E+00  1.
       22    1    4    4    0    0  1.22158837543E+02 -8.85879536416E+01 -1.14148908378E+03  1.15141996487E+03  2.38418579102E-05 0.00000000000E+00  1.
      -11    1    7    7    0    0  1.62216535263E+02 -7.96063618276E+01 -1.72119596999E+03  1.73065506218E+03  5.10794765607E-04 0.00000000000E+00  1.
       11    1    7    7    0    0  5.79540405488E+01 -9.35119602568E+01 -1.33264885306E+03  1.33718215778E+03  5.10794765607E-04 0.00000000000E+00  1.
</event>
<event>
10  50   1.0000000E+00   1.2500000E+02   7.8125000E-03   1.2380861E-01
       -1   -1    0    0    0  503  0.00000000000E+00  0.00000000000E+00  4.47879096309E+03  4.47879096309E+03  0.00000000000E+00 0.00000000000E+00  1.
        2   -1    0    0  503    0  0.00000000000E+00  0.00000000000E+00 -2.45485603890E+03  2.45485603890E+03  0.00000000000E+00 0.00000000000E+00  1.
       24    2    1    2    0    0 -9.39663979863E+02  1.50110675813E+03  3.94078031169E+03  4.32094511812E+03  6.72856185285E+01 0.00000000000E+00  1.
       25    2    1    2    0    0  9.39663979863E+02 -1.50110675813E+03 -1.91684538750E+03  2.61270188386E+03  1.25000000000E+02 0.00000000000E+00  1.
       -3    1    3    3    0  502 -7.52196819438E+02  1.15412708472E+03  3.03388878610E+03  3.33200998637E+03  0.00000000000E+00 0.00000000000E+00  1.
        4    1    3    3  502    0 -1.87467160425E+02  3.46979673417E+02  9.06891525590E+02  9.88935131752E+02  1.27500000003E+00 0.00000000000E+00  1.
       23    2    4    4    0    0  8.80432737524E+02 -1.36800080631E+03 -1.74574191422E+03  2.38797553238E+03  9.06879310284E+01 0.00000000000E+00  1.
       22    1    4    4    0    0  5.92312423390E+01 -1.33105951818E+02 -1.71103473284E+02  2.24726351477E+02  4.71216091539E-06 0.00000000000E+00  1.
      -16    1    7    7    0    0  6.43403012138E+01 -6.23416007953E+01 -9.19533558933E+01  1.28380563989E+02  1.05367121277E-06 0.00000000000E+00  1.
       16    1    7    7    0    0  8.16092436310E+02 -1.30565920552E+03 -1.65378855832E+03  2.25959496839E+03  3.37174788087E-05 0.00000000000E+00  1.
</event>
<event>
10  50   1.0000000E+00   1.2500000E+02   7.8125000E-03   1.2380861E-01
       -2   -1    0    0    0  503  0.00000000000E+00  0.00000000000E+00  2.82242809390E+03  2.82242809390E+03  0.00000000000E+00 0.00000000000E+00  1.
        1   -1    0    0  503    0  0.00000000000E+00  0.00000000000E+00 -1.55531291141E+03  1.55531291141E+03  0.00000000000E+00 0.00000000000E+00  1.
      -24    2    1    2    0    0 -2.02085870199E+03 -4.56284306661E+02  3.25895828393E+02  2.09879736089E+03  8.17129685197E+01 0.00000000000E+00  1.
       25    2    1    2    0    0  2.02085870199E+03  4.56284306661E+02  9.41219354093E+02  2.27894364441E+03  1.25000000000E+02 0.00000000000E+00  1.
      -12    1    3    3    0    0 -1.49751060603E+03 -3.48815896600E+02  2.07128887720E+02  1.55148732545E+03  3.20980835386E-05 0.00000000000E+00  1.
       11    1    3    3    0    0 -5.23348095953E+02 -1.07468410061E+02  1.18766940673E+02  5.47310035442E+02  5.11092451206E-04 0.00000000000E+00  1.
       23    2    4    4    0    0  1.72516742129E+03  4.14496906345E+02  8.20593636755E+02  1.95687209337E+03  8.92421216206E+01 0.00000000000E+00  1.
       22    1    4    4    0    0  2.95691280695E+02  4.17874003165E+01  1.20625717338E+02  3.22071551038E+02  4.94215606206E-06 0.00000000000E+00  1.
       -5    1    7    7    0  803  1.26737505687E+02  5.26259838167E+01  7.32854926002E+01  1.55644516274E+02  4.75000000000E+00 0.00000000000E+00  1.
        5    1    7    7  803    0  1.59842991561E+03  3.61870922528E+02  7.47308144154E+02  1.80122757710E+03  4.75000000005E+00 0.00000000000E+00  1.
</event>
<event>
10  50   1.0000000E+00   1.2500000E+02   7.8125000E-03   1.2380861E-01
        2   -1    0    0  503    0  0.00000000000E+00  0.00000000000E+00  2.49679321376E+03  2.49679321376E+03  0.00000000000E+00 0.00000000000E+00  1.
       -1   -1    0    0    0  503  0.00000000000E+00  0.00000000000E+00 -1.69157051351E+03  1.69157051351E+03  0.00000000000E+00 0.00000000000E+00  1.
       24    2    1    2    0    0  1.27073674548E+03 -1.55511526705E+03  8.32708372450E+02  2.17601787421E+03  9.21693289977E+01 0.00000000000E+00  1.
       25    2    1    2    0    0 -1.27073674548E+03  1.55511526705E+03 -2.74856721923E+01  2.01234585306E+03  1.25000000000E+02 0.00000000000E+00  1.
       -1    1    3    3    0  502  2.74807570581E+02 -3.98429880634E+02  2.03242797067E+02  5.24950669292E+02  8.94069671631E-06 0.00000000000E+00  1.
        2    1    3    3  502    0  9.95929174897E+02 -1.15668538642E+03  6.29465575383E+02  1.65106720492E+03  2.06476546236E-05 0.00000000000E+00  1.
       23    2    4    4    0    0 -8.11610110554E+02  1.01056844448E+03  2.06401754707E+01  1.29845187908E+03  7.47777568175E+01 0.00000000000E+00  1.
       22    1    4    4    0    0 -4.59126634926E+02  5.44546822572E+02 -4.81258476630E+01  7.13893973980E+02  1.50954720299E-05 0.00000000000E+00  1.
       -4    1    7    7    0  803 -2.94424102002E+02  3.99060515552E+02 -2.22036538340E+01  4.96416634271E+02  1.27499999996E+00 0.00000000000E+00  1.
        4    1    7    7  803    0 -5.17186008552E+02  6.11507928925E+02  4.28438293046E+01  8.02035244809E+02  1.27499999996E+00 0.00000000000E+00  1.
</event>
<event>
10  50   1.0000000E+00   1.2500000E+02   7.8125000E-03   1.2380861E-01
       -2   -1    0    0    0  503  0.00000000000E+00  0.00000000000E+00  2.70592798069E+03  2.70592798069E+03  0.00000000000E+00 0.00000000000E+00  1.
        1   -1    0    0  503    0  0.00000000000E+00  0.00000000000E+00 -3.29484388778E+03  3.29484388778E+03  0.00000000000E+00 0.00000000000E+00  1.
      -24    2    1    2    0    0  6.61202851520E+02  2.90679207416E+03 -1.58505779259E+02  2.98622260674E+03  7.59736905189E+01 0.00000000000E+00  1.
       25    2    1    2    0    0 -6.61202851520E+02 -2.90679207416E+03 -4.30410127826E+02  3.01454926173E+03  1.25000000000E+02 0.00000000000E+00  1.
      -16    1    3    3    0    0  5.84409639695E+02  2.44749485329E+03 -1.39137787946E+02  2.52014384667E+03  7.84825925962E-05 0.00000000000E+00  1.
       15    1    3    3    0    0  7.67932118255E+01  4.59297220872E+02 -1.93679913129E+01  4.66078760071E+02  1.77679999996E+00 0.00000000000E+00  1.
       23    2    4    4    0    0 -3.63299705715E+02 -1.54301825086E+03 -2.31434831136E+02  1.60450795237E+03  8.93962499619E+01 0.00000000000E+00  1.
       22    1    4    4    0    0 -2.97903145805E+02 -1.36377382330E+03 -1.98975296690E+02  1.41004130936E+03  1.56284697081E-05 0.00000000000E+00  1.
      -16    1    7    7    0    0 -1.27184729014E+02 -7.34643522429E+02 -1.10780202077E+02  7.53756799978E+02  6.49526557854E-06 0.00000000000E+00  1.
       16    1    7    7    0    0 -2.36114976701E+02 -8.08374728429E+02 -1.20654629059E+02  8.50751152393E+02  1.49011611938E-06 0.00000000000E+00  1.
</event>
<event>
10  50   1.0000000E+00   1.2500000E+02   7.8125000E-03   1.2380861E-01
        2   -1    0    0  503    0  0.00000000000E+00  0.00000000000E+00  3.64124633074E+03  3.64124633074E+03  0.00000000000E+00 0.00000000000E+00  1.
       -1   -1    0    0    0  503  0.00000000000E+00  0.00000000000E+00 -5.92666447010E+03  5.92666447010E+03  0.00000000000E+00 0.00000000000E+00  1.
       24    2    1    2    0    0 -3.72411586719E+03  2.72545657425E+03 -6.05279902519E+02  4.65510691454E+03  8.06479696367E+01 0.00000000000E+00  1.
       25    2    1    2    0    0  3.72411586719E+03 -2.72545657425E+03 -1.68013823683E+03  4.91280388630E+03  1.25000000000E+02 0.00000000000E+00  1.
      -15    1    3    3    0    0 -2.78684383723E+02  2.29547660761E+02 -5.36664741140E+01  3.65021042892E+02  1.77679999996E+00 0.00000000000E+00  1.
       16    1    3    3    0    0 -3.44543148347E+03  2.49590891349E+03 -5.51613428405E+02  4.29008587165E+03  8.51324609344E-05 0.00000000000E+00  1.
       23    2    4    4    0    0  2.97094092243E+03 -2.19717598553E+03 -1.32357467246E+03  3.92614768820E+03  9.33460226464E+01 0.00000000000E+00  1.
       22    1    4    4    0    0  7.53174944756E+02 -5.28280588717E+02 -3.56563564365E+02  9.86656198103E+02  1.78813934326E-05 0.00000000000E+00  1.
       -5    1    7    7    0  803  2.41868512329E+03 -1.74454775730E+03 -1.07687572526E+03  3.17067319245E+03  4.74999999999E+00 0.00000000000E+00  1.
        5    1    7    7  803    0  5.52255799140E+02 -4.52628228229E+02 -2.46698947208E+02  7.55474495748E+02  4.74999999999E+00 0.00000000000E+00  1.
</event>
<event>
10  50   1.0000000E+00   1.2500000E+02   7.8125000E-03   1.2380861E-01
       -1   -1    0    0    0  503  0.00000000000E+00  0.00000000000E+00  4.71320299030E+03  4.71320299030E+03  0.00000000000E+00 0.00000000000E+00  1.
        2   -1    0    0  503    0  0.00000000000E+00  0.00000000000E+00 -2.61199297877E+03  2.61199297877E+03  0.00000000000E+00 0.00000000000E+00  1.
       24    2    1    2    0    0  1.03346372620E+03 -2.33373415672E+03  3.56123556503E+03  4.38212580264E+03  7.91543609223E+01 0.00000000000E+00  1.
       25    2    1    2    0    0 -1.03346372620E+03  2.33373415672E+03 -1.46002555350E+03  2.94307016643E+03  1.25000000000E+02 0.00000000000E+00  1.
       -1    1    3    3    0  502  1.03335302351E+03 -2.33301844418E+03  3.55548785213E+03  4.37633264261E+03  9.53674316406E-05 0.00000000000E+00  1.
        2    1    3    3  502    0  1.10702687642E-01 -7.15712540509E-01  5.74771290210E+00  5.79316002978E+00  1.34800698852E-06 0.00000000000E+00  1.
       23    2    4    4    0    0 -9.34414839421E+02  2.13298089403E+03 -1.35554760814E+03  2.69603131216E+03  9.13068002980E+01 0.00000000000E+00  1.
       22    1    4    4    0    0 -9.90488867788E+01  2.00753262690E+02 -1.04477945359E+02  2.47038854271E+02  6.82856991135E-06 0.00000000000E+00  1.
       -3    1    7    7    0  803 -1.03197959485E+02  2.46605294900E+02 -1.23077885342E+02  2.94299432848E+02  3.94247667650E-06 0.00000000000E+00  1.
        3    1    7    7  803    0 -8.31216879936E+02  1.88637559913E+03 -1.23246972280E+03  2.40173187931E+03  3.37174788087E-05 0.00000000000E+00  1.
</event>
<event>
10  50   1.0000000E+00   1.2500000E+02   7.8125000E-03   1.2380861E-01
        2   -1    0    0  503    0  0.00000000000E+00  0.00000000000E+00  1.93717727060E+03  1.93717727060E+03  0.00000000000E+00 0.00000000000E+00  1.
       -1   -1    0    0    0  503  0.00000000000E+00  0.00000000000E+00 -4.04930703993E+03  4.04930703993E+03  0.00000000000E+00 0.00000000000E+00  1.
       24    2    1    2    0    0  4.51752297815E+02  2.05706976964E+02  1.88796709377E+03  1.95376867300E+03  7.99798819339E+01 0.00000000000E+00  1.
       25    2    1    2    0    0 -4.51752297815E+02 -2.05706976964E+02 -4.00009686310E+03  4.03271563753E+03  1.25000000000E+02 0.00000000000E+00  1.
      -15    1    3    3    0    0  2.81757548454E+02  1.15249135432E+02  1.00734925705E+03  1.05234279682E+03  1.77680000014E+00 0.00000000000E+00  1.
       16    1    3    3    0    0  1.69994749361E+02  9.04578415322E+01  8.80617836716E+02  9.01425876181E+02  1.68587394044E-05 0.00000000000E+00  1.
       23    2    4    4    0    0 -3.36997573156E+02 -1.85595186296E+02 -3.08706963574E+03  3.11228538549E+03  9.11506850540E+01 0.00000000000E+00  1.
       22    1    4    4    0    0 -1.14754724659E+02 -2.01117906680E+01 -9.13027227364E+02  9.20430252036E+02  1.19209289551E-05 0.00000000000E+00  1.
      -13    1    7    7    0    0 -5.98920719451E+01  2.86509798591E+00 -4.26942070273E+02  4.31132011803E+02  1.05660000160E-01 0.00000000000E+00  1.
       13    1    7    7    0    0 -2.77105501211E+02 -1.88460284282E+02 -2.66012756546E+03  2.68115337369E+03  1.05659986206E-01 0.00000000000E+00  1.
</event>
<event>
10  50   1.0000000E+00   1.2500000E+02   7.8125000E-03   1.2380861E-01
       -1   -1    0    0    0  503  0.00000000000E+00  0.00000000000E+00  1.43062834143E+03  1.43062834143E+03  0.00000000000E+00 0.00000000000E+00  1.
        2   -1    0    0  503    0  0.00000000000E+00  0.00000000000E+00 -2.50307489538E+03  2.50307489538E+03  0.00000000000E+00 0.00000000000E+00  1.
       24    2    1    2    0    0  1.64776271283E+03 -9.18156367742E+02 -4.23118366226E+02  1.93485727757E+03  8.06874173336E+01 0.00000000000E+00  1.
       25    2    1    2    0    0 -1.64776271283E+03  9.18156367742E+02 -6.49328187719E+02  1.99884595924E+03  1.25000000000E+02 0.00000000000E+00  1.
      -15    1    3    3    0    0  8.21805764249E+02 -4.12579256977E+02 -2.13759807072E+02  9.44077734924E+02  1.77679999993E+00 0.00000000000E+00  1.
       16    1    3    3    0    0  8.25956948577E+02 -5.05577110766E+02 -2.09358559154E+02  9.90779542645E+02  1.83713853448E-05 0.00000000000E+00  1.
       23    2    4    4    0    0 -1.62785496502E+03  9.11550827728E+02 -6.32859186678E+02  1.97217800887E+03  9.02144657412E+01 0.00000000000E+00  1.
       22    1    4    4    0    0 -1.99077478094E+01  6.60554001445E+00 -1.64690010410E+01  2.66679503714E+01  6.96937998156E-07 0.00000000000E+00  1.
       -2    1    7    7    0  803 -1.49261050568E+03  8.11378199772E+02 -5.90981800031E+02  1.79874405981E+03  3.57627868652E-05 0.00000000000E+00  1.
        2    1    7    7  803    0 -1.35244459340E+02  1.00172627956E+02 -4.18773866466E+01  1.73433949058E+02  4.97015717034E-06 0.00000000000E+00  1.
</event>
<event>
10  50   1.0000000E+00   1.2500000E+02   7.8125000E-03   1.2380861E-01
       -2   -1    0    0    0  503  0.00000000000E+00  0.00000000000E+00  2.79049071958E+03  2.79049071958E+03  0.00000000000E+00 0.00000000000E+00  1.
        1   -1    0    0  503    0  0.00000000000E+00  0.00000000000E+00 -1.68170190462E+03  1.68170190462E+03  0.00000000000E+00 0.00000000000E+00  1.
      -24    2    1    2    0    0  2.80010447596E+02  2.14020562499E+03  7.09880898349E+02  2.27363889641E+03  8.13447813672E+01 0.00000000000E+00  1.
       25    2    1    2    0    0 -2.80010447596E+02 -2.14020562499E+03  3.98907916615E+02  2.19855372778E+03  1.25000000000E+02 0.00000000000E+00  1.
       -2    1    3    3    0  502  1.21645178411E+02  1.18682412889E+03  4.16263471220E+02  1.26357601268E+03  1.03238273118E-05 0.00000000000E+00  1.
        1    1    3    3  502    0  1.58365269185E+02  9.53381496100E+02  2.93617427129E+02  1.01006288374E+03  1.39785282607E-05 0.00000000000E+00  1.
       23    2    4    4    0    0 -2.38628432267E+02 -1.78927649342E+03  3.61328312945E+02  1.84320044837E+03  9.15196401612E+01 0.00000000000E+00  1.
       22    1    4    4    0    0 -4.13820153292E+01 -3.50929131571E+02  3.75796036703E+01  3.55353279414E+02  9.12506037497E-07 0.00000000000E+00  1.
      -14    1    7    7    0    0 -1.88762443299E+01 -4.23119681251E+02  7.37148336746E+01  4.29907494661E+02  4.59284633619E-06 0.00000000000E+00  1.
       14    1    7    7    0    0 -2.19752187937E+02 -1.36615681217E+03  2.87613479270E+02  1.41329295371E+03  2.10734242554E-05 0.00000000000E+00  1.
</event>
<event>
10  50   1.0000000E+00   1.2500000E+02   7.8125000E-03   1.2380861E-01
        2   -1    0    0  503    0  0.00000000000E+00  0.00000000000E+00  1.26103545786E+03  1.26103545786E+03  0.00000000000E+00 0.00000000000E+00  1.
       -3   -1    0    0    0  503  0.00000000000E+00  0.00000000000E+00 -4.72465429171E+03  4.72465429171E+03  0.00000000000E+00 0.00000000000E+00  1.
       24    2    1    2    0    0 -3.93574956695E+02 -4.25414072243E+02  1.17290588939E+03  1.31141281204E+03  9.06474424599E+01 0.00000000000E+00  1.
       25    2    1    2    0    0  3.93574956695E+02  4.25414072243E+02 -4.63652472324E+03  4.67427693752E+03  1.25000000000E+02 0.00000000000E+00  1.
       -3    1    3    3    0  502 -1.37692784184E+01 -3.68572357047E+01  1.24541821502E+02  1.30609012534E+02  4.47034835815E-06 0.00000000000E+00  1.
        4    1    3    3  502    0 -3.79805678277E+02 -3.88556836538E+02  1.04836406789E+03  1.18080379951E+03  1.27500000020E+00 0.00000000000E+00  1.
       23    2    4    4    0    0  3.88889082657E+02  4.27663135711E+02 -4.61796147092E+03  4.65499974793E+03  9.65610171056E+01 0.00000000000E+00  1.
       22    1    4    4    0    0  4.68587403817E+00 -2.24906346785E+00 -1.85632523185E+01  1.92771895935E+01  2.63417803193E-07 0.00000000000E+00  1.
       -3    1    7    7    0  803  5.51005822197E+01  8.21338627446E+01 -1.08994131359E+03  1.09441953228E+03  2.38418579102E-05 0.00000000000E+00  1.
        3    1    7    7  803    0  3.33788500437E+02  3.45529272966E+02 -3.52802015733E+03  3.56058021564E+03  0.00000000000E+00 0.00000000000E+00  1.
</event>
<event>
10  50   1.0000000E+00   1.2500000E+02   7.8125000E-03   1.2380861E-01
       -2   -1    0    0    0  503  0.00000000000E+00  0.00000000000E+00  1.84658513440E+03  1.84658513440E+03  0.00000000000E+00 0.00000000000E+00  1.
        1   -1    0    0  503    0  0.00000000000E+00  0.00000000000E+00 -2.85773339985E+03  2.85773339985E+03  0.00000000000E+00 0.00000000000E+00  1.
      -24    2    1    2    0    0 -1.18748915902E+03 -1.50329799732E+03  7.88335081650E+02  2.07300694342E+03  7.64866980162E+01 0.00000000000E+00  1.
       25    2    1    2    0    0  1.18748915902E+03  1.50329799732E+03 -1.79948334710E+03  2.63131159083E+03  1.25000000000E+02 0.00000000000E+00  1.
       -4    1    3    3    0  502 -7.35017216757E+02 -8.69918158484E+02  4.67705796557E+02  1.23116134164E+03  1.27499999984E+00 0.00000000000E+00  1.
        3    1    3    3  502    0 -4.52471942267E+02 -6.33379838838E+02  3.20629285093E+02  8.41845601785E+02  2.63206984589E-05 0.00000000000E+00  1.
       23    2    4    4    0    0  9.01399450201E+02  1.16426832986E+03 -1.42326435889E+03  2.04965089593E+03  8.57067507988E+01 0.00000000000E+00  1.
       22    1    4    4    0    0  2.86089708819E+02  3.39029667458E+02 -3.76218988208E+02  5.81660694905E+02  1.11510079705E-05 0.00000000000E+00  1.
      -16    1    7    7    0    0  3.21715242194E+01  3.25363071245E+01 -2.67743559377E+01  5.30140018087E+01  2.66038940420E-06 0.00000000000E+00  1.
       16    1    7    7    0    0  8.69227925982E+02  1.13173202274E+03 -1.39649000295E+03  1.99663689412E+03  0.00000000000E+00 0.00000000000E+00  1.
</event>
<event>
10  50   1.0000000E+00   1.2500000E+02   7.8125000E-03   1.2380861E-01
        2   -1    0    0  503    0  0.00000000000E+00  0.00000000000E+00  2.65527847952E+03  2.65527847952E+03  0.00000000000E+00 0.00000000000E+00  1.
       -1   -1    0    0    0  503  0.00000000000E+00  0.00000000000E+00 -9.52207719717E+02  9.52207719717E+02  0.00000000000E+00 0.00000000000E+00  1.
       24    2    1    2    0    0  1.45763715001E+03  4.15419338714E+02  1.38290523741E+03  2.05332718235E+03  8.02890656057E+01 0.00000000000E+00  1.
       25    2    1    2    0    0 -1.45763715001E+03 -4.15419338714E+02  3.20165522395E+02  1.55415901689E+03  1.25000000000E+02 0.00000000000E+00  1.
       -1    1    3    3    0  502  3.46838851195E+02  6.90478627032E+01  3.47233341399E+02  4.95616575007E+02  0.00000000000E+00 0.00000000000E+00  1.
        2    1    3    3  502    0  1.11079829881E+03  3.46371476011E+02  1.03567189601E+03  1.55771060734E+03  0.00000000000E+00 0.00000000000E+00  1.
       23    2    4    4    0    0 -8.54777373547E+02 -2.29917450072E+02  1.84814838344E+02  9.09046105501E+02  9.32840033459E+01 0.00000000000E+00  1.
       22    1    4    4    0    0 -6.02859776463E+02 -1.85501888642E+02  1.35350684051E+02  6.45112911389E+02  6.98926413033E-06 0.00000000000E+00  1.
       -2    1    7    7    0  803 -5.01477841351E+02 -9.79416262032E+01  1.36099805798E+02  5.28768138836E+02  9.18569267239E-06 0.00000000000E+00  1.
        2    1    7    7  803    0 -3.53299532195E+02 -1.31975823869E+02  4.87150325457E+01  3.80277966666E+02  4.99800140597E-06 0.00000000000E+00  1.
</event>
<event>
10  50   1.0000000E+00   1.2500000E+02   7.8125000E-03   1.2380861E-01
        2   -1    0    0  503    0  0.00000000000E+00  0.00000000000E+00  2.76879671932E+03  2.76879671932E+03  0.00000000000E+00 0.00000000000E+00  1.
       -1   -1    0    0    0  503  0.00000000000E+00  0.00000000000E+00 -4.20139073371E+03  4.20139073371E+03  0.00000000000E+00 0.00000000000E+00  1.
       24    2    1    2    0    0  6.78843227280E+02 -2.79418566317E+03  1.15480729711E+03  3.09997141329E+03  8.91135356696E+01 0.00000000000E+00  1.
       25    2    1    2    0    0 -6.78843227280E+02  2.79418566317E+03 -2.58740131150E+03  3.87021603974E+03  1.25000000000E+02 0.00000000000E+00  1.
       -3    1    3    3    0  502  6.06346139673E+02 -2.42256612696E+03  1.02906976814E+03  2.70101219329E+03  2.38418579102E-05 0.00000000000E+00  1.
        4    1    3    3  502    0  7.24970876064E+01 -3.71619536209E+02  1.25737528968E+02  3.98959219996E+02  1.27500000007E+00 0.00000000000E+00  1.
       23    2    4    4    0    0 -1.52759836831E+02  8.44956211377E+02 -7.58426326224E+02  1.14598978515E+03  2.82051140832E+01 0.00000000000E+00  1.
       22    1    4    4    0    0 -5.26083390449E+02  1.94922945179E+03 -1.82897498528E+03  2.72422625459E+03  4.76837158203E-05 0.00000000000E+00  1.
      -15    1    7    7    0    0 -1.23531417239E+02  7.05800743913E+02 -6.45317902148E+02  9.64288884621E+02  1.77680000016E+00 0.00000000000E+00  1.
       15    1    7    7    0    0 -2.92284195919E+01  1.39155467464E+02 -1.13108424076E+02  1.81700900527E+02  1.77680000000E+00 0.00000000000E+00  1.
</event>
<event>
10  50   1.0000000E+00   1.2500000E+02   7.8125000E-03   1.2380861E-01
        2   -1    0    0  503    0  0.00000000000E+00  0.00000000000E+00  3.17270046819E+03  3.17270046819E+03  0.00000000000E+00 0.00000000000E+00  1.
       -1   -1    0    0    0  503  0.00000000000E+00  0.00000000000E+00 -2.07721660276E+03  2.07721660276E+03  0.00000000000E+00 0.00000000000E+00  1.
       24    2    1    2    0    0  1.89852451340E+03 -1.22430097406E+03 -6.94807337948E+02  2.36476962308E+03  7.79097574960E+01 0.00000000000E+00  1.
       25    2    1    2    0    0 -1.89852451340E+03  1.22430097406E+03  1.79029120338E+03  2.88514744787E+03  1.25000000000E+02 0.00000000000E+00  1.
      -11    1    3    3    0    0  1.43405732561E+02 -6.89329770775E+01 -4.67302614077E+01  1.65833280109E+02  5.10927333170E-04 0.00000000000E+00  1.
       12    1    3    3    0    0  1.75511878084E+03 -1.15536799698E+03 -6.48077076541E+02  2.19893634297E+03  5.39743014463E-05 0.00000000000E+00  1.
       23    2    4    4    0    0 -1.68921523823E+03  1.12103992545E+03  1.63892195038E+03  2.60696429312E+03  4.36241345455E+00 0.00000000000E+00  1.
       22    1    4    4    0    0 -2.09309275169E+02  1.03261048611E+02  1.51369253001E+02  2.78183154749E+02  5.96046447754E-06 0.00000000000E+00  1.
       -2    1    7    7    0  803 -1.49956862621E+03  9.94651497343E+02  1.45636007523E+03  2.31495622736E+03  1.68587394044E-05 0.00000000000E+00  1.
        2    1    7    7  803    0 -1.89646612019E+02  1.26388428106E+02  1.82561875148E+02  2.92008065757E+02  6.32202727663E-06 0.00000000000E+00  1.
</event>
<event>
10  50   1.0000000E+00   1.2500000E+02   7.8125000E-03   1.2380861E-01
       -2   -1    0    0    0  503  0.00000000000E+00  0.00000000000E+00  3.22752082914E+03  3.22752082914E+03  0.00000000000E+00 0.00000000000E+00  1.
        1   -1    0    0  503    0  0.00000000000E+00  0.00000000000E+00 -3.90958084832E+03  3.90958084832E+03  0.00000000000E+00 0.00000000000E+00  1.
      -24    2    1    2    0    0  8.47361520488E+02 -2.81205911702E+02  3.11139762151E+03  3.23799355087E+03  8.19070517229E+01 0.00000000000E+00  1.
       25    2    1    2    0    0 -8.47361520488E+02  2.81205911702E+02 -3.79345764068E+03  3.89910812659E+03  1.25000000000E+02 0.00000000000E+00  1.
      -16    1    3    3    0    0  6.84275410554E+02 -2.60137558306E+02  2.52771637293E+03  2.63158781892E+03  6.74349576174E-05 0.00000000000E+00  1.
       15    1    3    3    0    0  1.63086109933E+02 -2.10683533958E+01  5.83681248582E+02  6.06405731943E+02  1.77680000000E+00 0.00000000000E+00  1.
       23    2    4    4    0    0 -6.58227340163E+02  2.19724049069E+02 -2.81957467766E+03  2.90512634443E+03  9.06411889701E+01 0.00000000000E+00  1.
       22    1    4    4    0    0 -1.89134180325E+02  6.14818626329E+01 -9.73882963021E+02  9.93981782159E+02  0.00000000000E+00 0.00000000000E+00  1.
       -5    1    7    7    0  803 -6.45309065647E+02  2.00576986444E+02 -2.70351361773E+03  2.78669398418E+03  4.74999999984E+00 0.00000000000E+00  1.
        5    1    7    7  803    0 -1.29182745155E+01  1.91470626248E+01 -1.16061059926E+02  1.18432360252E+02  4.75000000000E+00 0.00000000000E+00  1.
</event>
<event>
10  50   1.0000000E+00   1.2500000E+02   7.8125000E-03   1.2380861E-01
       -1   -1    0    0    0  503  0.00000000000E+00  0.00000000000E+00  1.78419622736E+03  1.78419622736E+03  0.00000000000E+00 0.00000000000E+00  1.
        2   -1    0    0  503    0  0.00000000000E+00  0.00000000000E+00 -2.88902120700E+03  2.88902120700E+03  0.00000000000E+00 0.00000000000E+00  1.
       24    2    1    2    0    0  1.24533041168E+03  2.44939931002E+02  1.38193220110E+03  1.87850283711E+03  9.05146205946E+01 0.00000000000E+00  1.
       25    2    1    2    0    0 -1.24533041168E+03 -2.44939931002E+02 -2.48675718075E+03  2.79471459724E+03  1.25000000000E+02 0.00000000000E+00  1.
      -15    1    3    3    0    0  2.34157794555E+01  8.69429252894E+00  4.80711936529E+01  5.42022705017E+01  1.77680000000E+00 0.00000000000E+00  1.
       16    1    3    3    0    0  1.22191463223E+03  2.36245638473E+02  1.33386100745E+03  1.82430056661E+03  3.37174788087E-05 0.00000000000E+00  1.
       23    2    4    4    0    0 -6.38334436938E+02 -6.31095023200E+01 -1.26435323856E+03  1.41784212093E+03  1.52808819270E+01 0.00000000000E+00  1.
       22    1    4    4    0    0 -6.06995974742E+02 -1.81830428682E+02 -1.22240394219E+03  1.37687247631E+03  3.37174788087E-05 0.00000000000E+00  1.
       -3    1    7    7    0  803 -4.98876383678E+02 -4.84617401930E+01 -9.73930191116E+02  1.09533839685E+03  1.19209289551E-05 0.00000000000E+00  1.
        3    1    7    7  803    0 -1.39458053260E+02 -1.46477621270E+01 -2.90423047448E+02  3.22503724076E+02  5.96046447754E-06 0.00000000000E+00  1.
</event>
<event>
10  50   1.0000000E+00   1.2500000E+02   7.8125000E-03   1.2380861E-01
       -1   -1    0    0    0  503  0.00000000000E+00  0.00000000000E+00  4.86768287536E+03  4.86768287536E+03  0.00000000000E+00 0.00000000000E+00  1.
        2   -1    0    0  503    0  0.00000000000E+00  0.00000000000E+00 -2.00713280866E+03  2.00713280866E+03  0.00000000000E+00 0.00000000000E+00  1.
       24    2    1    2    0    0 -4.23987880589E+02  8.76002701895E+02 -1.83456233158E+03  2.07826985508E+03  8.02507661855E+01 0.00000000000E+00  1.
       25    2    1    2    0    0  4.23987880589E+02 -8.76002701895E+02  4.69511239828E+03  4.79654582894E+03  1.25000000000E+02 0.00000000000E+00  1.
       -3    1    3    3    0  502 -1.30012903290E+02  2.99364913692E+02 -6.92192674789E+02  7.65279952437E+02  3.03925246810E-05 0.00000000000E+00  1.
        4    1    3    3  502    0 -2.93974977299E+02  5.76637788204E+02 -1.14236965679E+03  1.31298990264E+03  1.27499999959E+00 0.00000000000E+00  1.
       23    2    4    4    0    0  2.85325082422E+02 -6.55478771843E+02  3.50122041581E+03  3.57456537037E+03  8.89402269325E+01 0.00000000000E+00  1.
       22    1    4    4    0    0  1.38662798167E+02 -2.20523930052E+02  1.19389198247E+03  1.22198045857E+03  1.68587394044E-05 0.00000000000E+00  1.
       -2    1    7    7    0  803  2.63408716423E+02 -6.19915798201E+02  3.37675926165E+03  3.44328082791E+03  4.76837158203E-05 0.00000000000E+00  1.
        2    1    7    7  803    0  2.19163659989E+01 -3.55629736415E+01  1.24461154167E+02  1.31284542462E+02  4.47034835815E-06 0.00000000000E+00  1.
</event>
<event>
10  50   1.0000000E+00   1.2500000E+02   7.8125000E-03   1.2380861E-01
       -1   -1    0    0    0  503  0.00000000000E+00  0.00000000000E+00  4.40210134061E+03  4.40210134061E+03  0.00000000000E+00 0.00000000000E+00  1.
        2   -1    0    0  503    0  0.00000000000E+00  0.00000000000E+00 -2.40720444047E+03  2.40720444047E+03  0.00000000000E+00 0.00000000000E+00  1.
       24    2    1    2    0    0  2.15621185243E+03 -1.90105138902E+02  3.53777444822E+03  4.14819968685E+03  7.95177907588E+01 0.00000000000E+00  1.
       25    2    1    2    0    0 -2.15621185243E+03  1.90105138902E+02 -1.54287754809E+03  2.66110609424E+03  1.25000000000E+02 0.00000000000E+00  1.
       -3    1    3    3    0  502  4.95482426915E+02 -7.44173504860E+01  7.92502381912E+02  9.37603755737E+02  1.46000966000E-05 0.00000000000E+00  1.
        4    1    3    3  502    0  1.66072942551E+03 -1.15687788416E+02  2.74527206631E+03  3.21059593111E+03  1.27500000048E+00 0.00000000000E+00  1.
       23    2    4    4    0    0 -1.72893492895E+03  1.06445427520E+02 -1.22020904252E+03  2.11918406928E+03  3.85278402050E+01 0.00000000000E+00  1.
       22    1    4    4    0    0 -4.27276923481E+02  8.36597113823E+01 -3.22668505569E+02  5.41922024958E+02  4.21468485109E-06 0.00000000000E+00  1.
      -11    1    7    7    0    0 -1.03888902958E+02 -2.05408131858E+00 -7.75357415860E+01  1.29649198345E+02  5.10994690391E-04 0.00000000000E+00  1.
       11    1    7    7    0    0 -1.62504602599E+03  1.08499508838E+02 -1.14267330094E+03  1.98953487094E+03  5.12461310868E-04 0.00000000000E+00  1.
</event>
<event>
10  50   1.0000000E+00   1.2500000E+02   7.8125000E-03   1.2380861E-01
       -1   -1    0    0    0  503  0.00000000000E+00  0.00000000000E+00  4.71137765492E+03  4.71137765492E+03  0.00000000000E+00 0.00000000000E+00  1.
        2   -1    0    0  503    0  0.00000000000E+00  0.00000000000E+00 -2.88774852687E+03  2.88774852687E+03  0.00000000000E+00 0.00000000000E+00  1.
       24    2    1    2    0    0  3.22930895249E+03  1.77893792988E+03  8.76900450310E+02  3.79058621768E+03  8.08270059580E+01 0.00000000000E+00  1.
       25    2    1    2    0    0 -3.22930895249E+03 -1.77893792988E+03  9.46728677741E+02  3.80853996412E+03  1.25000000000E+02 0.00000000000E+00  1.
       -3    1    3    3    0  502  1.59495387715E+03  8.58059407344E+02  4.67916148739E+02  1.87058529317E+03  4.87885044329E-05 0.00000000000E+00  1.
        4    1    3    3  502    0  1.63435507534E+03  9.20878522535E+02  4.08984301571E+02  1.92000092451E+03  1.27500000030E+00 0.00000000000E+00  1.
       23    2    4    4    0    0 -2.25516522296E+03 -1.21490549474E+03  6.75781791764E+02  2.65073997764E+03  8.93076423460E+01 0.00000000000E+00  1.
       22    1    4    4    0    0 -9.74143729527E+02 -5.64032435137E+02  2.70946885977E+02  1.15779998648E+03  4.21468485109E-06 0.00000000000E+00  1.
       -2    1    7    7    0  803 -1.32881694440E+03 -7.65172746264E+02  3.98405437127E+02  1.58428870339E+03  2.63206984589E-05 0.00000000000E+00  1.
        2    1    7    7  803    0 -9.26348278559E+02 -4.49732748479E+02  2.77376354637E+02  1.06645127425E+03  1.68587394044E-05 0.00000000000E+00  1.
</event>
<event>
10  50   1.0000000E+00   1.2500000E+02   7.8125000E-03   1.2380861E-01
        1   -1    0    0  503    0  0.00000000000E+00  0.00000000000E+00  2.93010602402E+03  2.93010602402E+03  0.00000000000E+00 0.00000000000E+00  1.
       -2   -1    0    0    0  503  0.00000000000E+00  0.00000000000E+00 -4.34810270596E+03  4.34810270596E+03  0.00000000000E+00 0.00000000000E+00  1.
      -24    2    1    2    0    0  2.18573475128E+03 -2.14538136606E+03 -2.57472203311E+03  4.00197062099E+03  8.04841268040E+01 0.00000000000E+00  1.
       25    2    1    2    0    0 -2.18573475128E+03  2.14538136606E+03  1.15672535116E+03  3.27623810899E+03  1.25000000000E+02 0.00000000000E+00  1.
       -2    1    3    3    0  502  2.90094149480E+02 -2.50145947149E+02 -3.09037476809E+02  4.92170470986E+02  1.57699067060E-05 0.00000000000E+00  1.
        1    1    3    3  502    0  1.89564060180E+03 -1.89523541891E+03 -2.26568455630E+03  3.50980015000E+03  6.74349576174E-05 0.00000000000E+00  1.
       23    2    4    4    0    0 -1.55089297681E+03  1.49508804232E+03  8.36716822661E+02  2.31274916571E+03  9.03126921098E+01 0.00000000000E+00  1.
       22    1    4    4    0    0 -6.34841774474E+02  6.50293323741E+02  3.20008528499E+02  9.63488943285E+02  1.93141123605E-05 0.00000000000E+00  1.
       -3    1    7    7    0  803 -3.93083902365E+02  4.27570113176E+02  2.46411087434E+02  6.30911705384E+02  7.88495335300E-06 0.00000000000E+00  1.
        3    1    7    7  803    0 -1.15780907444E+03  1.06751792914E+03  5.90305735227E+02  1.68183746032E+03  3.03925246810E-05 0.00000000000E+00  1.
</event>
<event>
10  50   1.0000000E+00   1.2500000E+02   7.8125000E-03   1.2380861E-01
       -1   -1    0    0    0  503  0.00000000000E+00  0.00000000000E+00  5.21944400905E+03  5.21944400905E+03  0.00000000000E+00 0.00000000000E+00  1.
        2   -1    0    0  503    0  0.00000000000E+00  0.00000000000E+00 -1.95350414333E+03  1.95350414333E+03  0.00000000000E+00 0.00000000000E+00  1.
       24    2    1    2    0    0  2.38324579720E+03  2.00683876048E+03  8.71749228463E+02  3.24165877764E+03  2.02836320450E+02 0.00000000000E+00  1.
       25    2    1    2    0    0 -2.38324579720E+03 -2.00683876048E+03  2.39419063725E+03  3.93128937474E+03  1.25000000000E+02 0.00000000000E+00  1.
      -11    1    3    3    0    0  9.58470858229E+02  7.08058045339E+02  2.67730660172E+02  1.22134855305E+03  5.11324829641E-04 0.00000000000E+00  1.
       12    1    3    3    0    0  1.42477493897E+03  1.29878071514E+03  6.04018568291E+02  2.02031022459E+03  2.92001931999E-05 0.00000000000E+00  1.
       23    2    4    4    0    0 -2.09413246315E+03 -1.76344294359E+03  2.13520373740E+03  3.47313846303E+03  9.20543028334E+01 0.00000000000E+00  1.
       22    1    4    4    0    0 -2.89113334051E+02 -2.43395816887E+02  2.58986899854E+02  4.58150911709E+02  8.42936970218E-06 0.00000000000E+00  1.
       -1    1    7    7    0  803 -1.05031881789E+03 -8.88981933667E+02  1.13137574948E+03  1.78142347130E+03  3.37174788087E-05 0.00000000000E+00  1.
        1    1    7    7  803    0 -1.04381364526E+03 -8.74461009926E+02  1.00382798792E+03  1.69171499173E+03  3.37174788087E-05 0.00000000000E+00  1.
</event>
<event>
10  50   1.0000000E+00   1.2500000E+02   7.8125000E-03   1.2380861E-01
        1   -1    0    0  503    0  0.00000000000E+00  0.00000000000E+00  4.83703564249E+03  4.83703564249E+03  0.00000000000E+00 0.00000000000E+00  1.
       -2   -1    0    0    0  503  0.00000000000E+00  0.00000000000E+00 -5.03293277741E+03  5.03293277741E+03  0.00000000000E+00 0.00000000000E+00  1.
      -24    2    1    2    0    0 -4.75869168225E+03  3.13852550130E+02 -1.35914739651E+03  4.95952789779E+03  7.73651961357E+01 0.00000000000E+00  1.
       25    2    1    2    0    0  4.75869168225E+03 -3.13852550130E+02  1.16325026160E+03  4.91044052210E+03  1.25000000000E+02 0.00000000000E+00  1.
      -16    1    3    3    0    0 -2.22837750433E+03  1.85511713935E+02 -6.40471153948E+02  2.32600176201E+03  2.92001931999E-05 0.00000000000E+00  1.
       15    1    3    3    0    0 -2.53031417792E+03  1.28340836196E+02 -7.18676242567E+02  2.63352613579E+03  1.77679999970E+00 0.00000000000E+00  1.
       23    2    4    4    0    0  4.13165191908E+03 -2.62908876543E+02  9.84502339672E+02  4.25643368569E+03  9.11822684051E+01 0.00000000000E+00  1.
       22    1    4    4    0    0  6.27039763171E+02 -5.09436735868E+01  1.78747921928E+02  6.54006836409E+02  1.39785282607E-05 0.00000000000E+00  1.
       -2    1    7    7    0  803  3.17518419623E+03 -1.88483459652E+02  7.93279548296E+02  3.27820272959E+03  2.66560074985E-05 0.00000000000E+00  1.
        2    1    7    7  803    0  9.56467722848E+02 -7.44254168911E+01  1.91222791375E+02  9.78230956099E+02  1.17331860572E-05 0.00000000000E+00  1.
</event>
<event>
10  50   1.0000000E+00   1.2500000E+02   7.8125000E-03   1.2380861E-01
        2   -1    0    0  503    0  0.00000000000E+00  0.00000000000E+00  2.49575885864E+03  2.49575885864E+03  0.00000000000E+00 0.00000000000E+00  1.
       -1   -1    0    0    0  503  0.00000000000E+00  0.00000000000E+00 -5.76658283610E+03  5.76658283610E+03  0.00000000000E+00 0.00000000000E+00  1.
       24    2    1    2    0    0  1.38194875535E+03  3.52518002785E+03 -1.86426791848E+03  4.22121542373E+03  8.05493045223E+01 0.00000000000E+00  1.
       25    2    1    2    0    0 -1.38194875535E+03 -3.52518002785E+03 -1.40655605899E+03  4.04112627101E+03  1.25000000000E+02 0.00000000000E+00  1.
      -13    1    3    3    0    0  5.22562743082E+02  1.22959117791E+03 -6.49248482825E+02  1.48542582745E+03  1.05659999991E-01 0.00000000000E+00  1.
       14    1    3    3    0    0  8.59386012269E+02  2.29558884994E+03 -1.21501943565E+03  2.73578959627E+03  4.12953092472E-05 0.00000000000E+00  1.
       23    2    4    4    0    0 -8.73160565928E+02 -2.32861101367E+03 -9.38244980962E+02  2.65911393633E+03  7.57935038909E+01 0.00000000000E+00  1.
       22    1    4    4    0    0 -5.08788189422E+02 -1.19656901418E+03 -4.68311078028E+02  1.38201233468E+03  8.42936970218E-06 0.00000000000E+00  1.
       -1    1    7    7    0  803 -3.30294769970E+02 -9.45740881907E+02 -4.09313629178E+02  1.08215437799E+03  1.46000966000E-05 0.00000000000E+00  1.
        1    1    7    7  803    0 -5.42865795958E+02 -1.38287013176E+03 -5.28931351784E+02  1.57695955834E+03  1.46000966000E-05 0.00000000000E+00  1.
</event>
<event>
10  50   1.0000000E+00   1.2500000E+02   7.8125000E-03   1.2380861E-01
        2   -1    0    0  503    0  0.00000000000E+00  0.00000000000E+00  2.24672405208E+03  2.24672405208E+03  0.00000000000E+00 0.00000000000E+00  1.
       -1   -1    0    0    0  503  0.00000000000E+00  0.00000000000E+00 -1.36896126790E+03  1.36896126790E+03  0.00000000000E+00 0.00000000000E+00  1.
       24    2    1    2    0    0  2.89430113684E+02  1.15776142501E+03 -8.81573322732E+02  1.48611497715E+03  8.47637540345E+01 0.00000000000E+00  1.
       25    2    1    2    0    0 -2.89430113684E+02 -1.15776142501E+03  1.75933610692E+03  2.12957034283E+03  1.25000000000E+02 0.00000000000E+00  1.
       -1    1    3    3    0  502  1.32715766159E+02  6.55892551989E+02 -5.29800740829E+02  8.53520555889E+02  2.73142796454E-05 0.00000000000E+00  1.
        2    1    3    3  502    0  1.56714347525E+02  5.01868873024E+02 -3.51772581903E+02  6.32594421260E+02  5.96046447754E-06 0.00000000000E+00  1.
       23    2    4    4    0    0 -2.74054897623E+02 -1.08347700719E+03  1.68003330700E+03  2.01982743384E+03  9.03462108784E+01 0.00000000000E+00  1.
       22    1    4    4    0    0 -1.53752160612E+01 -7.42844178162E+01  7.93027999197E+01  1.09742908993E+02  2.98023223877E-06 0.00000000000E+00  1.
       -5    1    7    7    0  803 -1.22731873182E+02 -4.23593548682E+02  7.37976763703E+02  8.59724882416E+02  4.74999999998E+00 0.00000000000E+00  1.
        5    1    7    7  803    0 -1.51323024441E+02 -6.59883458511E+02  9.42056543298E+02  1.16010255142E+03  4.74999999999E+00 0.00000000000E+00  1.
</event>
<event>
10  50   1.0000000E+00   1.2500000E+02   7.8125000E-03   1.2380861E-01
       -2   -1    0    0    0  503  0.00000000000E+00  0.00000000000E+00  4.37013019682E+03  4.37013019682E+03  0.00000000000E+00 0.00000000000E+00  1.
        1   -1    0    0  503    0  0.00000000000E+00  0.00000000000E+00 -9.09333202400E+02  9.09333202400E+02  0.00000000000E+00 0.00000000000E+00  1.
      -24    2    1    2    0    0 -1.95476981413E+01  1.97111708330E+03  1.36033938157E+03  2.39619583412E+03  7.44753235219E+01 0.00000000000E+00  1.
       25    2    1    2    0    0  1.95476981413E+01 -1.97111708330E+03  2.10045761285E+03  2.88326756510E+03  1.25000000000E+02 0.00000000000E+00  1.
       -4    1    3    3    0  502  2.65185703298E+01  4.34562958879E+02  2.98598385653E+02  5.27930697480E+02  1.27500000000E+00 0.00000000000E+00  1.
        3    1    3    3  502    0 -4.60662684711E+01  1.53655412442E+03  1.06174099592E+03  1.86826513664E+03  2.38418579102E-05 0.00000000000E+00  1.
       23    2    4    4    0    0 -9.97178759301E+00 -8.03013700375E+02  9.39664311386E+02  1.23621625990E+03  1.81984507479E+01 0.00000000000E+00  1.
       22    1    4    4    0    0  2.95194857343E+01 -1.16810338293E+03  1.16079330146E+03  1.64705130520E+03  3.37174788087E-05 0.00000000000E+00  1.
      -15    1    7    7    0    0 -6.57532333171E+00 -4.27245768317E+02  5.13518439679E+02  6.68046799506E+02  1.77679999995E+00 0.00000000000E+00  1.
       15    1    7    7    0    0 -3.39646426130E+00 -3.75767932057E+02  4.26145871707E+02  5.68169460393E+02  1.77679999999E+00 0.00000000000E+00  1.
</event>
<event>
10  50   1.0000000E+00   1.2500000E+02   7.8125000E-03   1.2380861E-01
       -1   -1    0    0    0  503  0.00000000000E+00  0.00000000000E+00  5.64885439351E+03  5.64885439351E+03  0.00000000000E+00 0.00000000000E+00  1.
        2   -1    0    0  503    0  0.00000000000E+00  0.00000000000E+00 -1.91510140362E+03  1.91510140362E+03  0.00000000000E+00 0.00000000000E+00  1.
       24    2    1    2    0    0  1.11863229109E+03  2.48700078497E+03  3.97751875355E+03  4.82323365603E+03  8.01021768564E+01 0.00000000000E+00  1.
       25    2    1    2    0    0 -1.11863229109E+03 -2.48700078497E+03 -2.43765763660E+02  2.74072214109E+03  1.25000000000E+02 0.00000000000E+00  1.
       -3    1    3    3    0  502  4.61145199519E+02  9.52979924653E+02  1.49907142711E+03  1.83522226866E+03  1.68587394044E-05 0.00000000000E+00  1.
        4    1    3    3  502    0  6.57487091570E+02  1.53402086032E+03  2.47844732645E+03  2.98801138737E+03  1.27500000003E+00 0.00000000000E+00  1.
       23    2    4    4    0    0 -8.35544256305E+02 -1.87849691881E+03 -2.10536875260E+02  2.06876979933E+03  9.27244765959E+01 0.00000000000E+00  1.
       22    1    4    4    0    0 -2.83088034785E+02 -6.08503866162E+02 -3.32288884001E+01  6.71952341760E+02  6.81840077703E-06 0.00000000000E+00  1.
      -16    1    7    7    0    0 -1.51387700033E+02 -2.60979470762E+02 -3.66483278055E+01  3.03926997504E+02  5.57550398525E-06 0.00000000000E+00  1.
       16    1    7    7    0    0 -6.84156556272E+02 -1.61751744805E+03 -1.73888547454E+02  1.76484280183E+03  4.12953092472E-05 0.00000000000E+00  1.
</event>
<event>
10  50   1.0000000E+00   1.2500000E+02   7.8125000E-03   1.2380861E-01
       -1   -1    0    0    0  503  0.00000000000E+00  0.00000000000E+00  2.76240488243E+02  2.76240488243E+02  0.00000000000E+00 0.00000000000E+00  1.
        2   -1    0    0  503    0  0.00000000000E+00  0.00000000000E+00 -3.93728814814E+03  3.93728814814E+03  0.00000000000E+00 0.00000000000E+00  1.
       24    2    1    2    0    0 -7.56421723677E+02 -5.95934766527E+02 -2.60713333462E+03  2.78046462001E+03  8.07911419288E+01 0.00000000000E+00  1.
       25    2    1    2    0    0  7.56421723677E+02  5.95934766527E+02 -1.05391432527E+03  1.43306401637E+03  1.25000000000E+02 0.00000000000E+00  1.
      -13    1    3    3    0    0 -6.19626474843E+02 -5.01409210821E+02 -2.06909351872E+03  2.21731733529E+03  1.05660007725E-01 0.00000000000E+00  1.
       14    1    3    3    0    0 -1.36795248834E+02 -9.45255557065E+01 -5.38039815901E+02  5.63147284714E+02  1.19209289551E-05 0.00000000000E+00  1.
       23    2    4    4    0    0  7.46111120250E+02  5.82080624927E+02 -1.01579103848E+03  1.39121152805E+03  9.02132155497E+01 0.00000000000E+00  1.
       22    1    4    4    0    0  1.03106034268E+01  1.38541416001E+01 -3.81232867904E+01  4.18524883155E+01  1.66600046866E-06 0.00000000000E+00  1.
       -3    1    7    7    0  803  1.83879180659E+02  1.94434144794E+02 -2.93643760533E+02  3.97294409528E+02  7.30004829998E-06 0.00000000000E+00  1.
        3    1    7    7  803    0  5.62231939591E+02  3.87646480133E+02 -7.22147277946E+02  9.93917118527E+02  1.19209289551E-05 0.00000000000E+00  1.
</event>
<event>
10  50   1.0000000E+00   1.2500000E+02   7.8125000E-03   1.2380861E-01
       -1   -1    0    0    0  503  0.00000000000E+00  0.00000000000E+00  3.56887702257E+03  3.56887702257E+03  0.00000000000E+00 0.00000000000E+00  1.
        2   -1    0    0  503    0  0.00000000000E+00  0.00000000000E+00 -3.15178978881E+03  3.15178978881E+03  0.00000000000E+00 0.00000000000E+00  1.
       24    2    1    2    0    0 -1.61080427117E+03 -1.85310247101E+02 -2.73116730674E+03  3.17719930914E+03  7.93114424867E+01 0.00000000000E+00  1.
       25    2    1    2    0    0  1.61080427117E+03  1.85310247101E+02  3.14825454050E+03  3.54346750225E+03  1.25000000000E+02 0.00000000000E+00  1.
       -3    1    3    3    0  502 -9.27618577472E+02 -1.33603393907E+02 -1.63352361996E+03  1.88327520801E+03  4.12953092472E-05 0.00000000000E+00  1.
        4    1    3    3  502    0 -6.83185693695E+02 -5.17068531946E+01 -1.09764368678E+03  1.29392410113E+03  1.27500000031E+00 0.00000000000E+00  1.
       23    2    4    4    0    0  1.21373030266E+03  1.24758695597E+02  2.42643076567E+03  2.71741436305E+03  8.98252762067E+01 0.00000000000E+00  1.
       22    1    4    4    0    0  3.97073968514E+02  6.05515515042E+01  7.21823774833E+02  8.26053139196E+02  0.00000000000E+00 0.00000000000E+00  1.
      -16    1    7    7    0    0  5.29102385798E+02  1.16500738040E+01  1.02072414922E+03  1.14976643179E+03  0.00000000000E+00 0.00000000000E+00  1.
       16    1    7    7    0    0  6.84627916858E+02  1.13108621793E+02  1.40570661645E+03  1.56764793126E+03  2.38418579102E-05 0.00000000000E+00  1.
</event>
<event>
10  50   1.0000000E+00   1.2500000E+02   7.8125000E-03   1.2380861E-01
       -1   -1    0    0    0  503  0.00000000000E+00  0.00000000000E+00  7.44416601527E+02  7.44416601527E+02  0.00000000000E+00 0.00000000000E+00  1.
        2   -1    0    0  503    0  0.00000000000E+00  0.00000000000E+00 -3.62182417177E+03  3.62182417177E+03  0.00000000000E+00 0.00000000000E+00  1.
       24    2    1    2    0    0 -4.68594791865E+02 -6.98057453369E+02 -3.30753310017E+03  3.41361374310E+03  7.82195064133E+01 0.00000000000E+00  1.
       25    2    1    2    0    0  4.68594791865E+02  6.98057453369E+02  4.30125529928E+02  9.52627030198E+02  1.25000000000E+02 0.00000000000E+00  1.
      -15    1    3    3    0    0 -3.86218974803E+02 -5.57875608121E+02 -2.54159217904E+03  2.63060530148E+03  1.77680000058E+00 0.00000000000E+00  1.
       16    1    3    3    0    0 -8.23758170620E+01 -1.40181845248E+02 -7.65940921135E+02  7.83008441617E+02  1.19209289551E-05 0.00000000000E+00  1.
       23    2    4    4    0    0  3.19175289854E+02  5.41661066855E+02  3.62307301716E+02  7.25943706211E+02  2.14034275568E+01 0.00000000000E+00  1.
       22    1    4    4    0    0  1.49419502011E+02  1.56396386514E+02  6.78182282124E+01  2.26683323987E+02  2.35608045769E-06 0.00000000000E+00  1.
       -2    1    7    7    0  803  3.00582838445E+02  4.99116152073E+02  3.35242619498E+02  6.72201301662E+02  5.96046447754E-06 0.00000000000E+00  1.
        2    1    7    7  803    0  1.85924514085E+01  4.25449147823E+01  2.70646822179E+01  5.37424045495E+01  1.29047841398E-06 0.00000000000E+00  1.
</event>
<event>
10  50   1.0000000E+00   1.2500000E+02   7.8125000E-03   1.2380861E-01
       -1   -1    0    0    0  503  0.00000000000E+00  0.00000000000E+00  5.54767466639E+03  5.54767466639E+03  0.00000000000E+00 0.00000000000E+00  1.
        2   -1    0    0  503    0  0.00000000000E+00  0.00000000000E+00 -2.72386101083E+03  2.72386101083E+03  0.00000000000E+00 0.00000000000E+00  1.
       24    2    1    2    0    0 -1.48592438145E+03 -1.14111179300E+03  5.03369802038E+03  5.37165269727E+03  8.01844634384E+01 0.00000000000E+00  1.
       25    2    1    2    0    0  1.48592438145E+03  1.14111179300E+03 -2.20988436482E+03  2.89988297995E+03  1.25000000000E+02 0.00000000000E+00  1.
       -1    1    3    3    0  502 -4.66720674776E+02 -3.22250638918E+02  1.58987874444E+03  1.68801305817E+03  3.37174788087E-05 0.00000000000E+00  1.
        2    1    3    3  502    0 -1.01920370667E+03 -8.18861154082E+02  3.44381927594E+03  3.68363963910E+03  4.76837158203E-05 0.00000000000E+00  1.
       23    2    4    4    0    0  1.41940425521E+03  1.06661142305E+03 -2.12155061041E+03  2.76654849647E+03  2.11003146240E+01 0.00000000000E+00  1.
       22    1    4    4    0    0  6.65201262402E+01  7.45003699512E+01 -8.83337544064E+01  1.33334483482E+02  1.05367121277E-06 0.00000000000E+00  1.
       -1    1    7    7    0  803  2.03637100155E+02  1.45934308662E+02 -3.06671837464E+02  3.95995589492E+02  5.96046447754E-06 0.00000000000E+00  1.
        1    1    7    7  803    0  1.21576715506E+03  9.20677114387E+02 -1.81487877295E+03  2.37055290698E+03  2.38418579102E-05 0.00000000000E+00  1.
</event>
<event>
10  50   1.0000000E+00   1.2500000E+02   7.8125000E-03   1.2380861E-01
        2   -1    0    0  503    0  0.00000000000E+00  0.00000000000E+00  3.07848601917E+03  3.07848601917E+03  0.00000000000E+00 0.00000000000E+00  1.
       -1   -1    0    0    0  503  0.00000000000E+00  0.00000000000E+00 -5.21952590898E+03  5.21952590898E+03  0.00000000000E+00 0.00000000000E+00  1.
       24    2    1    2    0    0  3.69519234443E+03 -1.14352416198E+03 -2.15344443901E+03  4.42788623973E+03  8.22169611349E+01 0.00000000000E+00  1.
       25    2    1    2    0    0 -3.69519234443E+03  1.14352416198E+03  1.24045492100E+01  3.87012568842E+03  1.25000000000E+02 0.00000000000E+00  1.
       -1    1    3    3    0  502  2.67310936438E+03 -8.47618953565E+02 -1.59655997047E+03  3.22691420767E+03  5.59141130426E-05 0.00000000000E+00  1.
        2    1    3    3  502    0  1.02208298004E+03 -2.95905208410E+02 -5.56884468548E+02  1.20097203205E+03  1.33280037493E-05 0.00000000000E+00  1.
       23    2    4    4    0    0 -2.80740198828E+03  8.90865270752E+02  3.00492130087E+01  2.94691413847E+03  9.08467386117E+01 0.00000000000E+00  1.
       22    1    4    4    0    0 -8.87790356154E+02  2.52658891228E+02 -1.76446637987E+01  9.23211549948E+02  8.15106797481E-06 0.00000000000E+00  1.
       -4    1    7    7    0  803 -1.40415673363E+03  4.24391685176E+02 -2.57055742332E+01  1.46711514109E+03  1.27500000009E+00 0.00000000000E+00  1.
        4    1    7    7  803    0 -1.40324525465E+03  4.66473585576E+02  5.57547872418E+01  1.47979899738E+03  1.27500000037E+00 0.00000000000E+00  1.
</event>
<event>
10  50   1.0000000E+00   1.2500000E+02   7.8125000E-03   1.2380861E-01
       -1   -1    0    0    0  503  0.00000000000E+00  0.00000000000E+00  3.19273064260E+03  3.19273064260E+03  0.00000000000E+00 0.00000000000E+00  1.
        2   -1    0    0  503    0  0.00000000000E+00  0.00000000000E+00 -1.89546396163E+03  1.89546396163E+03  0.00000000000E+00 0.00000000000E+00  1.
       24    2    1    2    0    0  2.27283608293E+02 -9.23399761249E+02 -1.69564345787E+03  1.94535177379E+03  6.97268235788E+01 0.00000000000E+00  1.
       25    2    1    2    0    0 -2.27283608293E+02  9.23399761249E+02  2.99291013884E+03  3.14284283044E+03  1.25000000000E+02 0.00000000000E+00  1.
      -15    1    3    3    0    0  1.88686673212E+02 -8.45286612674E+02 -1.52633946009E+03  1.75494370926E+03  1.77679999930E+00 0.00000000000E+00  1.
       16    1    3    3    0    0  3.85969350802E+01 -7.81131485756E+01 -1.69303997776E+02  1.90408064537E+02  4.21468485109E-06 0.00000000000E+00  1.
       23    2    4    4    0    0 -2.14423503600E+02  8.14724050301E+02  2.57677046187E+03  2.71255452803E+03  9.19420324537E+01 0.00000000000E+00  1.
       22    1    4    4    0    0 -1.28601046930E+01  1.08675710948E+02  4.16139676970E+02  4.30288302411E+02  5.96046447754E-06 0.00000000000E+00  1.
      -12    1    7    7    0    0 -8.17839931247E+01  4.21218661109E+02  1.42571353293E+03  1.48888309144E+03  0.00000000000E+00 0.00000000000E+00  1.
       12    1    7    7    0    0 -1.32639510475E+02  3.93505389192E+02  1.15105692894E+03  1.22367143659E+03  0.00000000000E+00 0.00000000000E+00  1.
</event>
<event>
10  50   1.0000000E+00   1.2500000E+02   7.8125000E-03   1.2380861E-01
       -1   -1    0    0    0  503  0.00000000000E+00  0.00000000000E+00  2.79993705231E+03  2.79993705231E+03  0.00000000000E+00 0.00000000000E+00  1.
        2   -1    0    0  503    0  0.00000000000E+00  0.00000000000E+00 -4.86164327000E+03  4.86164327000E+03  0.00000000000E+00 0.00000000000E+00  1.
       24    2    1    2    0    0 -1.43077439373E+03  2.72235598288E+03  1.08274651306E+03  3.26140470773E+03  7.79948254809E+01 0.00000000000E+00  1.
       25    2    1    2    0    0  1.43077439373E+03 -2.72235598288E+03 -3.14445273075E+03  4.40017561458E+03  1.25000000000E+02 0.00000000000E+00  1.
       -1    1    3    3    0  502 -3.24747379566E+02  6.62611974690E+02  2.87446292244E+02  7.91922256577E+02  1.93141123605E-05 0.00000000000E+00  1.
        2    1    3    3  502    0 -1.10602701416E+03  2.05974400819E+03  7.95300220813E+02  2.46948245116E+03  4.91512492373E-05 0.00000000000E+00  1.
       23    2    4    4    0    0  1.02802319918E+03 -1.94399175878E+03 -2.20684127758E+03  3.11675260279E+03  8.97925738913E+01 0.00000000000E+00  1.
       22    1    4    4    0    0  4.02751194546E+02 -7.78364224102E+02 -9.37611453167E+02  1.28342301179E+03  1.19209289551E-05 0.00000000000E+00  1.
       -4    1    7    7    0  803  6.39095361322E+02 -1.28358411121E+03 -1.40334912904E+03  2.00634529805E+03  1.27500000015E+00 0.00000000000E+00  1.
        4    1    7    7  803    0  3.88927837862E+02 -6.60407647569E+02 -8.03492148541E+02  1.11040730474E+03  1.27500000003E+00 0.00000000000E+00  1.
</event>
<event>
10  50   1.0000000E+00   1.2500000E+02   7.8125000E-03   1.2380861E-01
        2   -1    0    0  503    0  0.00000000000E+00  0.00000000000E+00  3.09966937871E+03  3.09966937871E+03  0.00000000000E+00 0.00000000000E+00  1.
       -1   -1    0    0    0  503  0.00000000000E+00  0.00000000000E+00 -4.14905655978E+03  4.14905655978E+03  0.00000000000E+00 0.00000000000E+00  1.
       24    2    1    2    0    0 -2.88642323088E+03 -1.66478609975E+03  8.11211378144E+02  3.43029644140E+03  7.69282144398E+01 0.00000000000E+00  1.
       25    2    1    2    0    0  2.88642323088E+03  1.66478609975E+03 -1.86059855921E+03  3.81842949709E+03  1.25000000000E+02 0.00000000000E+00  1.
      -15    1    3    3    0    0 -5.06907624465E+02 -2.94208235232E+02  1.72886644983E+02  6.11070187827E+02  1.77679999999E+00 0.00000000000E+00  1.
       16    1    3    3    0    0 -2.37951560642E+03 -1.37057786452E+03  6.38324733162E+02  2.81922625358E+03  8.88089205369E-05 0.00000000000E+00  1.
       23    2    4    4    0    0  2.40579581742E+03  1.40405470744E+03 -1.53046896306E+03  3.17970489309E+03  9.46827525372E+01 0.00000000000E+00  1.
       22    1    4    4    0    0  4.80627413456E+02  2.60731392311E+02 -3.30129596154E+02  6.38724604003E+02  1.39785282607E-05 0.00000000000E+00  1.
       -5    1    7    7    0  803  3.34324997568E+01  1.14519017150E+01 -1.25426729648E+01  3.77989317042E+01  4.75000000000E+00 0.00000000000E+00  1.
        5    1    7    7  803    0  2.37236331767E+03  1.39260280572E+03 -1.51792629009E+03  3.14190596138E+03  4.74999999984E+00 0.00000000000E+00  1.
</event>
<event>
10  50   1.0000000E+00   1.2500000E+02   7.8125000E-03   1.2380861E-01
       -2   -1    0    0    0  503  0.00000000000E+00  0.00000000000E+00  2.83848428833E+03  2.83848428833E+03  0.00000000000E+00 0.00000000000E+00  1.
        1   -1    0    0  503    0  0.00000000000E+00  0.00000000000E+00 -2.16224808073E+03  2.16224808073E+03  0.00000000000E+00 0.00000000000E+00  1.
      -24    2    1    2    0    0  1.02285927890E+03  1.07151590093E+03 -1.66331411914E+03  2.22881819981E+03  8.14203814154E+01 0.00000000000E+00  1.
       25    2    1    2    0    0 -1.02285927890E+03 -1.07151590093E+03  2.33955032673E+03  2.77191416925E+03  1.25000000000E+02 0.00000000000E+00  1.
      -12    1    3    3    0    0  2.46527891195E+01  4.03982934819E+01 -3.89801704341E+01  6.13126073063E+01  4.28003269921E-06 0.00000000000E+00  1.
       11    1    3    3    0    0  9.98206489779E+02  1.03111760744E+03 -1.62433394870E+03  2.16750559250E+03  5.10238040901E-04 0.00000000000E+00  1.
       23    2    4    4    0    0 -1.59267149186E+02 -1.56079481408E+02  4.39514480218E+02  4.92889943244E+02  6.37875406413E+00 0.00000000000E+00  1.
       22    1    4    4    0    0 -8.63592129714E+02 -9.15436419522E+02  1.90003584651E+03  2.27902422601E+03  3.37174788087E-05 0.00000000000E+00  1.
      -15    1    7    7    0    0 -9.90453137468E+01 -9.36601704923E+01  2.66872074019E+02  2.99676596719E+02  1.77680000000E+00 0.00000000000E+00  1.
       15    1    7    7    0    0 -6.02218354389E+01 -6.24193109157E+01  1.72642406199E+02  1.93213346525E+02  1.77680000000E+00 0.00000000000E+00  1.
</event>
<event>
10  50   1.0000000E+00   1.2500000E+02   7.8125000E-03   1.2380861E-01
       -4   -1    0    0    0  503  0.00000000000E+00  0.00000000000E+00  2.51375911034E+03  2.51375911034E+03  0.00000000000E+00 0.00000000000E+00  1.
        3   -1    0    0  503    0  0.00000000000E+00  0.00000000000E+00 -7.91451519016E+02  7.91451519016E+02  0.00000000000E+00 0.00000000000E+00  1.
      -24    2    1    2    0    0 -7.30075317937E+02  7.88550563342E+02 -2.03301645226E+02  1.09649654811E+03  7.84293329016E+01 0.00000000000E+00  1.
       25    2    1    2    0    0  7.30075317937E+02 -7.88550563342E+02  1.92560923655E+03  2.20871408125E+03  1.25000000000E+02 0.00000000000E+00  1.
      -16    1    3    3    0    0 -4.75597991686E+02  5.01781289150E+02 -9.33138486951E+01  6.97628401224E+02  1.40577273548E-05 0.00000000000E+00  1.
       15    1    3    3    0    0 -2.54477326251E+02  2.86769274192E+02 -1.09987796531E+02  3.98868146887E+02  1.77679999999E+00 0.00000000000E+00  1.
       23    2    4    4    0    0  6.75469407103E+02 -6.96765811807E+02  1.75062408234E+03  2.00371151954E+03  9.18349576552E+01 0.00000000000E+00  1.
       22    1    4    4    0    0  5.46059108340E+01 -9.17847515350E+01  1.74985154215E+02  2.05002561710E+02  2.10734242554E-06 0.00000000000E+00  1.
       -2    1    7    7    0  803  3.72927497416E+02 -3.23959328915E+02  9.24606562475E+02  1.04829473932E+03  0.00000000000E+00 0.00000000000E+00  1.
        2    1    7    7  803    0  3.02541909687E+02 -3.72806482892E+02  8.26017519860E+02  9.55416780216E+02  1.19209289551E-05 0.00000000000E+00  1.
</event>
<event>
10  50   1.0000000E+00   1.2500000E+02   7.8125000E-03   1.2380861E-01
       -2   -1    0    0    0  503  0.00000000000E+00  0.00000000000E+00  2.37077730070E+03  2.37077730070E+03  0.00000000000E+00 0.00000000000E+00  1.
        1   -1    0    0  503    0  0.00000000000E+00  0.00000000000E+00 -2.64650646909E+03  2.64650646909E+03  0.00000000000E+00 0.00000000000E+00  1.
      -24    2    1    2    0    0 -1.47336940789E+03  1.80588685123E+03 -1.05133447386E+03  2.55776484907E+03  6.93694145348E+01 0.00000000000E+00  1.
       25    2    1    2    0    0  1.47336940789E+03 -1.80588685123E+03  7.75605305463E+02  2.45951892072E+03  1.25000000000E+02 0.00000000000E+00  1.
      -14    1    3    3    0    0 -5.72612572435E+02  6.88587481155E+02 -3.68212145303E+02  9.68306801207E+02  1.19209289551E-05 0.00000000000E+00  1.
       13    1    3    3    0    0 -9.00756835450E+02  1.11729937007E+03 -6.83122328556E+02  1.58945804786E+03  1.05659997974E-01 0.00000000000E+00  1.
       23    2    4    4    0    0  1.20763349317E+03 -1.44560283243E+03  6.57274333053E+02  1.99646128974E+03  7.55111223229E+01 0.00000000000E+00  1.
       22    1    4    4    0    0  2.65735914717E+02 -3.60284018803E+02  1.18330972410E+02  4.63057630978E+02  1.11510079705E-05 0.00000000000E+00  1.
       -4    1    7    7    0  803  5.15419623646E+02 -6.73005571213E+02  2.84003409818E+02  8.94009759307E+02  1.27500000006E+00 0.00000000000E+00  1.
        4    1    7    7  803    0  6.92213869526E+02 -7.72597261215E+02  3.73270923236E+02  1.10245153044E+03  1.27500000034E+00 0.00000000000E+00  1.
</event>
<event>
10  50   1.0000000E+00   1.2500000E+02   7.8125000E-03   1.2380861E-01
       -2   -1    0    0    0  503  0.00000000000E+00  0.00000000000E+00  1.25087295308E+03  1.25087295308E+03  0.00000000000E+00 0.00000000000E+00  1.
        1   -1    0    0  503    0  0.00000000000E+00  0.00000000000E+00 -7.04764577163E+02  7.04764577163E+02  0.00000000000E+00 0.00000000000E+00  1.
      -24    2    1    2    0    0  6.72886813448E+02  6.21074395046E+02  4.58937682029E+02  1.02734135026E+03  7.93497704978E+01 0.00000000000E+00  1.
       25    2    1    2    0    0 -6.72886813448E+02 -6.21074395046E+02  8.71706938868E+01  9.28296179981E+02  1.25000000000E+02 0.00000000000E+00  1.
       -2    1    3    3    0  502  1.07137170922E+02  8.40683720089E+01  4.00428345347E+01  1.41948205917E+02  1.74731603258E-06 0.00000000000E+00  1.
        1    1    3    3  502    0  5.65749642526E+02  5.37006023037E+02  4.18894847494E+02  8.85393144345E+02  1.19209289551E-05 0.00000000000E+00  1.
       23    2    4    4    0    0 -6.53470568471E+02 -6.18054370793E+02  7.96619453187E+01  9.07260676171E+02  8.80960832245E+01 0.00000000000E+00  1.
       22    1    4    4    0    0 -1.94162449769E+01 -3.02002425292E+00  7.50874856812E+00  2.10355038103E+01  8.17232242543E-07 0.00000000000E+00  1.
       -5    1    7    7    0  803 -5.07145534682E+01 -2.33952822854E+01  1.52038281798E+01  5.80777415023E+01  4.75000000000E+00 0.00000000000E+00  1.
        5    1    7    7  803    0 -6.02756015003E+02 -5.94659088508E+02  6.44581171388E+01  8.49182934668E+02  4.75000000003E+00 0.00000000000E+00  1.
</event>
<event>
10  50   1.0000000E+00   1.2500000E+02   7.8125000E-03   1.2380861E-01
       -2   -1    0    0    0  503  0.00000000000E+00  0.00000000000E+00  5.24481270893E+03  5.24481270893E+03  0.00000000000E+00 0.00000000000E+00  1.
        1   -1    0    0  503    0  0.00000000000E+00  0.00000000000E+00 -1.76137948036E+03  1.76137948036E+03  0.00000000000E+00 0.00000000000E+00  1.
      -24    2    1    2    0    0 -6.89501139171E+02  2.61254786894E+03  3.34086295958E+03  4.29754502327E+03  8.19129043790E+01 0.00000000000E+00  1.
       25    2    1    2    0    0  6.89501139171E+02 -2.61254786894E+03  1.42570268995E+02  2.70864716603E+03  1.25000000000E+02 0.00000000000E+00  1.
      -14    1    3    3    0    0 -6.34283024633E+02  2.32643218956E+03  2.95453921428E+03  3.81364702833E+03  9.53674316406E-05 0.00000000000E+00  1.
       13    1    3    3    0    0 -5.52181145375E+01  2.86115679374E+02  3.86323745302E+02  4.83897994938E+02  1.05660000160E-01 0.00000000000E+00  1.
       23    2    4    4    0    0  6.75838073448E+02 -2.53021820909E+03  1.25680187351E+02  2.62349948776E+03  9.05138977075E+01 0.00000000000E+00  1.
       22    1    4    4    0    0  1.36630657225E+01 -8.23296598517E+01  1.68900816440E+01  8.51476782665E+01  2.92737663640E-06 0.00000000000E+00  1.
       -4    1    7    7    0  803  1.64234721605E+02 -5.93926080683E+02 -8.43272590608E+00  6.16274264908E+02  1.27499999990E+00 0.00000000000E+00  1.
        4    1    7    7  803    0  5.11603351844E+02 -1.93629212840E+03  1.34112913257E+02  2.00722522286E+03  1.27500000043E+00 0.00000000000E+00  1.
</event>
<event>
10  50   1.0000000E+00   1.2500000E+02   7.8125000E-03   1.2380861E-01
        2   -1    0    0  503    0  0.00000000000E+00  0.00000000000E+00  2.67594365939E+03  2.67594365939E+03  0.00000000000E+00 0.00000000000E+00  1.
       -1   -1    0    0    0  503  0.00000000000E+00  0.00000000000E+00 -4.06337232103E+03  4.06337232103E+03  0.00000000000E+00 0.00000000000E+00  1.
       24    2    1    2    0    0  2.87443933850E+03  1.03386844336E+03  5.70716442073E+02  3.10871785943E+03  8.44038114112E+01 0.00000000000E+00  1.
       25    2    1    2    0    0 -2.87443933850E+03 -1.03386844336E+03 -1.95814510372E+03  3.63059812099E+03  1.25000000000E+02 0.00000000000E+00  1.
       -1    1    3    3    0  502  2.07975329649E+03  7.09812971280E+02  3.98176768349E+02  2.23332777874E+03  3.74609383642E-05 0.00000000000E+00  1.
        2    1    3    3  502    0  7.94686042012E+02  3.24055472075E+02  1.72539673724E+02  8.75390080684E+02  1.21057605812E-05 0.00000000000E+00  1.
       23    2    4    4    0    0 -2.94804225042E+02 -1.45702033197E+02 -1.99888241516E+02  3.84858746946E+02  4.72571949081E+00 0.00000000000E+00  1.
       22    1    4    4    0    0 -2.57963511346E+03 -8.88166410163E+02 -1.75825686220E+03  3.24573937404E+03  7.90744969930E-05 0.00000000000E+00  1.
      -13    1    7    7    0    0 -2.68356746709E+02 -1.31724262227E+02 -1.82963428778E+02  3.50488590681E+02  1.05659999781E-01 0.00000000000E+00  1.
       13    1    7    7    0    0 -2.64474783327E+01 -1.39777709695E+01 -1.69248127380E+01  3.43701562651E+01  1.05659999996E-01 0.00000000000E+00  1.
</event>
<event>
10  50   1.0000000E+00   1.2500000E+02   7.8125000E-03   1.2380861E-01
        2   -1    0    0  503    0  0.00000000000E+00  0.00000000000E+00  2.43310303593E+03  2.43310303593E+03  0.00000000000E+00 0.00000000000E+00  1.
       -1   -1    0    0    0  503  0.00000000000E+00  0.00000000000E+00 -8.49334826614E+02  8.49334826614E+02  0.00000000000E+00 0.00000000000E+00  1.
       24    2    1    2    0    0 -1.31144527992E+03  5.56689823845E+02  6.07124388602E+02  1.55060344934E+03  7.73223879081E+01 0.00000000000E+00  1.
       25    2    1    2    0    0  1.31144527992E+03 -5.56689823845E+02  9.76643820715E+02  1.73183441320E+03  1.25000000000E+02 0.00000000000E+00  1.
       -3    1    3    3    0  502 -6.88958836562E+02  3.29363601897E+02  3.05230890958E+02  8.22381029405E+02  2.14907602993E-05 0.00000000000E+00  1.
        4    1    3    3  502    0 -6.22486443363E+02  2.27326221948E+02  3.01893497644E+02  7.28222419938E+02  1.27499999998E+00 0.00000000000E+00  1.
       23    2    4    4    0    0  3.30368092494E+02 -1.38821396436E+02  3.03272846125E+02  4.70662363187E+02  3.36776524967E+01 0.00000000000E+00  1.
       22    1    4    4    0    0  9.81077187426E+02 -4.17868427409E+02  6.73370974590E+02  1.26117205001E+03  1.19209289551E-05 0.00000000000E+00  1.
      -13    1    7    7    0    0  2.57868209938E+01 -1.75031362673E+01  3.64222767951E+01  4.79365552280E+01  1.05659999980E-01 0.00000000000E+00  1.
       13    1    7    7    0    0  3.04581271500E+02 -1.21318260169E+02  2.66850569330E+02  4.22725807959E+02  1.05659999907E-01 0.00000000000E+00  1.
</event>
<event>
10  50   1.0000000E+00   1.2500000E+02   7.8125000E-03   1.2380861E-01
       -2   -1    0    0    0  503  0.00000000000E+00  0.00000000000E+00  2.52676966732E+03  2.52676966732E+03  0.00000000000E+00 0.00000000000E+00  1.
        1   -1    0    0  503    0  0.00000000000E+00  0.00000000000E+00 -2.15157539159E+03  2.15157539159E+03  0.00000000000E+00 0.00000000000E+00  1.
      -24    2    1    2    0    0  1.61529391695E+02 -1.90581711398E+03  1.52116290567E+03  2.44516353536E+03  8.15935825443E+01 0.00000000000E+00  1.
       25    2    1    2    0    0 -1.61529391695E+02  1.90581711398E+03 -1.14596862994E+03  2.23318152355E+03  1.25000000000E+02 0.00000000000E+00  1.
      -12    1    3    3    0    0  9.68034217814E+00 -4.20351375869E+02  3.62315175200E+02  5.55032678678E+02  8.42936970218E-06 0.00000000000E+00  1.
       11    1    3    3    0    0  1.51849049517E+02 -1.48546573811E+03  1.15884773047E+03  1.89013085668E+03  5.09122765161E-04 0.00000000000E+00  1.
       23    2    4    4    0    0 -8.49623837360E+01  1.00564327427E+03 -6.24847554108E+02  1.19023251996E+03  8.76469278926E+01 0.00000000000E+00  1.
       22    1    4    4    0    0 -7.65670079590E+01  9.00173839710E+02 -5.21121075832E+02  1.04294900359E+03  1.88486436615E-05 0.00000000000E+00  1.
      -13    1    7    7    0    0 -7.05185779265E+01  7.42394740031E+02 -5.04922796946E+02  9.00594171588E+02  1.05660000328E-01 0.00000000000E+00  1.
       13    1    7    7    0    0 -1.44438058095E+01  2.63248534239E+02 -1.19924757162E+02  2.89638348376E+02  1.05659999939E-01 0.00000000000E+00  1.
</event>
<event>
10  50   1.0000000E+00   1.2500000E+02   7.8125000E-03   1.2380861E-01
       -2   -1    0    0    0  503  0.00000000000E+00  0.00000000000E+00  1.01770610174E+03  1.01770610174E+03  0.00000000000E+00 0.00000000000E+00  1.
        1   -1    0    0  503    0  0.00000000000E+00  0.00000000000E+00 -3.09084055414E+03  3.09084055414E+03  0.00000000000E+00 0.00000000000E+00  1.
      -24    2    1    2    0    0 -1.76493245447E+02 -1.90938606277E+02  9.92591818171E+02  1.02927564099E+03  8.10087068720E+01 0.00000000000E+00  1.
       25    2    1    2    0    0  1.76493245447E+02  1.90938606277E+02 -3.06572627057E+03  3.07927101489E+03  1.25000000000E+02 0.00000000000E+00  1.
       -4    1    3    3    0  502 -3.83203646323E+01 -7.02591617080E+01  1.93598663088E+02  2.09491928542E+02  1.27500000000E+00 0.00000000000E+00  1.
        3    1    3    3  502    0 -1.38172880815E+02 -1.20679444569E+02  7.98993155083E+02  8.19783712453E+02  1.19209289551E-05 0.00000000000E+00  1.
       23    2    4    4    0    0  1.31905029073E+02  1.17219740362E+02 -2.26085560367E+03  2.26980244189E+03  9.69312145767E+01 0.00000000000E+00  1.
       22    1    4    4    0    0  4.45882163743E+01  7.37188659147E+01 -8.04870666905E+02  8.09468573000E+02  1.19209289551E-05 0.00000000000E+00  1.
       -3    1    7    7    0  803  3.21728109922E+01  5.70743681565E+01 -4.02189440094E+02  4.07491004798E+02  5.96046447754E-06 0.00000000000E+00  1.
        3    1    7    7  803    0  9.97322180806E+01  6.01453722058E+01 -1.85866616357E+03  1.86231143709E+03  2.38418579102E-05 0.00000000000E+00  1.
</event>
<event>
10  50   1.0000000E+00   1.2500000E+02   7.8125000E-03   1.2380861E-01
        2   -1    0    0  503    0  0.00000000000E+00  0.00000000000E+00  2.95907254924E+03  2.95907254924E+03  0.00000000000E+00 0.00000000000E+00  1.
       -1   -1    0    0    0  503  0.00000000000E+00  0.00000000000E+00 -4.46713576472E+03  4.46713576472E+03  0.00000000000E+00 0.00000000000E+00  1.
       24    2    1    2    0    0 -2.41750767475E+03  2.51912966286E+02  2.00539383644E+03  3.15212256894E+03  8.04285418246E+01 0.00000000000E+00  1.
       25    2    1    2    0    0  2.41750767475E+03 -2.51912966286E+02 -3.51345705191E+03  4.27408574501E+03  1.25000000000E+02 0.00000000000E+00  1.
      -11    1    3    3    0    0 -4.92214439555E+02  8.39400178906E+01  4.11027981340E+02  6.46734089526E+02  5.11003380998E-04 0.00000000000E+00  1.
       12    1    3    3    0    0 -1.92529323520E+03  1.67972948396E+02  1.59436585510E+03  2.50538847942E+03  5.84003863998E-05 0.00000000000E+00  1.
       23    2    4    4    0    0  1.31158554592E+03 -1.74591735076E+02 -1.83941485392E+03  2.26623624655E+03  4.05068156483E+01 0.00000000000E+00  1.
       22    1    4    4    0    0  1.10592212883E+03 -7.73212312097E+01 -1.67404219799E+03  2.00784949846E+03  0.00000000000E+00 0.00000000000E+00  1.
       -4    1    7    7    0  803  2.91202355780E+02 -5.42064638411E+01 -4.23681683137E+02  5.16957393781E+02  1.27499999998E+00 0.00000000000E+00  1.
        4    1    7    7  803    0  1.02038319014E+03 -1.20385271235E+02 -1.41573317079E+03  1.74927885277E+03  1.27500000015E+00 0.00000000000E+00  1.
</event>
<event>
10  50   1.0000000E+00   1.2500000E+02   7.8125000E-03   1.2380861E-01
        2   -1    0    0  503    0  0.00000000000E+00  0.00000000000E+00  2.29810970578E+03  2.29810970578E+03  0.00000000000E+00 0.00000000000E+00  1.
       -1   -1    0    0    0  503  0.00000000000E+00  0.00000000000E+00 -5.02077409691E+03  5.02077409691E+03  0.00000000000E+00 0.00000000000E+00  1.
       24    2    1    2    0    0  1.56801344790E+03 -3.00737981104E+03 -1.19155786567E+03  3.59559067792E+03  7.39099131038E+01 0.00000000000E+00  1.
       25    2    1    2    0    0 -1.56801344790E+03  3.00737981104E+03 -1.53110652547E+03  3.72329312477E+03  1.25000000000E+02 0.00000000000E+00  1.
      -15    1    3    3    0    0  1.56125032092E+03 -3.00219209532E+03 -1.18889960784E+03  3.58666214973E+03  1.77680000146E+00 0.00000000000E+00  1.
       16    1    3    3    0    0  6.76312697899E+00 -5.18771572487E+00 -2.65825782162E+00  8.92852818903E+00  3.45343653443E-07 0.00000000000E+00  1.
       23    2    4    4    0    0 -1.10911670251E+03  2.18005340638E+03 -1.09184972367E+03  2.68021990552E+03  9.31139540636E+01 0.00000000000E+00  1.
       22    1    4    4    0    0 -4.58896745393E+02  8.27326404660E+02 -4.39256801803E+02  1.04307321925E+03  8.42936970218E-06 0.00000000000E+00  1.
       -4    1    7    7    0  803 -5.16172629112E+02  1.11066656603E+03 -5.64272912095E+02  1.34848802326E+03  1.27500000003E+00 0.00000000000E+00  1.
        4    1    7    7  803    0 -5.92944073394E+02  1.06938684035E+03 -5.27576811572E+02  1.33173188226E+03  1.27499999974E+00 0.00000000000E+00  1.
</event>
<event>
10  50   1.0000000E+00   1.2500000E+02   7.8125000E-03   1.2380861E-01
        2   -1    0    0  503    0  0.00000000000E+00  0.00000000000E+00  4.14125665510E+03  4.14125665510E+03  0.00000000000E+00 0.00000000000E+00  1.
       -1   -1    0    0    0  503  0.00000000000E+00  0.00000000000E+00 -2.29327246847E+03  2.29327246847E+03  0.00000000000E+00 0.00000000000E+00  1.
       24    2    1    2    0    0 -1.23357085256E+03 -1.87447307087E+03 -1.27886119575E+03  2.58379758437E+03  7.19559400990E+01 0.00000000000E+00  1.
       25    2    1    2    0    0  1.23357085256E+03  1.87447307087E+03  3.12684538238E+03  3.85073153920E+03  1.25000000000E+02 0.00000000000E+00  1.
       -1    1    3    3    0  502 -2.38517965982E+02 -3.20940102742E+02 -2.45671375675E+02  4.69305651437E+02  1.07453801497E-05 0.00000000000E+00  1.
        2    1    3    3  502    0 -9.95052886583E+02 -1.55353296813E+03 -1.03318982007E+03  2.11449193294E+03  2.66560074985E-05 0.00000000000E+00  1.
       23    2    4    4    0    0  8.07151659110E+02  1.11973652843E+03  1.91738902988E+03  2.36269751887E+03  2.55964821241E+01 0.00000000000E+00  1.
       22    1    4    4    0    0  4.26419193450E+02  7.54736542442E+02  1.20945635250E+03  1.48803402033E+03  1.68587394044E-05 0.00000000000E+00  1.
       -4    1    7    7    0  803  1.96606018354E+02  2.89280235488E+02  4.76644454696E+02  5.91209390076E+02  1.27500000001E+00 0.00000000000E+00  1.
        4    1    7    7  803    0  6.10545640756E+02  8.30456292939E+02  1.44074457518E+03  1.77148812880E+03  1.27500000026E+00 0.00000000000E+00  1.
</event>
<event>
10  50   1.0000000E+00   1.2500000E+02   7.8125000E-03   1.2380861E-01
        1   -1    0    0  503    0  0.00000000000E+00  0.00000000000E+00  4.82977404705E+03  4.82977404705E+03  0.00000000000E+00 0.00000000000E+00  1.
       -2   -1    0    0    0  503  0.00000000000E+00  0.00000000000E+00 -1.59757492766E+03  1.59757492766E+03  0.00000000000E+00 0.00000000000E+00  1.
      -24    2    1    2    0    0 -1.02938925419E+02 -6.91331238043E+02 -1.49235845918E+03  1.64973402409E+03  7.71574784512E+01 0.00000000000E+00  1.
       25    2    1    2    0    0  1.02938925419E+02  6.91331238043E+02  4.72455757857E+03  4.77761495061E+03  1.25000000000E+02 0.00000000000E+00  1.
       -4    1    3    3    0  502 -1.48233726676E+01 -7.44628976822E+01 -2.25047896313E+02  2.37513445447E+02  1.27500000002E+00 0.00000000000E+00  1.
        3    1    3    3  502    0 -8.81155527514E+01 -6.16868340361E+02 -1.26731056287E+03  1.41222057864E+03  4.46040318820E-05 0.00000000000E+00  1.
       23    2    4    4    0    0 -6.58893631724E+00  1.55759950897E+02  1.36369684567E+03  1.37258663618E+03  4.51780345418E+00 0.00000000000E+00  1.
       22    1    4    4    0    0  1.09527861736E+02  5.35571287146E+02  3.36086073290E+03  3.40502831443E+03  6.74349576174E-05 0.00000000000E+00  1.
      -15    1    7    7    0    0 -2.89922266522E+00  9.00916821323E+01  7.97098296554E+02  8.02180633068E+02  1.77680000002E+00 0.00000000000E+00  1.
       15    1    7    7    0    0 -3.68971365202E+00  6.56682687644E+01  5.66598549115E+02  5.70406003113E+02  1.77680000004E+00 0.00000000000E+00  1.
</event>
<event>
10  50   1.0000000E+00   1.2500000E+02   7.8125000E-03   1.2380861E-01
       -2   -1    0    0    0  503  0.00000000000E+00  0.00000000000E+00  5.72233618416E+03  5.72233618416E+03  0.00000000000E+00 0.00000000000E+00  1.
        1   -1    0    0  503    0  0.00000000000E+00  0.00000000000E+00 -1.39675923847E+03  1.39675923847E+03  0.00000000000E+00 0.00000000000E+00  1.
      -24    2    1    2    0    0  1.56252867329E+02  8.07678955368E+02 -1.24078958973E+03  1.49087886140E+03  8.00044990837E+01 0.00000000000E+00  1.
       25    2    1    2    0    0 -1.56252867329E+02 -8.07678955368E+02  5.56636653542E+03  5.62821656123E+03  1.25000000000E+02 0.00000000000E+00  1.
       -4    1    3    3    0  502  3.80717276928E+01  2.69646079051E+02 -4.75323741506E+02  5.47807219066E+02  1.27500000012E+00 0.00000000000E+00  1.
        3    1    3    3  502    0  1.18181139636E+02  5.38032876316E+02 -7.65465848229E+02  9.43071642330E+02  3.57627868652E-05 0.00000000000E+00  1.
       23    2    4    4    0    0 -8.91508483050E+01 -5.82738275512E+02  4.08872618601E+03  4.13204745561E+03  9.27500929282E+01 0.00000000000E+00  1.
       22    1    4    4    0    0 -6.71020190240E+01 -2.24940679856E+02  1.47764034941E+03  1.49616910562E+03  0.00000000000E+00 0.00000000000E+00  1.
      -12    1    7    7    0    0 -8.22312938758E+01 -3.71418681027E+02  2.36443787498E+03  2.39484452250E+03  3.37174788087E-05 0.00000000000E+00  1.
       12    1    7    7    0    0 -6.91955442919E+00 -2.11319594486E+02  1.72428831103E+03  1.73720293311E+03  2.38418579102E-05 0.00000000000E+00  1.
</event>
<event>
10  50   1.0000000E+00   1.2500000E+02   7.8125000E-03   1.2380861E-01
       -1   -1    0    0    0  503  0.00000000000E+00  0.00000000000E+00  5.23474183932E+02  5.23474183932E+02  0.00000000000E+00 0.00000000000E+00  1.
        2   -1    0    0  503    0  0.00000000000E+00  0.00000000000E+00 -2.63427877146E+03  2.63427877146E+03  0.00000000000E+00 0.00000000000E+00  1.
       24    2    1    2    0    0 -7.25625449272E+02 -2.16315657691E+02 -2.25219059128E+03  2.37740703309E+03  7.98560276620E+01 0.00000000000E+00  1.
       25    2    1    2    0    0  7.25625449272E+02  2.16315657691E+02  1.41386003752E+02  7.80345922300E+02  1.25000000000E+02 0.00000000000E+00  1.
       -1    1    3    3    0  502 -4.53228977987E+02 -1.74365791868E+02 -1.41315102098E+03  1.49426093570E+03  0.00000000000E+00 0.00000000000E+00  1.
        2    1    3    3  502    0 -2.72396471284E+02 -4.19498658226E+01 -8.39039570304E+02  8.83146097397E+02  0.00000000000E+00 0.00000000000E+00  1.
       23    2    4    4    0    0  4.49626920820E+02  1.12167708241E+02  8.07484439755E+01  4.79183347039E+02  9.13805568859E+01 0.00000000000E+00  1.
       22    1    4    4    0    0  2.75998528452E+02  1.04147949450E+02  6.06375597765E+01  3.01162575261E+02  2.98023223877E-06 0.00000000000E+00  1.
       -4    1    7    7    0  803  3.70025459234E+02  1.23080640401E+02  8.34175004855E+01  3.98782885208E+02  1.27500000000E+00 0.00000000000E+00  1.
        4    1    7    7  803    0  7.96014615857E+01 -1.09129321592E+01 -2.66905651007E+00  8.04004618304E+01  1.27500000000E+00 0.00000000000E+00  1.
</event>
<event>
10  50   1.0000000E+00   1.2500000E+02   7.8125000E-03   1.2380861E-01
        3   -1    0    0  503    0  0.00000000000E+00  0.00000000000E+00  3.52868904246E+03  3.52868904246E+03  0.00000000000E+00 0.00000000000E+00  1.
       -4   -1    0    0    0  503  0.00000000000E+00  0.00000000000E+00 -2.16445480103E+03  2.16445480103E+03  0.00000000000E+00 0.00000000000E+00  1.
      -24    2    1    2    0    0 -2.38691706201E+03  1.18180272429E+03 -6.98765799652E+01  2.66554915660E+03  7.89862631690E+01 0.00000000000E+00  1.
       25    2    1    2    0    0  2.38691706201E+03 -1.18180272429E+03  1.43411082140E+03  3.02759468689E+03  1.25000000000E+02 0.00000000000E+00  1.
      -12    1    3    3    0    0 -1.30989440287E+03  6.10241288443E+02 -5.71359496079E+01  1.44619580055E+03  5.67419313331E-06 0.00000000000E+00  1.
       11    1    3    3    0    0 -1.07702265914E+03  5.71561435844E+02 -1.27406303573E+01  1.21935335605E+03  5.10639980685E-04 0.00000000000E+00  1.
       23    2    4    4    0    0  3.32468950862E+02 -1.51186377214E+02  2.39029301461E+02  4.37006542171E+02  2.11373366517E+01 0.00000000000E+00  1.
       22    1    4    4    0    0  2.05444811115E+03 -1.03061634708E+03  1.19508151994E+03  2.59058814472E+03  5.84003863998E-05 0.00000000000E+00  1.
       -4    1    7    7    0  803  1.08994497375E+02 -3.99885161436E+01  8.11448146010E+01  1.41650938730E+02  1.27499999999E+00 0.00000000000E+00  1.
        4    1    7    7  803    0  2.23474453486E+02 -1.11197861070E+02  1.57884486860E+02  2.95355603441E+02  1.27500000000E+00 0.00000000000E+00  1.
</event>
<event>
10  50   1.0000000E+00   1.2500000E+02   7.8125000E-03   1.2380861E-01
        2   -1    0    0  503    0  0.00000000000E+00  0.00000000000E+00  9.72099643847E+02  9.72099643847E+02  0.00000000000E+00 0.00000000000E+00  1.
       -1   -1    0    0    0  503  0.00000000000E+00  0.00000000000E+00 -4.49865339909E+03  4.49865339909E+03  0.00000000000E+00 0.00000000000E+00  1.
       24    2    1    2    0    0 -8.94757969808E+02 -1.76934990065E+03 -9.03381458117E+02  2.18018336644E+03  7.68801468915E+01 0.00000000000E+00  1.
       25    2    1    2    0    0  8.94757969808E+02  1.76934990065E+03 -2.62317229712E+03  3.29056967649E+03  1.25000000000E+02 0.00000000000E+00  1.
       -1    1    3    3    0  502 -2.52272685996E+02 -4.39249340486E+02 -2.52776270342E+02  5.66107175422E+02  1.07453801497E-05 0.00000000000E+00  1.
        2    1    3    3  502    0 -6.42485283812E+02 -1.33010056016E+03 -6.50605187776E+02  1.61407619102E+03  8.42936970218E-06 0.00000000000E+00  1.
       23    2    4    4    0    0  2.11636057776E+02  4.38854443623E+02 -7.10533691408E+02  8.62595182405E+02  4.27700648088E+01 0.00000000000E+00  1.
       22    1    4    4    0    0  6.83121912032E+02  1.33049545703E+03 -1.91263860571E+03  2.42797449409E+03  2.38418579102E-05 0.00000000000E+00  1.
       -4    1    7    7    0  803  1.20497808211E+02  2.46218862193E+02 -3.62169714830E+02  4.54215783354E+02  1.27500000000E+00 0.00000000000E+00  1.
        4    1    7    7  803    0  9.11382495652E+01  1.92635581431E+02 -3.48363976578E+02  4.08379399051E+02  1.27499999995E+00 0.00000000000E+00  1.
</event>
<event>
10  50   1.0000000E+00   1.2500000E+02   7.8125000E-03   1.2380861E-01
        1   -1    0    0  503    0  0.00000000000E+00  0.00000000000E+00  4.02929749629E+03  4.02929749629E+03  0.00000000000E+00 0.00000000000E+00  1.
       -2   -1    0    0    0  503  0.00000000000E+00  0.00000000000E+00 -6.25681788895E+03  6.25681788895E+03  0.00000000000E+00 0.00000000000E+00  1.
      -24    2    1    2    0    0  1.14149649019E+03  1.19398923720E+03 -5.96925747186E+03  6.19406872062E+03  7.63414353200E+01 0.00000000000E+00  1.
       25    2    1    2    0    0 -1.14149649019E+03 -1.19398923720E+03  3.74173707920E+03  4.09204666463E+03  1.25000000000E+02 0.00000000000E+00  1.
      -16    1    3    3    0    0  8.90723429342E+02  9.74584428262E+02 -4.73825161482E+03  4.91876319828E+03  6.74349576174E-05 0.00000000000E+00  1.
       15    1    3    3    0    0  2.50773060853E+02  2.19404808941E+02 -1.23100585704E+03  1.27530552234E+03  1.77680000002E+00 0.00000000000E+00  1.
       23    2    4    4    0    0 -6.25635844479E+02 -6.39470709453E+02  2.03550569203E+03  2.22527711539E+03  9.07293769610E+01 0.00000000000E+00  1.
       22    1    4    4    0    0 -5.15860645711E+02 -5.54518527747E+02  1.70623138717E+03  1.86676954924E+03  3.37174788087E-05 0.00000000000E+00  1.
      -14    1    7    7    0    0 -5.55241907403E+02 -5.95005758300E+02  1.79825360358E+03  1.97383926674E+03  0.00000000000E+00 0.00000000000E+00  1.
       14    1    7    7    0    0 -7.03939370760E+01 -4.44649511526E+01  2.37252088455E+02  2.51437848651E+02  0.00000000000E+00 0.00000000000E+00  1.
</event>
<event>
10  50   1.0000000E+00   1.2500000E+02   7.8125000E-03   1.2380861E-01
        1   -1    0    0  503    0  0.00000000000E+00  0.00000000000E+00  5.29856357942E+03  5.29856357942E+03  0.00000000000E+00 0.00000000000E+00  1.
       -2   -1    0    0    0  503  0.00000000000E+00  0.00000000000E+00 -2.76613752658E+03  2.76613752658E+03  0.00000000000E+00 0.00000000000E+00  1.
      -24    2    1    2    0    0  1.69903701884E+03 -3.29794146605E+03  2.76644532998E+02  3.72104826880E+03  8.07670493392E+01 0.00000000000E+00  1.
       25    2    1    2    0    0 -1.69903701884E+03  3.29794146605E+03  2.25578151983E+03  4.34365283720E+03  1.25000000000E+02 0.00000000000E+00  1.
      -12    1    3    3    0    0  1.15714002725E+03 -2.16260344739E+03  1.82810752523E+02  2.45952159668E+03  6.35006301184E-05 0.00000000000E+00  1.
       11    1    3    3    0    0  5.41896991591E+02 -1.13533801866E+03  9.38337804747E+01  1.26152667212E+03  5.12317221528E-04 0.00000000000E+00  1.
       23    2    4    4    0    0 -1.34733886844E+03  2.66972328521E+03  1.83589547971E+03  3.51019380497E+03  9.05753275840E+01 0.00000000000E+00  1.
       22    1    4    4    0    0 -3.51698150399E+02  6.28218180836E+02  4.19886040118E+02  8.33459032235E+02  8.42936970218E-06 0.00000000000E+00  1.
       -5    1    7    7    0  803 -6.37132314579E+02  1.30701707984E+03  8.45323756050E+02  1.68191142702E+03  4.75000000008E+00 0.00000000000E+00  1.
        5    1    7    7  803    0 -7.10206553862E+02  1.36270620537E+03  9.90571723662E+02  1.82828237795E+03  4.74999999988E+00 0.00000000000E+00  1.
</event>
<event>
10  50   1.0000000E+00   1.2500000E+02   7.8125000E-03   1.2380861E-01
       -2   -1    0    0    0  503  0.00000000000E+00  0.00000000000E+00  3.08372150523E+03  3.08372150523E+03  0.00000000000E+00 0.00000000000E+00  1.
        1   -1    0    0  503    0  0.00000000000E+00  0.00000000000E+00 -1.18724242801E+03  1.18724242801E+03  0.00000000000E+00 0.00000000000E+00  1.
      -24    2    1    2    0    0 -3.03853356665E+01 -1.78440547706E+03  1.70871757766E+03  2.47210163837E+03  8.08985479419E+01 0.00000000000E+00  1.
       25    2    1    2    0    0  3.03853356665E+01  1.78440547706E+03  1.87761499558E+02  1.79886229486E+03  1.25000000000E+02 0.00000000000E+00  1.
       -2    1    3    3    0  502  1.13853045785E+01 -1.34905428079E+03  1.29783402330E+03  1.87201768947E+03  4.12953092472E-05 0.00000000000E+00  1.
        1    1    3    3  502    0 -4.17706402450E+01 -4.35351196270E+02  4.10883554367E+02  6.00083948902E+02  1.03238273118E-05 0.00000000000E+00  1.
       23    2    4    4    0    0  2.66203459911E+01  1.75459601400E+03  1.73579448743E+02  1.76563715678E+03  8.96042923574E+01 0.00000000000E+00  1.
       22    1    4    4    0    0  3.76498967539E+00  2.98094630639E+01  1.41820508149E+01  3.32251380844E+01  1.26330740436E-06 0.00000000000E+00  1.
       -1    1    7    7    0  803 -8.61850319449E+00  1.46287250930E+03  1.57528024031E+02  1.47135493183E+03  1.09500724500E-05 0.00000000000E+00  1.
        1    1    7    7  803    0  3.52388491856E+01  2.91723504692E+02  1.60514247124E+01  2.94282224942E+02  5.55055753356E-06 0.00000000000E+00  1.
</event>
<event>
10  50   1.0000000E+00   1.2500000E+02   7.8125000E-03   1.2380861E-01
        2   -1    0    0  503    0  0.00000000000E+00  0.00000000000E+00  2.35763519446E+03  2.35763519446E+03  0.00000000000E+00 0.00000000000E+00  1.
       -1   -1    0    0    0  503  0.00000000000E+00  0.00000000000E+00 -4.01733819026E+03  4.01733819026E+03  0.00000000000E+00 0.00000000000E+00  1.
       24    2    1    2    0    0  3.77621610480E+02  1.55760694774E+03  1.88931407081E+03  2.47883624347E+03  7.98998087585E+01 0.00000000000E+00  1.
       25    2    1    2    0    0 -3.77621610480E+02 -1.55760694774E+03 -3.54901706661E+03  3.89613714125E+03  1.25000000000E+02 0.00000000000E+00  1.
      -11    1    3    3    0    0  2.18673007758E+02  1.04311584509E+03  1.22745659253E+03  1.62559473336E+03  5.11906398620E-04 0.00000000000E+00  1.
       12    1    3    3    0    0  1.58948602722E+02  5.14491102645E+02  6.61857478283E+02  8.53241510106E+02  1.68587394044E-05 0.00000000000E+00  1.
       23    2    4    4    0    0 -2.70375312719E+02 -1.17931841608E+03 -2.73995701282E+03  2.99659161588E+03  9.11161020164E+01 0.00000000000E+00  1.
       22    1    4    4    0    0 -1.07246297761E+02 -3.78288531658E+02 -8.09060053794E+02  8.99545525369E+02  1.19209289551E-05 0.00000000000E+00  1.
       -1    1    7    7    0  803 -5.11215560199E+01 -1.13695350258E+02 -3.14729780840E+02  3.38518656957E+02  1.11510079705E-05 0.00000000000E+00  1.
        1    1    7    7  803    0 -2.19253756699E+02 -1.06562306582E+03 -2.42522723198E+03  2.65807295892E+03  3.37174788087E-05 0.00000000000E+00  1.
</event>
<event>
10  50   1.0000000E+00   1.2500000E+02   7.8125000E-03   1.2380861E-01
       -1   -1    0    0    0  503  0.00000000000E+00  0.00000000000E+00  1.59344880327E+03  1.59344880327E+03  0.00000000000E+00 0.00000000000E+00  1.
        2   -1    0    0  503    0  0.00000000000E+00  0.00000000000E+00 -2.66551162520E+03  2.66551162520E+03  0.00000000000E+00 0.00000000000E+00  1.
       24    2    1    2    0    0 -7.71370196093E+02 -1.83251535765E+03  1.42031421442E+01  1.98988060172E+03  7.93634954407E+01 0.00000000000E+00  1.
       25    2    1    2    0    0  7.71370196093E+02  1.83251535765E+03 -1.08626596407E+03  2.26907982675E+03  1.25000000000E+02 0.00000000000E+00  1.
       -3    1    3    3    0  502 -5.84682638066E+02 -1.37927702436E+03 -2.32924481374E+01  1.49826614302E+03  4.20512511404E-05 0.00000000000E+00  1.
        4    1    3    3  502    0 -1.86687558027E+02 -4.53238333292E+02  3.74955902815E+01  4.91614458700E+02  1.27500000000E+00 0.00000000000E+00  1.
       23    2    4    4    0    0  7.35659499959E+02  1.69618961375E+03 -1.01610702549E+03  2.11165607082E+03  9.14536413171E+01 0.00000000000E+00  1.
       22    1    4    4    0    0  3.57106961340E+01  1.36325743899E+02 -7.01589385798E+01  1.57423755928E+02  3.16101363832E-06 0.00000000000E+00  1.
       -2    1    7    7    0  803  6.68993793286E+02  1.55315672097E+03 -8.99563529188E+02  1.91547984547E+03  2.06476546236E-05 0.00000000000E+00  1.
        2    1    7    7  803    0  6.66657066735E+01  1.43032892779E+02 -1.16543496302E+02  1.96176225352E+02  3.33200093731E-06 0.00000000000E+00  1.
</event>
<event>
10  50   1.0000000E+00   1.2500000E+02   7.8125000E-03   1.2380861E-01
       -2   -1    0    0    0  503  0.00000000000E+00  0.00000000000E+00  4.10304523263E+03  4.10304523263E+03  0.00000000000E+00 0.00000000000E+00  1.
        1   -1    0    0  503    0  0.00000000000E+00  0.00000000000E+00 -2.25896761493E+03  2.25896761493E+03  0.00000000000E+00 0.00000000000E+00  1.
      -24    2    1    2    0    0  7.21116706198E+02 -1.15251189958E+02 -2.16436116463E+03  2.28567888032E+03  8.10959446310E+01 0.00000000000E+00  1.
       25    2    1    2    0    0 -7.21116706198E+02  1.15251189958E+02  4.00843878233E+03  4.07633396724E+03  1.25000000000E+02 0.00000000000E+00  1.
      -12    1    3    3    0    0  4.29568104506E+01 -1.60151006472E+01 -8.96798342330E+01  1.00718636214E+02  3.94247667650E-06 0.00000000000E+00  1.
       11    1    3    3    0    0  6.78159895747E+02 -9.92360893104E+01 -2.07468133040E+03  2.18496024411E+03  5.13015622886E-04 0.00000000000E+00  1.
       23    2    4    4    0    0 -6.01323519569E+02  7.95115927211E+01  3.19212683043E+03  3.25050533539E+03  9.05492422094E+01 0.00000000000E+00  1.
       22    1    4    4    0    0 -1.19793186629E+02  3.57395972369E+01  8.16311951897E+02  8.25828631850E+02  0.00000000000E+00 0.00000000000E+00  1.
       -5    1    7    7    0  803 -5.57662212633E+02  9.68471099661E+01  2.93715522582E+03  2.99119873783E+03  4.75000000008E+00 0.00000000000E+00  1.
        5    1    7    7  803    0 -4.36613069361E+01 -1.73355172451E+01  2.54971604614E+02  2.59306597565E+02  4.75000000000E+00 0.00000000000E+00  1.
</event>
<event>
10  50   1.0000000E+00   1.2500000E+02   7.8125000E-03   1.2380861E-01
        1   -1    0    0  503    0  0.00000000000E+00  0.00000000000E+00  2.43764387141E+03  2.43764387141E+03  0.00000000000E+00 0.00000000000E+00  1.
       -2   -1    0    0    0  503  0.00000000000E+00  0.00000000000E+00 -5.52520081855E+03  5.52520081855E+03  0.00000000000E+00 0.00000000000E+00  1.
      -24    2    1    2    0    0 -2.14170424264E+03 -2.35547266848E+03 -3.52080920506E+03  4.74749384225E+03  8.63236282601E+01 0.00000000000E+00  1.
       25    2    1    2    0    0  2.14170424264E+03  2.35547266848E+03  4.33252257921E+02  3.21535084771E+03  1.25000000000E+02 0.00000000000E+00  1.
       -4    1    3    3    0  502 -3.78839869374E+02 -3.70463062885E+02 -5.73734244384E+02  7.80983441818E+02  1.27500000003E+00 0.00000000000E+00  1.
        3    1    3    3  502    0 -1.76286437327E+03 -1.98500960559E+03 -2.94707496068E+03  3.96651040043E+03  3.37174788087E-05 0.00000000000E+00  1.
       23    2    4    4    0    0  1.60605691119E+03  1.80818038370E+03  3.32355214762E+02  2.44293443023E+03  9.23771598477E+01 0.00000000000E+00  1.
       22    1    4    4    0    0  5.35647331450E+02  5.47292284780E+02  1.00897043159E+02  7.72416417477E+02  1.13483862666E-05 0.00000000000E+00  1.
       -5    1    7    7    0  803  1.15377427670E+03  1.23914231453E+03  2.46481365370E+02  1.71097761037E+03  4.75000000004E+00 0.00000000000E+00  1.
        5    1    7    7  803    0  4.52282634491E+02  5.69038069175E+02  8.58738493915E+01  7.31956819861E+02  4.75000000001E+00 0.00000000000E+00  1.
</event>
<event>
10  50   1.0000000E+00   1.2500000E+02   7.8125000E-03   1.2380861E-01
       -2   -1    0    0    0  503  0.00000000000E+00  0.00000000000E+00  3.00773514986E+03  3.00773514986E+03  0.00000000000E+00 0.00000000000E+00  1.
        1   -1    0    0  503    0  0.00000000000E+00  0.00000000000E+00 -4.64352980964E+03  4.64352980964E+03  0.00000000000E+00 0.00000000000E+00  1.
      -24    2    1    2    0    0 -1.52461102590E+03 -2.26123056194E+02 -4.30123229771E+03  4.56974695396E+03  8.01094717166E+01 0.00000000000E+00  1.
       25    2    1    2    0    0  1.52461102590E+03  2.26123056194E+02  2.66543763792E+03  3.08151800555E+03  1.25000000000E+02 0.00000000000E+00  1.
       -4    1    3    3    0  502 -5.57813676451E+02 -1.21730281328E+02 -1.58369761946E+03  1.68347085943E+03  1.27499999981E+00 0.00000000000E+00  1.
        3    1    3    3  502    0 -9.66797349453E+02 -1.04392774866E+02 -2.71753467825E+03  2.88627609453E+03  4.76837158203E-05 0.00000000000E+00  1.
       23    2    4    4    0    0  1.34574182313E+03  2.14430259142E+02  2.31068538113E+03  2.68405092905E+03  8.86626675555E+01 0.00000000000E+00  1.
       22    1    4    4    0    0  1.78869202770E+02  1.16927970521E+01  3.54752256793E+02  3.97467076501E+02  7.30004829998E-06 0.00000000000E+00  1.
       -3    1    7    7    0  803  1.13125828111E+03  1.97982638422E+02  1.99725430036E+03  2.30390259429E+03  5.33120149970E-05 0.00000000000E+00  1.
        3    1    7    7  803    0  2.14483542022E+02  1.64476207204E+01  3.13431080767E+02  3.80148334754E+02  1.11510079705E-05 0.00000000000E+00  1.
</event>
<event>
10  50   1.0000000E+00   1.2500000E+02   7.8125000E-03   1.2380861E-01
        1   -1    0    0  503    0  0.00000000000E+00  0.00000000000E+00  3.01726553993E+03  3.01726553993E+03  0.00000000000E+00 0.00000000000E+00  1.
       -2   -1    0    0    0  503  0.00000000000E+00  0.00000000000E+00 -4.58036669530E+03  4.58036669530E+03  0.00000000000E+00 0.00000000000E+00  1.
      -24    2    1    2    0    0  2.88151618857E+03 -1.58836159464E+03  9.83373296498E+02  3.43515878374E+03  8.52333788796E+01 0.00000000000E+00  1.
       25    2    1    2    0    0 -2.88151618857E+03  1.58836159464E+03 -2.54647445187E+03  4.16247345149E+03  1.25000000000E+02 0.00000000000E+00  1.
       -4    1    3    3    0  502  1.24079035515E+03 -6.36246679894E+02  4.11157952909E+02  1.45376168301E+03  1.27499999990E+00 0.00000000000E+00  1.
        3    1    3    3  502    0  1.64072583342E+03 -9.52114914742E+02  5.72215343589E+02  1.98139710073E+03  4.61695593143E-05 0.00000000000E+00  1.
       23    2    4    4    0    0 -2.57113363423E+03  1.44252782294E+03 -2.29337175069E+03  3.73625074404E+03  9.16566986431E+01 0.00000000000E+00  1.
       22    1    4    4    0    0 -3.10382554337E+02  1.45833771705E+02 -2.53102701179E+02  4.26222707455E+02  0.00000000000E+00 0.00000000000E+00  1.
       -5    1    7    7    0  803 -1.32808110558E+03  7.69779238018E+02 -1.24479853339E+03  1.97633637054E+03  4.74999999996E+00 0.00000000000E+00  1.
        5    1    7    7  803    0 -1.24305252865E+03  6.72748584917E+02 -1.04857321730E+03  1.75991437349E+03  4.74999999997E+00 0.00000000000E+00  1.
</event>
<event>
10  50   1.0000000E+00   1.2500000E+02   7.8125000E-03   1.2380861E-01
       -1   -1    0    0    0  503  0.00000000000E+00  0.00000000000E+00  4.56354348574E+03  4.56354348574E+03  0.00000000000E+00 0.00000000000E+00  1.
        2   -1    0    0  503    0  0.00000000000E+00  0.00000000000E+00 -2.45313945538E+03  2.45313945538E+03  0.00000000000E+00 0.00000000000E+00  1.
       24    2    1    2    0    0  2.43946421298E+03  5.27464242891E+02 -1.27919184432E+03  2.80548484942E+03  7.21754237523E+01 0.00000000000E+00  1.
       25    2    1    2    0    0 -2.43946421298E+03 -5.27464242891E+02  3.38959587467E+03  4.21119809170E+03  1.25000000000E+02 0.00000000000E+00  1.
       -3    1    3    3    0  502  2.15033085816E+03  4.56548976644E+02 -1.15084905579E+03  2.48129267054E+03  6.52936169511E-05 0.00000000000E+00  1.
        4    1    3    3  502    0  2.89133354822E+02  7.09152662468E+01 -1.28342788526E+02  3.24192178883E+02  1.27500000002E+00 0.00000000000E+00  1.
       23    2    4    4    0    0 -2.19596612635E+03 -4.67775745367E+02  2.98413938628E+03  3.73449168425E+03  1.60899636627E+01 0.00000000000E+00  1.
       22    1    4    4    0    0 -2.43498086625E+02 -5.96884975242E+01  4.05456488388E+02  4.76706407449E+02  1.19209289551E-05 0.00000000000E+00  1.
       -4    1    7    7    0  803 -1.63278087909E+02 -3.35146567924E+01  2.27959220443E+02  2.82400421425E+02  1.27500000000E+00 0.00000000000E+00  1.
        4    1    7    7  803    0 -2.03268803845E+03 -4.34261088574E+02  2.75618016584E+03  3.45209126283E+03  1.27500000271E+00 0.00000000000E+00  1.
</event>
<event>
10  50   1.0000000E+00   1.2500000E+02   7.8125000E-03   1.2380861E-01
       -2   -1    0    0    0  503  0.00000000000E+00  0.00000000000E+00  1.49305351950E+03  1.49305351950E+03  0.00000000000E+00 0.00000000000E+00  1.
        1   -1    0    0  503    0  0.00000000000E+00  0.00000000000E+00 -4.94497181294E+03  4.94497181294E+03  0.00000000000E+00 0.00000000000E+00  1.
      -24    2    1    2    0    0  2.13085311419E+03 -3.30660944521E+02 -3.68012702510E+03  4.26602720175E+03  7.60362459298E+01 0.00000000000E+00  1.
       25    2    1    2    0    0 -2.13085311419E+03  3.30660944521E+02  2.28208731657E+02  2.17199813068E+03  1.25000000000E+02 0.00000000000E+00  1.
      -16    1    3    3    0    0  1.83458721502E+03 -3.06731096730E+02 -3.20116531154E+03  3.70233082896E+03  4.76837158203E-05 0.00000000000E+00  1.
       15    1    3    3    0    0  2.96265899169E+02 -2.39298477912E+01 -4.78961713563E+02  5.63696372796E+02  1.77679999995E+00 0.00000000000E+00  1.
       23    2    4    4    0    0 -2.19416430122E+02  5.02215063878E+01  5.85637102096E+01  2.32664247883E+02  6.09709588663E+00 0.00000000000E+00  1.
       22    1    4    4    0    0 -1.91143668407E+03  2.80439438133E+02  1.69645021447E+02  1.93933388280E+03  9.65705618025E-06 0.00000000000E+00  1.
      -13    1    7    7    0    0 -1.72084001989E+02  3.69526311995E+01  4.66392967268E+01  1.82081398985E+02  1.05660000103E-01 0.00000000000E+00  1.
       13    1    7    7    0    0 -4.73324281329E+01  1.32688751883E+01  1.19244134828E+01  5.05828488983E+01  1.05659999996E-01 0.00000000000E+00  1.
</event>
<event>
10  50   1.0000000E+00   1.2500000E+02   7.8125000E-03   1.2380861E-01
       -2   -1    0    0    0  503  0.00000000000E+00  0.00000000000E+00  1.32738941849E+03  1.32738941849E+03  0.00000000000E+00 0.00000000000E+00  1.
        1   -1    0    0  503    0  0.00000000000E+00  0.00000000000E+00 -4.50440911023E+03  4.50440911023E+03  0.00000000000E+00 0.00000000000E+00  1.
      -24    2    1    2    0    0  2.38605757553E+03 -1.35219555611E+01 -2.21246338703E+03  3.25508599878E+03  8.44809062340E+01 0.00000000000E+00  1.
       25    2    1    2    0    0 -2.38605757553E+03  1.35219555611E+01 -9.64556304709E+02  2.57671252994E+03  1.25000000000E+02 0.00000000000E+00  1.
       -4    1    3    3    0  502  2.29905851919E+03 -1.37734807051E+01 -2.10887043860E+03  3.11980703503E+03  1.27500000048E+00 0.00000000000E+00  1.
        3    1    3    3  502    0  8.69990563411E+01  2.51525143983E-01 -1.03592948433E+02  1.35278963754E+02  0.00000000000E+00 0.00000000000E+00  1.
       23    2    4    4    0    0 -2.07946396183E+03 -8.49736408247E+00 -8.23408235486E+02  2.23847108978E+03  9.22449117733E+01 0.00000000000E+00  1.
       22    1    4    4    0    0 -3.06593613696E+02  2.20193196436E+01 -1.41148069223E+02  3.38241440161E+02  2.98023223877E-06 0.00000000000E+00  1.
      -12    1    7    7    0    0 -1.46810389259E+02  7.32559645416E+00 -8.28245473730E+01  1.68721250604E+02  6.82856991135E-06 0.00000000000E+00  1.
       12    1    7    7    0    0 -1.93265357257E+03 -1.58229605366E+01 -7.40583688113E+02  2.06974983917E+03  1.88486436615E-05 0.00000000000E+00  1.
</event>
<event>
10  50   1.0000000E+00   1.2500000E+02   7.8125000E-03   1.2380861E-01
        1   -1    0    0  503    0  0.00000000000E+00  0.00000000000E+00  3.10817619068E+03  3.10817619068E+03  0.00000000000E+00 0.00000000000E+00  1.
       -2   -1    0    0    0  503  0.00000000000E+00  0.00000000000E+00 -5.06851838849E+03  5.06851838849E+03  0.00000000000E+00 0.00000000000E+00  1.
      -24    2    1    2    0    0 -1.52075229239E+03 -2.58316346014E+03 -3.65765956083E+03  4.72967670462E+03  7.71185496612E+01 0.00000000000E+00  1.
       25    2    1    2    0    0  1.52075229239E+03  2.58316346014E+03  1.69731736302E+03  3.44701787454E+03  1.25000000000E+02 0.00000000000E+00  1.
      -12    1    3    3    0    0 -1.68821748181E+02 -2.41629192236E+02 -3.61921522085E+02  4.66768290856E+02  1.19209289551E-05 0.00000000000E+00  1.
       11    1    3    3    0    0 -1.35193054421E+03 -2.34153426790E+03 -3.29573803875E+03  4.26290841377E+03  5.11350884188E-04 0.00000000000E+00  1.
       23    2    4    4    0    0  1.50901510697E+03  2.57410784773E+03  1.69167501531E+03  3.43115591611E+03  8.89312003518E+01 0.00000000000E+00  1.
       22    1    4    4    0    0  1.17371854182E+01  9.05561241129E+00  5.64234770928E+00  1.58619584339E+01  1.11952566357E-06 0.00000000000E+00  1.
      -14    1    7    7    0    0  1.77820136751E+02  2.88723205802E+02  2.24110553513E+02  4.06456185582E+02  4.21468485109E-06 0.00000000000E+00  1.
       14    1    7    7    0    0  1.33119497022E+03  2.28538464193E+03  1.46756446180E+03  3.02469973052E+03  5.33120149970E-05 0.00000000000E+00  1.
</event>
<event>
10  50   1.0000000E+00   1.2500000E+02   7.8125000E-03   1.2380861E-01
       -1   -1    0    0    0  503  0.00000000000E+00  0.00000000000E+00  4.81281503374E+03  4.81281503374E+03  0.00000000000E+00 0.00000000000E+00  1.
        2   -1    0    0  503    0  0.00000000000E+00  0.00000000000E+00 -4.88901830657E+03  4.88901830657E+03  0.00000000000E+00 0.00000000000E+00  1.
       24    2    1    2    0    0  1.40176179518E+03  4.43940342142E+03 -1.39660324712E+03  4.86113917928E+03  8.32743770413E+01 0.00000000000E+00  1.
       25    2    1    2    0    0 -1.40176179518E+03 -4.43940342142E+03  1.32039997429E+03  4.84069416103E+03  1.25000000000E+02 0.00000000000E+00  1.
       -3    1    3    3    0  502  8.95885660786E+02  2.70538935675E+03 -8.63438441176E+02  2.97779593500E+03  3.37174788087E-05 0.00000000000E+00  1.
        4    1    3    3  502    0  5.05876134396E+02  1.73401406467E+03 -5.33164805948E+02  1.88334324428E+03  1.27500000037E+00 0.00000000000E+00  1.
       23    2    4    4    0    0 -3.82078879596E+02 -1.19933394921E+03  3.07647472459E+02  1.29619545697E+03  3.30076265706E+01 0.00000000000E+00  1.
       22    1    4    4    0    0 -1.01968291558E+03 -3.24006947221E+03  1.01275250183E+03  3.54449870406E+03  2.38418579102E-05 0.00000000000E+00  1.
       -2    1    7    7    0  803 -5.67483060971E+01 -1.92567366675E+02  6.07239986370E+01  2.09737848190E+02  1.97123833825E-06 0.00000000000E+00  1.
        2    1    7    7  803    0 -3.25330573498E+02 -1.00676658253E+03  2.46923473822E+02  1.08645760878E+03  1.33280037493E-05 0.00000000000E+00  1.
</event>
<event>
10  50   1.0000000E+00   1.2500000E+02   7.8125000E-03   1.2380861E-01
       -1   -1    0    0    0  503  0.00000000000E+00  0.00000000000E+00  5.17940992308E+03  5.17940992308E+03  0.00000000000E+00 0.00000000000E+00  1.
        2   -1    0    0  503    0  0.00000000000E+00  0.00000000000E+00 -3.43210520598E+03  3.43210520598E+03  0.00000000000E+00 0.00000000000E+00  1.
       24    2    1    2    0    0 -2.04205268170E+03  2.03870626419E+03  4.01107227939E+03  4.94183245034E+03  8.18825391013E+01 0.00000000000E+00  1.
       25    2    1    2    0    0  2.04205268170E+03 -2.03870626419E+03 -2.26376756229E+03  3.66968267873E+03  1.25000000000E+02 0.00000000000E+00  1.
      -13    1    3    3    0    0 -4.86281486158E+02  5.02933013166E+02  1.02937739443E+03  1.24459998829E+03  1.05659998983E-01 0.00000000000E+00  1.
       14    1    3    3    0    0 -1.55577119554E+03  1.53577325103E+03  2.98169488496E+03  3.69723246205E+03  3.37174788087E-05 0.00000000000E+00  1.
       23    2    4    4    0    0  6.30491135874E+02 -6.33539775794E+02 -6.31156993552E+02  1.09433491058E+03  1.78332855451E+01 0.00000000000E+00  1.
       22    1    4    4    0    0  1.41156154583E+03 -1.40516648840E+03 -1.63261056874E+03  2.57534776815E+03  4.12953092472E-05 0.00000000000E+00  1.
      -13    1    7    7    0    0  5.12861706236E+02 -5.24789185504E+02 -5.19924267803E+02  8.99306440742E+02  1.05660002681E-01 0.00000000000E+00  1.
       13    1    7    7    0    0  1.17629429639E+02 -1.08750590290E+02 -1.11232725750E+02  1.95028469838E+02  1.05660000044E-01 0.00000000000E+00  1.
</event>
<event>
10  50   1.0000000E+00   1.2500000E+02   7.8125000E-03   1.2380861E-01
       -2   -1    0    0    0  503  0.00000000000E+00  0.00000000000E+00  2.39937266646E+03  2.39937266646E+03  0.00000000000E+00 0.00000000000E+00  1.
        1   -1    0    0  503    0  0.00000000000E+00  0.00000000000E+00 -3.08871026567E+03  3.08871026567E+03  0.00000000000E+00 0.00000000000E+00  1.
      -24    2    1    2    0    0 -1.28258895449E+03  9.70370250211E+01  2.07122049969E+03  2.44000868307E+03  9.61114183911E+01 0.00000000000E+00  1.
       25    2    1    2    0    0  1.28258895449E+03 -9.70370250211E+01 -2.76055809890E+03  3.04807424906E+03  1.25000000000E+02 0.00000000000E+00  1.
       -2    1    3    3    0  502 -9.98175844422E+02  4.33731148689E+01  1.55927722698E+03  1.85191298771E+03  1.68587394044E-05 0.00000000000E+00  1.
        1    1    3    3  502    0 -2.84413110064E+02  5.36639101523E+01  5.11943272709E+02  5.88095695360E+02  1.33280037493E-05 0.00000000000E+00  1.
       23    2    4    4    0    0  5.55340588857E+02  4.89073214183E+00 -1.26753762344E+03  1.38422642154E+03  3.16870693517E+01 0.00000000000E+00  1.
       22    1    4    4    0    0  7.27248365633E+02 -1.01927757163E+02 -1.49302047546E+03  1.66384782752E+03  1.68587394044E-05 0.00000000000E+00  1.
       -2    1    7    7    0  803  3.67041309666E+02  1.45772533771E+01 -8.12893840344E+02  8.92035994221E+02  1.68587394044E-05 0.00000000000E+00  1.
        2    1    7    7  803    0  1.88299279191E+02 -9.68652123530E+00 -4.54643783094E+02  4.92190427318E+02  8.42936970218E-06 0.00000000000E+00  1.
</event>
<event>
10  50   1.0000000E+00   1.2500000E+02   7.8125000E-03   1.2380861E-01
       -1   -1    0    0    0  503  0.00000000000E+00  0.00000000000E+00  1.93145446105E+03  1.93145446105E+03  0.00000000000E+00 0.00000000000E+00  1.
        2   -1    0    0  503    0  0.00000000000E+00  0.00000000000E+00 -2.74012895066E+03  2.74012895066E+03  0.00000000000E+00 0.00000000000E+00  1.
       24    2    1    2    0    0 -1.80063052275E+03 -1.38834860817E+03 -7.43434780912E+02  2.39350014790E+03  7.97843798126E+01 0.00000000000E+00  1.
       25    2    1    2    0    0  1.80063052275E+03  1.38834860817E+03 -6.52397086986E+01  2.27808326381E+03  1.25000000000E+02 0.00000000000E+00  1.
      -11    1    3    3    0    0 -1.71618104021E+03 -1.32955860036E+03 -7.26090711306E+02  2.28915074987E+03  5.11767576543E-04 0.00000000000E+00  1.
       12    1    3    3    0    0 -8.44494825405E+01 -5.87900078089E+01 -1.73440696062E+01  1.04349398034E+02  6.33025373070E-06 0.00000000000E+00  1.
       23    2    4    4    0    0  1.50986989961E+03  1.16415475762E+03 -2.17687657681E+01  1.90836127978E+03  8.00342525201E+01 0.00000000000E+00  1.
       22    1    4    4    0    0  2.90760623141E+02  2.24193850550E+02 -4.34709429305E+01  3.69721984028E+02  6.47386431582E-06 0.00000000000E+00  1.
       -5    1    7    7    0  803  7.99267596039E+02  5.86050982453E+02 -4.30005864480E+01  9.92046398636E+02  4.74999999997E+00 0.00000000000E+00  1.
        5    1    7    7  803    0  7.10602303569E+02  5.78103775167E+02  2.12318206799E+01  9.16314881146E+02  4.74999999996E+00 0.00000000000E+00  1.
</event>
<event>
10  50   1.0000000E+00   1.2500000E+02   7.8125000E-03   1.2380861E-01
        2   -1    0    0  503    0  0.00000000000E+00  0.00000000000E+00  3.63948110411E+03  3.63948110411E+03  0.00000000000E+00 0.00000000000E+00  1.
       -1   -1    0    0    0  503  0.00000000000E+00  0.00000000000E+00 -4.26070736970E+03  4.26070736970E+03  0.00000000000E+00 0.00000000000E+00  1.
       24    2    1    2    0    0 -7.65222823060E+02 -2.28452668039E+03 -3.43322654887E+03  4.19511105013E+03  8.53467324213E+01 0.00000000000E+00  1.
       25    2    1    2    0    0  7.65222823060E+02  2.28452668039E+03  2.81200028327E+03  3.70507742368E+03  1.25000000000E+02 0.00000000000E+00  1.
      -11    1    3    3    0    0 -1.08251544458E+02 -4.22865413135E+02 -6.37002715448E+02  7.72208530121E+02  5.10516479143E-04 0.00000000000E+00  1.
       12    1    3    3    0    0 -6.56971278602E+02 -1.86166126726E+03 -2.79622383342E+03  3.42290252001E+03  6.74349576174E-05 0.00000000000E+00  1.
       23    2    4    4    0    0  5.55619391544E+02  1.61236059570E+03  2.01687062215E+03  2.64301715143E+03  9.67106892063E+01 0.00000000000E+00  1.
       22    1    4    4    0    0  2.09603431516E+02  6.72166084686E+02  7.95129661120E+02  1.06206027225E+03  0.00000000000E+00 0.00000000000E+00  1.
      -13    1    7    7    0    0  3.50361896268E+02  8.69248254663E+02  1.10233603757E+03  1.44689002260E+03  1.05659999655E-01 0.00000000000E+00  1.
       13    1    7    7    0    0  2.05257495276E+02  7.43112341042E+02  9.14534584575E+02  1.19612712883E+03  1.05660002345E-01 0.00000000000E+00  1.
</event>
<event>
10  50   1.0000000E+00   1.2500000E+02   7.8125000E-03   1.2380861E-01
       -2   -1    0    0    0  503  0.00000000000E+00  0.00000000000E+00  3.41870953122E+03  3.41870953122E+03  0.00000000000E+00 0.00000000000E+00  1.
        1   -1    0    0  503    0  0.00000000000E+00  0.00000000000E+00 -5.38933197290E+03  5.38933197290E+03  0.00000000000E+00 0.00000000000E+00  1.
      -24    2    1    2    0    0 -1.96115145020E+03 -2.33339819360E+03  2.11374195671E+03  3.71014785288E+03  8.01865959087E+01 0.00000000000E+00  1.
       25    2    1    2    0    0  1.96115145020E+03  2.33339819360E+03 -4.08436439839E+03  5.09789365124E+03  1.25000000000E+02 0.00000000000E+00  1.
      -16    1    3    3    0    0 -1.39347532590E+03 -1.68583359920E+03  1.55445660873E+03  2.68330836031E+03  5.59141130426E-05 0.00000000000E+00  1.
       15    1    3    3    0    0 -5.67676124299E+02 -6.47564594406E+02  5.59285347983E+02  1.02683949258E+03  1.77679999998E+00 0.00000000000E+00  1.
       23    2    4    4    0    0  1.25271798853E+03  1.52356549164E+03 -2.56046296419E+03  3.23242251612E+03  4.50617984916E+01 0.00000000000E+00  1.
       22    1    4    4    0    0  7.08433461670E+02  8.09832701964E+02 -1.52390143420E+03  1.86547113512E+03  3.37174788087E-05 0.00000000000E+00  1.
      -15    1    7    7    0    0  3.49119216422E+00  5.54723823097E+00 -1.19852482851E+01  1.37754662140E+01  1.77680000000E+00 0.00000000000E+00  1.
       15    1    7    7    0    0  1.24922679637E+03  1.51801825340E+03 -2.54847771590E+03  3.21864704991E+03  1.77679999962E+00 0.00000000000E+00  1.
</event>
<event>
10  50   1.0000000E+00   1.2500000E+02   7.8125000E-03   1.2380861E-01
        2   -1    0    0  503    0  0.00000000000E+00  0.00000000000E+00  3.92513082068E+03  3.92513082068E+03  0.00000000000E+00 0.00000000000E+00  1.
       -1   -1    0    0    0  503  0.00000000000E+00  0.00000000000E+00 -4.98969756752E+03  4.98969756752E+03  0.00000000000E+00 0.00000000000E+00  1.
       24    2    1    2    0    0 -5.80586502487E+02  1.11013648935E+03  3.74154404112E+03  3.94654804003E+03  8.12767419358E+01 0.00000000000E+00  1.
       25    2    1    2    0    0  5.80586502487E+02 -1.11013648935E+03 -4.80611078796E+03  4.96828034817E+03  1.25000000000E+02 0.00000000000E+00  1.
      -11    1    3    3    0    0 -2.12161181304E+02  4.92398074782E+02  1.60077840410E+03  1.68818237461E+03  5.09680708085E-04 0.00000000000E+00  1.
       12    1    3    3    0    0 -3.68425321183E+02  6.17738414570E+02  2.14076563702E+03  2.25836566542E+03  4.12953092472E-05 0.00000000000E+00  1.
       23    2    4    4    0    0  2.24980673550E+02 -3.36744426493E+02 -1.39964149767E+03  1.45706633957E+03  5.73442914751E+00 0.00000000000E+00  1.
       22    1    4    4    0    0  3.55605828937E+02 -7.73392062857E+02 -3.40646929029E+03  3.51121400860E+03  4.76837158203E-05 0.00000000000E+00  1.
       -4    1    7    7    0  803  2.33259776353E+01 -3.70377513081E+01 -1.52730868961E+02  1.58884361135E+02  1.27500000000E+00 0.00000000000E+00  1.
        4    1    7    7  803    0  2.01654695915E+02 -2.99706675185E+02 -1.24691062870E+03  1.29818197844E+03  1.27500000026E+00 0.00000000000E+00  1.
</event>
<event>
10  50   1.0000000E+00   1.2500000E+02   7.8125000E-03   1.2380861E-01
        1   -1    0    0  503    0  0.00000000000E+00  0.00000000000E+00  2.66944195682E+03  2.66944195682E+03  0.00000000000E+00 0.00000000000E+00  1.
       -2   -1    0    0    0  503  0.00000000000E+00  0.00000000000E+00 -2.54136063303E+03  2.54136063303E+03  0.00000000000E+00 0.00000000000E+00  1.
      -24    2    1    2    0    0  1.55776297053E+03 -1.61641374215E+03 -1.25300796100E+03  2.57215682531E+03  8.08883520272E+01 0.00000000000E+00  1.
       25    2    1    2    0    0 -1.55776297053E+03  1.61641374215E+03  1.38108928479E+03  2.63864576454E+03  1.25000000000E+02 0.00000000000E+00  1.
      -12    1    3    3    0    0  4.94989669030E+02 -4.63778513921E+02 -3.62972969106E+02  7.69320907504E+02  5.96046447754E-06 0.00000000000E+00  1.
       11    1    3    3    0    0  1.06277330150E+03 -1.15263522823E+03 -8.90034991895E+02  1.80283591781E+03  5.10238040901E-04 0.00000000000E+00  1.
       23    2    4    4    0    0 -8.45926562537E+02  8.90547638788E+02  7.63958342898E+02  1.44934207280E+03  9.10672725952E+01 0.00000000000E+00  1.
       22    1    4    4    0    0 -7.11836407993E+02  7.25866103362E+02  6.17130941892E+02  1.18930369174E+03  2.52881091065E-05 0.00000000000E+00  1.
       -3    1    7    7    0  803 -3.11114023402E+02  2.73308906268E+02  2.82351859899E+02  5.01210800553E+02  8.94069671631E-06 0.00000000000E+00  1.
        3    1    7    7  803    0 -5.34812539136E+02  6.17238732520E+02  4.81606482999E+02  9.48131272244E+02  1.33280037493E-05 0.00000000000E+00  1.
</event>
<event>
10  50   1.0000000E+00   1.2500000E+02   7.8125000E-03   1.2380861E-01
        2   -1    0    0  503    0  0.00000000000E+00  0.00000000000E+00  4.57964988013E+03  4.57964988013E+03  0.00000000000E+00 0.00000000000E+00  1.
       -3   -1    0    0    0  503  0.00000000000E+00  0.00000000000E+00 -7.69672959944E+02  7.69672959944E+02  0.00000000000E+00 0.00000000000E+00  1.
       24    2    1    2    0    0 -1.40688780857E+03 -9.48753822905E+02  7.68815409727E+02  1.86453368503E+03  7.70818136390E+01 0.00000000000E+00  1.
       25    2    1    2    0    0  1.40688780857E+03  9.48753822905E+02  3.04116151046E+03  3.48478915504E+03  1.25000000000E+02 0.00000000000E+00  1.
      -15    1    3    3    0    0 -1.09529728999E+03 -7.22985414639E+02  5.61708243658E+02  1.42755153016E+03  1.77679999951E+00 0.00000000000E+00  1.
       16    1    3    3    0    0 -3.11590518582E+02 -2.25768408266E+02  2.07107166069E+02  4.36982154874E+02  8.42936970218E-06 0.00000000000E+00  1.
       23    2    4    4    0    0  1.02992490846E+03  7.25016353930E+02  2.28058708998E+03  2.60693214380E+03  9.28638621762E+01 0.00000000000E+00  1.
       22    1    4    4    0    0  3.76962900108E+02  2.23737468975E+02  7.60574420483E+02  8.77857011235E+02  8.42936970218E-06 0.00000000000E+00  1.
       -5    1    7    7    0  803  4.87351950039E+01  1.32746071557E+01  9.60835874308E+01  1.08655200984E+02  4.75000000000E+00 0.00000000000E+00  1.
        5    1    7    7  803    0  9.81189713458E+02  7.11741746774E+02  2.18450350255E+03  2.49827694282E+03  4.75000000020E+00 0.00000000000E+00  1.
</event>
<event>
10  50   1.0000000E+00   1.2500000E+02   7.8125000E-03   1.2380861E-01
       -1   -1    0    0    0  503  0.00000000000E+00  0.00000000000E+00  3.93361171471E+03  3.93361171471E+03  0.00000000000E+00 0.00000000000E+00  1.
        2   -1    0    0  503    0  0.00000000000E+00  0.00000000000E+00 -2.63528944330E+03  2.63528944330E+03  0.00000000000E+00 0.00000000000E+00  1.
       24    2    1    2    0    0  3.21640177883E+03 -9.62000580749E+01  6.01569294105E+02  3.27411974411E+03  5.89883815452E+01 0.00000000000E+00  1.
       25    2    1    2    0    0 -3.21640177883E+03  9.62000580749E+01  6.96752977309E+02  3.29478141390E+03  1.25000000000E+02 0.00000000000E+00  1.
       -1    1    3    3    0  502  1.75427307112E+03 -5.67617468635E+01  2.98559365836E+02  1.78040265078E+03  2.02129184697E-05 0.00000000000E+00  1.
        2    1    3    3  502    0  1.46212870771E+03 -3.94383112114E+01  3.03009928269E+02  1.49371709333E+03  3.26468084756E-05 0.00000000000E+00  1.
       23    2    4    4    0    0 -4.98802381467E+02  5.13460439112E+01  1.34628909147E+02  5.19291937224E+02  9.94690428743E+00 0.00000000000E+00  1.
       22    1    4    4    0    0 -2.71759939736E+03  4.48540141637E+01  5.62124068162E+02  2.77548947668E+03  3.09714819354E-05 0.00000000000E+00  1.
       -4    1    7    7    0  803 -4.46601709035E+02  4.34781539097E+01  1.19167793040E+02  4.64269345212E+02  1.27499999993E+00 0.00000000000E+00  1.
        4    1    7    7  803    0 -5.22006724325E+01  7.86789000150E+00  1.54611161069E+01  5.50225920123E+01  1.27500000000E+00 0.00000000000E+00  1.
</event>
<event>
10  50   1.0000000E+00   1.2500000E+02   7.8125000E-03   1.2380861E-01
        1   -1    0    0  503    0  0.00000000000E+00  0.00000000000E+00  3.69266537671E+03  3.69266537671E+03  0.00000000000E+00 0.00000000000E+00  1.
       -2   -1    0    0    0  503  0.00000000000E+00  0.00000000000E+00 -3.41227417673E+03  3.41227417673E+03  0.00000000000E+00 0.00000000000E+00  1.
      -24    2    1    2    0    0 -6.20017009856E+02 -2.84919102469E+03  2.16340030411E+03  3.63166172495E+03  7.97208942794E+01 0.00000000000E+00  1.
       25    2    1    2    0    0  6.20017009856E+02  2.84919102469E+03 -1.88300910413E+03  3.47327782849E+03  1.25000000000E+02 0.00000000000E+00  1.
       -2    1    3    3    0  502 -2.72239617021E+02 -1.36301410933E+03  9.91402708773E+02  1.70727888825E+03  2.66560074985E-05 0.00000000000E+00  1.
        1    1    3    3  502    0 -3.47777392835E+02 -1.48617691536E+03  1.17199759534E+03  1.92438283670E+03  1.68587394044E-05 0.00000000000E+00  1.
       23    2    4    4    0    0  3.90687733302E+02  1.79215660873E+03 -1.21235659643E+03  2.20060801283E+03  9.16782092764E+01 0.00000000000E+00  1.
       22    1    4    4    0    0  2.29329276554E+02  1.05703441596E+03 -6.70652507704E+02  1.27266981566E+03  2.06476546236E-05 0.00000000000E+00  1.
       -2    1    7    7    0  803  3.55913522326E+01  8.36714667691E+01 -7.27602513642E+01  1.16454767544E+02  2.10734242554E-06 0.00000000000E+00  1.
        2    1    7    7  803    0  3.55096381069E+02  1.70848514197E+03 -1.13959634506E+03  2.08415324529E+03  2.92001931999E-05 0.00000000000E+00  1.
</event>
<event>
10  50   1.0000000E+00   1.2500000E+02   7.8125000E-03   1.2380861E-01
       -4   -1    0    0    0  503  0.00000000000E+00  0.00000000000E+00  3.45116711074E+03  3.45116711074E+03  0.00000000000E+00 0.00000000000E+00  1.
        3   -1    0    0  503    0  0.00000000000E+00  0.00000000000E+00 -3.76703344380E+03  3.76703344380E+03  0.00000000000E+00 0.00000000000E+00  1.
      -24    2    1    2    0    0 -2.47673170409E+03  9.20334440734E+02  2.29566191259E+03  3.50108874634E+03  7.96453135694E+01 0.00000000000E+00  1.
       25    2    1    2    0    0  2.47673170409E+03 -9.20334440734E+02 -2.61152824565E+03  3.71711180820E+03  1.25000000000E+02 0.00000000000E+00  1.
      -16    1    3    3    0    0 -1.71428540243E+03  6.16581990848E+02  1.54071878234E+03  2.38595099671E+03  4.76837158203E-05 0.00000000000E+00  1.
       15    1    3    3    0    0 -7.62446301658E+02  3.03752449887E+02  7.54943130250E+02  1.11513774963E+03  1.77680000006E+00 0.00000000000E+00  1.
       23    2    4    4    0    0  1.45026134688E+03 -5.45636415468E+02 -1.55043576618E+03  2.19397121904E+03  9.31749578578E+01 0.00000000000E+00  1.
       22    1    4    4    0    0  1.02647035721E+03 -3.74698025266E+02 -1.06109247947E+03  1.52314058916E+03  3.15398134120E-05 0.00000000000E+00  1.
       -4    1    7    7    0  803  3.37726719676E+02 -1.51483660195E+02 -3.25223500149E+02  4.92725671305E+02  1.27499999996E+00 0.00000000000E+00  1.
        4    1    7    7  803    0  1.11253462720E+03 -3.94152755274E+02 -1.22521226603E+03  1.70124554773E+03  1.27500000026E+00 0.00000000000E+00  1.
</event>
</LesHouchesEvents>
