<LesHouchesEvents version="1.0">
<!--
Output from the JHUGenerator v7.4.0 described in arXiv:1001.3396 [hep-ph], arXiv:1208.4018 [hep-ph], arXiv:1309.4819 [hep-ph], arXiv:1606.03107 [hep-ph]
   
   Command line: ./JHUGen Seed=765543533 PDFSet=3 Process=50 VegasNc0=100000 VegasNc2=100 HbbDK DataFile=compare_to_reference/ZH_bb DecayMode1=9 ghg2=0.383432074687728,0.918260989345657 ghg3=6294.49296087723,2253.12941717723 ghg4=0.335495485382528,0.17285803562226 ghz1=0.154934976270359,0.453918144016304 ghz2=0.469297059144414,0.745302300947002 ghz3=3947.40921062637,3597.4885961919 ghz4=0.177791270766536,0.920170534486048 ghzgs2=0.0240331049939919,0.232175381101053 ghzgs3=0.331962910170583,0.0450183240308457 ghzgs4=0.808286540247172,0.133184346613754 ghgsgs2=0.530394804029869,0.211218112389125 ghgsgs3=0.914978695198138,0.055650585081425 ghgsgs4=0.694524307167701,0.511424456076726 ghz1_prime=0.143354267833606,0.0910761280837012 ghz1_prime2=7416.7007267243,4861.35525489789 ghz1_prime3=4431.44656075298,4436.48625894176 ghz1_prime4=2441.69123517064,6946.16318931911 ghz1_prime5=78314042.889773,69465359.939181 ghz1_prime6=51233058.8130761,29537873.5850789 ghz1_prime7=47832192.9001564,59559649.9633293 ghz2_pr
   
   Input Parameter:
    Collider: P-P, sqrt(s)=13000.00
    Resonance: spin=0, mass= 125.00 width=   0.00407
    DecayMode1: 9
    Z boson: mass=91.188, width=2.4952
    Jet cuts:
            pT >=     0.00 GeV
        DeltaR >=     0.00
           mJJ >=     0.00 GeV
      m(gammastar) >=     4.00 GeV
    Random seed:   765543533
    To reproduce results using this seed, JHUGen should be compiled with the same compiler:
      GNU Fortran (GCC) 6.3.0
    
    WidthScheme:   2
    PDFSet:   3
    Unweighted: T
    
    Spin-0-VV couplings: 
      generate_as=F
      kappa_top=  0.10000000E+01  0.00000000E+00i
      kappa_bot=  0.10000000E+01  0.00000000E+00i
      ghg2=  0.38343207E+00  0.91826099E+00i
      ghg3=  0.62944930E+04  0.22531294E+04i
      ghg4=  0.33549549E+00  0.17285804E+00i
      ghz1=  0.15493498E+00  0.45391814E+00i
      ghz2=  0.46929706E+00  0.74530230E+00i
      ghz3=  0.39474092E+04  0.35974886E+04i
      ghz4=  0.17779127E+00  0.92017053E+00i
      ghz1_prime=   0.14335427E+00  0.91076128E-01i,    Lambda_z1=  1.0000E+04
      ghz1_prime2=  0.74167007E+04  0.48613553E+04i,    Lambda_z1=  1.0000E+04
      ghz1_prime3=  0.44314466E+04  0.44364863E+04i,    Lambda_z1=  1.0000E+04
      ghz1_prime4=  0.24416912E+04  0.69461632E+04i,    Lambda_z1=  1.0000E+04
      ghz1_prime5=  0.78314043E+08  0.69465360E+08i,    Lambda_z1=  1.0000E+04
      ghz1_prime6=  0.51233059E+08  0.29537874E+08i,    Lambda_z1=  1.0000E+04
      ghz1_prime7=  0.47832193E+08  0.59559650E+08i,    Lambda_z1=  1.0000E+04
      ghz2_prime=   0.57465793E+00  0.41992191E+00i,    Lambda_z2=  1.0000E+04
      ghz2_prime2=  0.43854587E+04  0.61761246E+04i,    Lambda_z2=  1.0000E+04
      ghz2_prime3=  0.45921696E+04  0.75499391E+04i,    Lambda_z2=  1.0000E+04
      ghz2_prime4=  0.84715906E+04  0.71997238E+04i,    Lambda_z2=  1.0000E+04
      ghz2_prime5=  0.19558280E+08  0.94843889E+08i,    Lambda_z2=  1.0000E+04
      ghz2_prime6=  0.23209661E+08  0.67617823E+08i,    Lambda_z2=  1.0000E+04
      ghz2_prime7=  0.70059904E+07  0.53660191E+08i,    Lambda_z2=  1.0000E+04
      ghz3_prime=   0.40457065E+04  0.19693161E+04i,    Lambda_z3=  1.0000E+04
      ghz3_prime2=  0.33402456E+08  0.37615919E+07i,    Lambda_z3=  1.0000E+04
      ghz3_prime3=  0.44855080E+08  0.12184926E+08i,    Lambda_z3=  1.0000E+04
      ghz3_prime4=  0.27878602E+08  0.78237524E+08i,    Lambda_z3=  1.0000E+04
      ghz3_prime5=  0.93246434E+12  0.63158085E+12i,    Lambda_z3=  1.0000E+04
      ghz3_prime6=  0.35811562E+12  0.41077746E+12i,    Lambda_z3=  1.0000E+04
      ghz3_prime7=  0.62298148E+12  0.61827857E+12i,    Lambda_z3=  1.0000E+04
      ghz4_prime=   0.41653395E+00  0.33115593E+00i,    Lambda_z4=  1.0000E+04
      ghz4_prime2=  0.75883756E+04  0.39234327E+04i,    Lambda_z4=  1.0000E+04
      ghz4_prime3=  0.89560755E+04  0.93020315E+04i,    Lambda_z4=  1.0000E+04
      ghz4_prime4=  0.32034411E+04  0.28637675E+04i,    Lambda_z4=  1.0000E+04
      ghz4_prime5=  0.49012574E+08  0.74595801E+08i,    Lambda_z4=  1.0000E+04
      ghz4_prime6=  0.73323810E+08  0.53968832E+08i,    Lambda_z4=  1.0000E+04
      ghz4_prime7=  0.68563876E+08  0.43025214E+08i,    Lambda_z4=  1.0000E+04
      ghzgs2=  0.24033105E-01  0.23217538E+00i
      ghzgs3=  0.33196291E+00  0.45018324E-01i
      ghzgs4=  0.80828654E+00  0.13318435E+00i
      ghzgs1_prime2=  0.56689643E+04  0.70176759E+04i,  Lambda_zgs1=  1.0000E+04
      ghgsgs2=  0.53039480E+00  0.21121811E+00i
      ghgsgs3=  0.91497870E+00  0.55650585E-01i
      ghgsgs4=  0.69452431E+00  0.51142446E+00i
      Lambda=  1000.0
      Lambda_Q=  10000.0
      Lambda_z11=   1.3888E+02
      Lambda_z21=   1.5452E+02
      Lambda_z31=   1.1998E+02
      Lambda_z41=   1.8136E+02
      Lambda_z12=   1.3667E+02
      Lambda_z22=   1.6659E+02
      Lambda_z32=   1.3884E+02
      Lambda_z42=   4.9064E+01
      Lambda_z10=   9.6973E+00
      Lambda_z20=   1.9326E+02
      Lambda_z30=   8.9204E+01
      Lambda_z40=   1.6167E+02
    
    LHE output: compare_to_reference/ZH_bb.lhe
    Histogram output: compare_to_reference/ZH_bb.dat
    Log file: compare_to_reference/ZH_bb.log
    
-->
<init>
2212 2212   6500.0000000000000000    6500.0000000000000000 0 0  263000  263000  3  1
 1.0000000E+00  1.0000000E+14  1.0000000E+00  50
</init>
<event>
 8  50   1.0000000E+00   1.2500000E+02   7.8125000E-03   1.2380861E-01
        2   -1    0    0  503    0  0.00000000000E+00  0.00000000000E+00  3.62552888756E+03  3.62552888756E+03  0.00000000000E+00 0.00000000000E+00  1.
       -2   -1    0    0    0  503  0.00000000000E+00  0.00000000000E+00 -5.04734618894E+03  5.04734618894E+03  0.00000000000E+00 0.00000000000E+00  1.
       23    2    1    2    0    0 -8.83259703662E+02  3.47299902669E+03 -3.07636613754E+03  4.72382123776E+03  9.26743256053E+01 0.00000000000E+00  1.
       25    2    1    2    0    0  8.83259703662E+02 -3.47299902669E+03  1.65454883615E+03  3.94905383874E+03  1.24997706143E+02 0.00000000000E+00  1.
        4    1    3    3  502    0 -6.85133841276E+01  2.01445834513E+02 -2.01510902647E+02  2.93057635215E+02  1.27499999999E+00 0.00000000000E+00  1.
       -4    1    3    3    0  502 -8.14746319535E+02  3.27155319218E+03 -2.87485523489E+03  4.43076360255E+03  1.27500000182E+00 0.00000000000E+00  1.
        5    1    4    4  501    0  3.27584276149E+02 -1.46317839710E+03  7.40655359753E+02  1.67235547706E+03  0.00000000000E+00 0.00000000000E+00  1.
       -5    1    4    4    0  501  5.55675427513E+02 -2.00982062959E+03  9.13893476400E+02  2.27669836168E+03  0.00000000000E+00 0.00000000000E+00  1.
</event>
<event>
 8  50   1.0000000E+00   1.2500000E+02   7.8125000E-03   1.2380861E-01
       -2   -1    0    0    0  503  0.00000000000E+00  0.00000000000E+00  3.48969453018E+03  3.48969453018E+03  0.00000000000E+00 0.00000000000E+00  1.
        2   -1    0    0  503    0  0.00000000000E+00  0.00000000000E+00 -2.59756042081E+03  2.59756042081E+03  0.00000000000E+00 0.00000000000E+00  1.
       23    2    1    2    0    0 -4.68954905134E+02  2.15336801267E+03  2.51668387403E+03  3.34650715292E+03  9.21949114832E+01 0.00000000000E+00  1.
       25    2    1    2    0    0  4.68954905134E+02 -2.15336801267E+03 -1.62454976466E+03  2.74074779806E+03  1.24996214749E+02 0.00000000000E+00  1.
        3    1    3    3  502    0 -2.25066878769E+02  9.01547104001E+02  1.00660653204E+03  1.36992663709E+03  1.68587394044E-05 0.00000000000E+00  1.
       -3    1    3    3    0  502 -2.43888026365E+02  1.25182090867E+03  1.51007734199E+03  1.97658051583E+03  0.00000000000E+00 0.00000000000E+00  1.
        5    1    4    4  501    0  2.93235830036E+02 -1.56564463572E+03 -1.21099596132E+03  2.00093518029E+03  0.00000000000E+00 0.00000000000E+00  1.
       -5    1    4    4    0  501  1.75719075097E+02 -5.87723376950E+02 -4.13553803337E+02  7.39812617776E+02  0.00000000000E+00 0.00000000000E+00  1.
</event>
<event>
 8  50   1.0000000E+00   1.2500000E+02   7.8125000E-03   1.2380861E-01
        2   -1    0    0  503    0  0.00000000000E+00  0.00000000000E+00  2.63823337987E+03  2.63823337987E+03  0.00000000000E+00 0.00000000000E+00  1.
       -2   -1    0    0    0  503  0.00000000000E+00  0.00000000000E+00 -1.20625705502E+03  1.20625705502E+03  0.00000000000E+00 0.00000000000E+00  1.
       23    2    1    2    0    0  9.70724995946E+02 -7.33424767989E+01 -8.90842829140E+02  1.32282433149E+03  9.26127911336E+01 0.00000000000E+00  1.
       25    2    1    2    0    0 -9.70724995946E+02  7.33424767989E+01  2.32281915400E+03  2.52166610341E+03  1.24999913014E+02 0.00000000000E+00  1.
        5    1    3    3  502    0  4.02530958860E+02 -3.49079776150E+01 -4.31496955922E+02  5.91153047198E+02  4.74999999996E+00 0.00000000000E+00  1.
       -5    1    3    3    0  502  5.68194037086E+02 -3.84344991840E+01 -4.59345873219E+02  7.31671284287E+02  4.75000000002E+00 0.00000000000E+00  1.
        5    1    4    4  501    0 -8.47354688641E+02  6.00506853397E+01  1.90517945967E+03  2.08598294018E+03  0.00000000000E+00 0.00000000000E+00  1.
       -5    1    4    4    0  501 -1.23370307305E+02  1.32917914593E+01  4.17639694329E+02  4.35683163233E+02  0.00000000000E+00 0.00000000000E+00  1.
</event>
<event>
 8  50   1.0000000E+00   1.2500000E+02   7.8125000E-03   1.2380861E-01
       -2   -1    0    0    0  503  0.00000000000E+00  0.00000000000E+00  2.84002672966E+03  2.84002672966E+03  0.00000000000E+00 0.00000000000E+00  1.
        2   -1    0    0  503    0  0.00000000000E+00  0.00000000000E+00 -3.50363044325E+03  3.50363044325E+03  0.00000000000E+00 0.00000000000E+00  1.
       23    2    1    2    0    0 -1.69431761926E+02 -2.25880489987E+03  1.87293632633E+03  2.94063398570E+03  9.23637254467E+01 0.00000000000E+00  1.
       25    2    1    2    0    0  1.69431761926E+02  2.25880489987E+03 -2.53654003992E+03  3.40302318720E+03  1.24998963623E+02 0.00000000000E+00  1.
        2    1    3    3  502    0 -1.40455982061E+01 -2.03790814737E+02  2.04513239726E+02  2.89056465459E+02  1.03238273118E-05 0.00000000000E+00  1.
       -2    1    3    3    0  502 -1.55386163720E+02 -2.05501408513E+03  1.66842308660E+03  2.65157752025E+03  4.12953092472E-05 0.00000000000E+00  1.
        5    1    4    4  501    0  3.52082541226E+01  7.03275463095E+02 -8.72474509335E+02  1.12118141600E+03  0.00000000000E+00 0.00000000000E+00  1.
       -5    1    4    4    0  501  1.34223507804E+02  1.55552943677E+03 -1.66406553058E+03  2.28184177120E+03  0.00000000000E+00 0.00000000000E+00  1.
</event>
<event>
 8  50   1.0000000E+00   1.2500000E+02   7.8125000E-03   1.2380861E-01
        2   -1    0    0  503    0  0.00000000000E+00  0.00000000000E+00  2.75965400656E+03  2.75965400656E+03  0.00000000000E+00 0.00000000000E+00  1.
       -2   -1    0    0    0  503  0.00000000000E+00  0.00000000000E+00 -5.65228792992E+03  5.65228792992E+03  0.00000000000E+00 0.00000000000E+00  1.
       23    2    1    2    0    0  2.23840493861E+03  3.22455757985E+03 -1.89628910718E+03  4.36020705924E+03  8.52347729236E+01 0.00000000000E+00  1.
       25    2    1    2    0    0 -2.23840493861E+03 -3.22455757985E+03 -9.96344816184E+02  4.05173487724E+03  1.24997070898E+02 0.00000000000E+00  1.
        3    1    3    3  502    0  1.73834287304E+03  2.55689792197E+03 -1.51293335357E+03  3.44216941186E+03  5.33120149970E-05 0.00000000000E+00  1.
       -3    1    3    3    0  502  5.00062065578E+02  6.67659657876E+02 -3.83355753606E+02  9.18037647380E+02  1.78813934326E-05 0.00000000000E+00  1.
        5    1    4    4  501    0 -6.59850784609E+02 -9.77217736481E+02 -3.56472463873E+02  1.23184016006E+03  0.00000000000E+00 0.00000000000E+00  1.
       -5    1    4    4    0  501 -1.57855415401E+03 -2.24733984337E+03 -6.39872352311E+02  2.81989471718E+03  0.00000000000E+00 0.00000000000E+00  1.
</event>
<event>
 8  50   1.0000000E+00   1.2500000E+02   7.8125000E-03   1.2380861E-01
       -2   -1    0    0    0  503  0.00000000000E+00  0.00000000000E+00  1.71159712114E+03  1.71159712114E+03  0.00000000000E+00 0.00000000000E+00  1.
        2   -1    0    0  503    0  0.00000000000E+00  0.00000000000E+00 -2.46407711053E+03  2.46407711053E+03  0.00000000000E+00 0.00000000000E+00  1.
       23    2    1    2    0    0  4.73609486870E+02  1.93232026236E+03  1.32527330483E+02  1.99461271649E+03  5.24295059934E+01 0.00000000000E+00  1.
       25    2    1    2    0    0 -4.73609486870E+02 -1.93232026236E+03 -8.85007319869E+02  2.18106151517E+03  1.24995337334E+02 0.00000000000E+00  1.
        1    1    3    3  502    0  1.88248923332E+02  8.52965446106E+02  7.45943608981E+01  8.76670991914E+02  2.16451869105E-05 0.00000000000E+00  1.
       -1    1    3    3    0  502  2.85360563538E+02  1.07935481625E+03  5.79329695849E+01  1.11794172458E+03  2.80462655793E-05 0.00000000000E+00  1.
        5    1    4    4  501    0 -1.31524991360E+02 -7.35319367904E+02 -2.90764959524E+02  8.01584467073E+02  0.00000000000E+00 0.00000000000E+00  1.
       -5    1    4    4    0  501 -3.42084495510E+02 -1.19700089446E+03 -5.94242360345E+02  1.37947704810E+03  0.00000000000E+00 0.00000000000E+00  1.
</event>
<event>
 8  50   1.0000000E+00   1.2500000E+02   7.8125000E-03   1.2380861E-01
        2   -1    0    0  503    0  0.00000000000E+00  0.00000000000E+00  4.77836223789E+03  4.77836223789E+03  0.00000000000E+00 0.00000000000E+00  1.
       -2   -1    0    0    0  503  0.00000000000E+00  0.00000000000E+00 -1.32321420028E+03  1.32321420028E+03  0.00000000000E+00 0.00000000000E+00  1.
       23    2    1    2    0    0 -3.92869030724E+01 -1.40272160774E+03 -8.00979394922E+02  1.61833903938E+03  9.10048665047E+01 0.00000000000E+00  1.
       25    2    1    2    0    0  3.92869030724E+01  1.40272160774E+03  4.25612743253E+03  4.48323739878E+03  1.25001929229E+02 0.00000000000E+00  1.
       16    1    3    3    0    0 -4.89407225931E+01 -6.13977781117E+02 -3.14332748899E+02  6.91497640678E+02  2.06476546236E-05 0.00000000000E+00  1.
      -16    1    3    3    0    0  9.65381952069E+00 -7.88743826620E+02 -4.86646646023E+02  9.26841398702E+02  1.88486436615E-05 0.00000000000E+00  1.
        5    1    4    4  501    0  6.28982968175E+01  1.30166119212E+03  3.87687038398E+03  4.09003692269E+03  0.00000000000E+00 0.00000000000E+00  1.
       -5    1    4    4    0  501 -2.36113937451E+01  1.01060415622E+02  3.79257048555E+02  3.93200476092E+02  0.00000000000E+00 0.00000000000E+00  1.
</event>
<event>
 8  50   1.0000000E+00   1.2500000E+02   7.8125000E-03   1.2380861E-01
        2   -1    0    0  503    0  0.00000000000E+00  0.00000000000E+00  2.60714378524E+03  2.60714378524E+03  0.00000000000E+00 0.00000000000E+00  1.
       -2   -1    0    0    0  503  0.00000000000E+00  0.00000000000E+00 -1.63049006221E+03  1.63049006221E+03  0.00000000000E+00 0.00000000000E+00  1.
       23    2    1    2    0    0  1.45797123377E+03  4.33620658608E+02  1.91411289806E+03  2.44649973124E+03  8.84632939988E+01 0.00000000000E+00  1.
       25    2    1    2    0    0 -1.45797123377E+03 -4.33620658608E+02 -9.37459175026E+02  1.79113411622E+03  1.24998893465E+02 0.00000000000E+00  1.
        1    1    3    3  502    0  1.19701790570E+03  3.26744818898E+02  1.52714792075E+03  1.96768768230E+03  2.92001931999E-05 0.00000000000E+00  1.
       -1    1    3    3    0  502  2.60953328065E+02  1.06875839710E+02  3.86964977313E+02  4.78812048939E+02  4.21468485109E-06 0.00000000000E+00  1.
        5    1    4    4  501    0 -1.05875418264E+02 -2.81753119642E+01 -3.21023086502E+01  1.14166591512E+02  0.00000000000E+00 0.00000000000E+00  1.
       -5    1    4    4    0  501 -1.35209581550E+03 -4.05445346644E+02 -9.05356866376E+02  1.67696752470E+03  0.00000000000E+00 0.00000000000E+00  1.
</event>
<event>
 8  50   1.0000000E+00   1.2500000E+02   7.8125000E-03   1.2380861E-01
        1   -1    0    0  503    0  0.00000000000E+00  0.00000000000E+00  3.16330357224E+03  3.16330357224E+03  0.00000000000E+00 0.00000000000E+00  1.
       -1   -1    0    0    0  503  0.00000000000E+00  0.00000000000E+00 -4.32200018189E+03  4.32200018189E+03  0.00000000000E+00 0.00000000000E+00  1.
       23    2    1    2    0    0 -3.65753548137E+03  1.68407801550E+02 -6.92392851404E+01  3.66320104820E+03  9.12187250514E+01 0.00000000000E+00  1.
       25    2    1    2    0    0  3.65753548137E+03 -1.68407801550E+02 -1.08945732451E+03  3.82210270592E+03  1.24999390346E+02 0.00000000000E+00  1.
       16    1    3    3    0    0 -1.06708792149E+02  9.65536383956E-01  1.28279296699E+01  1.07481414031E+02  5.89020114423E-07 0.00000000000E+00  1.
      -16    1    3    3    0    0 -3.55082668922E+03  1.67442265166E+02 -8.20672148103E+01  3.55571963417E+03  4.61334752453E-05 0.00000000000E+00  1.
        5    1    4    4  501    0  6.46566659880E+01 -1.77122528383E+01 -1.18787074969E+01  6.80831260232E+01  0.00000000000E+00 0.00000000000E+00  1.
       -5    1    4    4    0  501  3.59287881538E+03 -1.50695548711E+02 -1.07757861701E+03  3.75401957990E+03  0.00000000000E+00 0.00000000000E+00  1.
</event>
<event>
 8  50   1.0000000E+00   1.2500000E+02   7.8125000E-03   1.2380861E-01
        2   -1    0    0  503    0  0.00000000000E+00  0.00000000000E+00  3.65944927888E+03  3.65944927888E+03  0.00000000000E+00 0.00000000000E+00  1.
       -2   -1    0    0    0  503  0.00000000000E+00  0.00000000000E+00 -2.48128339987E+03  2.48128339987E+03  0.00000000000E+00 0.00000000000E+00  1.
       23    2    1    2    0    0  4.62991937612E+02 -1.96402097610E+03  2.86655773898E+03  3.50671822371E+03  9.04405922830E+01 0.00000000000E+00  1.
       25    2    1    2    0    0 -4.62991937612E+02  1.96402097610E+03 -1.68839185997E+03  2.63401445504E+03  1.25000590795E+02 0.00000000000E+00  1.
        5    1    3    3  502    0  6.32744046350E+01 -4.28677038875E+02  6.17594370835E+02  7.54462075474E+02  4.75000000002E+00 0.00000000000E+00  1.
       -5    1    3    3    0  502  3.99717532977E+02 -1.53534393722E+03  2.24896336815E+03  2.75225614824E+03  4.74999999990E+00 0.00000000000E+00  1.
        5    1    4    4  501    0 -6.57662787686E+01  1.58999973066E+02 -1.16949539935E+02  2.08046604752E+02  0.00000000000E+00 0.00000000000E+00  1.
       -5    1    4    4    0  501 -3.97225658843E+02  1.80502100303E+03 -1.57144232004E+03  2.42596785029E+03  0.00000000000E+00 0.00000000000E+00  1.
</event>
<event>
 8  50   1.0000000E+00   1.2500000E+02   7.8125000E-03   1.2380861E-01
       -2   -1    0    0    0  503  0.00000000000E+00  0.00000000000E+00  2.90655335981E+03  2.90655335981E+03  0.00000000000E+00 0.00000000000E+00  1.
        2   -1    0    0  503    0  0.00000000000E+00  0.00000000000E+00 -2.31327722300E+03  2.31327722300E+03  0.00000000000E+00 0.00000000000E+00  1.
       23    2    1    2    0    0  1.56545865306E+03  8.15605521559E+02  2.20519116859E+03  2.82613737605E+03  9.11658764645E+01 0.00000000000E+00  1.
       25    2    1    2    0    0 -1.56545865306E+03 -8.15605521559E+02 -1.61191503178E+03  2.39369320676E+03  1.24995748660E+02 0.00000000000E+00  1.
        1    1    3    3  502    0  1.38151231245E+03  7.35244701308E+02  1.99353187608E+03  2.53442900496E+03  0.00000000000E+00 0.00000000000E+00  1.
       -1    1    3    3    0  502  1.83946340612E+02  8.03608202508E+01  2.11659292514E+02  2.91708371089E+02  5.96046447754E-06 0.00000000000E+00  1.
        5    1    4    4  501    0 -5.76805226985E+01 -4.26477532607E+01 -3.83495267667E+01  8.13422384754E+01  0.00000000000E+00 0.00000000000E+00  1.
       -5    1    4    4    0  501 -1.50777813036E+03 -7.72957768298E+02 -1.57356550501E+03  2.31235096829E+03  0.00000000000E+00 0.00000000000E+00  1.
</event>
<event>
 8  50   1.0000000E+00   1.2500000E+02   7.8125000E-03   1.2380861E-01
        1   -1    0    0  503    0  0.00000000000E+00  0.00000000000E+00  4.06368784235E+03  4.06368784235E+03  0.00000000000E+00 0.00000000000E+00  1.
       -1   -1    0    0    0  503  0.00000000000E+00  0.00000000000E+00 -4.44692314815E+03  4.44692314815E+03  0.00000000000E+00 0.00000000000E+00  1.
       23    2    1    2    0    0  2.50507089451E+03 -1.74949284026E+03  2.76484357451E+03  4.12174716382E+03  9.12924222595E+01 0.00000000000E+00  1.
       25    2    1    2    0    0 -2.50507089451E+03  1.74949284026E+03 -3.14807888031E+03  4.38886382667E+03  1.24978669405E+02 0.00000000000E+00  1.
        3    1    3    3  502    0  2.37600386570E+03 -1.68197015847E+03  2.62522442046E+03  3.91997719912E+03  3.37174788087E-05 0.00000000000E+00  1.
       -3    1    3    3    0  502  1.29067028812E+02 -6.75226817888E+01  1.39619154042E+02  2.01769964707E+02  4.47034835815E-06 0.00000000000E+00  1.
        5    1    4    4  501    0 -2.26847723894E+03  1.61293850275E+03 -2.82703104853E+03  3.96732455776E+03  0.00000000000E+00 0.00000000000E+00  1.
       -5    1    4    4    0  501 -2.36593655570E+02  1.36554337514E+02 -3.21047831779E+02  4.21539268918E+02  0.00000000000E+00 0.00000000000E+00  1.
</event>
<event>
 8  50   1.0000000E+00   1.2500000E+02   7.8125000E-03   1.2380861E-01
        2   -1    0    0  503    0  0.00000000000E+00  0.00000000000E+00  1.73447189941E+03  1.73447189941E+03  0.00000000000E+00 0.00000000000E+00  1.
       -2   -1    0    0    0  503  0.00000000000E+00  0.00000000000E+00 -2.07187711397E+03  2.07187711397E+03  0.00000000000E+00 0.00000000000E+00  1.
       23    2    1    2    0    0 -7.91055769236E+02 -1.52686748670E+03  6.24779624439E+02  1.83188241026E+03  9.13785200299E+01 0.00000000000E+00  1.
       25    2    1    2    0    0  7.91055769236E+02  1.52686748670E+03 -9.62184839007E+02  1.97446660312E+03  1.25000601700E+02 0.00000000000E+00  1.
       14    1    3    3    0    0 -3.30245069176E+02 -7.22387121615E+02  2.63412212778E+02  8.36833886163E+02  1.81280449936E-05 0.00000000000E+00  1.
      -14    1    3    3    0    0 -4.60810700060E+02 -8.04480365089E+02  3.61367411661E+02  9.95048524100E+02  3.06833688646E-05 0.00000000000E+00  1.
        5    1    4    4  501    0  6.09178199296E+02  1.24448090204E+03 -8.17250788341E+02  1.60864217435E+03  0.00000000000E+00 0.00000000000E+00  1.
       -5    1    4    4    0  501  1.81877569940E+02  2.82386584662E+02 -1.44934050666E+02  3.65824428773E+02  0.00000000000E+00 0.00000000000E+00  1.
</event>
<event>
 8  50   1.0000000E+00   1.2500000E+02   7.8125000E-03   1.2380861E-01
        2   -1    0    0  503    0  0.00000000000E+00  0.00000000000E+00  2.86135476292E+03  2.86135476292E+03  0.00000000000E+00 0.00000000000E+00  1.
       -2   -1    0    0    0  503  0.00000000000E+00  0.00000000000E+00 -2.39559748883E+03  2.39559748883E+03  0.00000000000E+00 0.00000000000E+00  1.
       23    2    1    2    0    0 -2.36709041616E+03 -6.76942844410E+01 -8.82867075531E+02  2.52892862392E+03  9.12477802735E+01 0.00000000000E+00  1.
       25    2    1    2    0    0  2.36709041616E+03  6.76942844410E+01  1.34862434962E+03  2.72802362784E+03  1.25002893065E+02 0.00000000000E+00  1.
       16    1    3    3    0    0 -3.04214360737E+02 -3.77670280810E+01 -1.04012997224E+02  3.23715043333E+02  9.88431212412E-06 0.00000000000E+00  1.
      -16    1    3    3    0    0 -2.06287605542E+03 -2.99272563600E+01 -7.78854078307E+02  2.20521358058E+03  1.68587394044E-05 0.00000000000E+00  1.
        5    1    4    4  501    0  1.34466434613E+03  5.31644008045E+01  6.96898230608E+02  1.51545894075E+03  0.00000000000E+00 0.00000000000E+00  1.
       -5    1    4    4    0  501  1.02242607002E+03  1.45298836365E+01  6.51726119013E+02  1.21256468709E+03  0.00000000000E+00 0.00000000000E+00  1.
</event>
<event>
 8  50   1.0000000E+00   1.2500000E+02   7.8125000E-03   1.2380861E-01
        2   -1    0    0  503    0  0.00000000000E+00  0.00000000000E+00  4.52030766812E+03  4.52030766812E+03  0.00000000000E+00 0.00000000000E+00  1.
       -2   -1    0    0    0  503  0.00000000000E+00  0.00000000000E+00 -1.57358287266E+03  1.57358287266E+03  0.00000000000E+00 0.00000000000E+00  1.
       23    2    1    2    0    0 -1.51737610229E+03  1.20554572188E+02 -1.02586445195E+03  1.83782970871E+03  9.08654156016E+01 0.00000000000E+00  1.
       25    2    1    2    0    0  1.51737610229E+03 -1.20554572188E+02  3.97258924741E+03  4.25606083206E+03  1.24999347728E+02 0.00000000000E+00  1.
        5    1    3    3  502    0 -1.50903352461E+03  1.22512857570E+02 -1.01293308494E+03  1.82160576848E+03  4.74999999982E+00 0.00000000000E+00  1.
       -5    1    3    3    0  502 -8.34257768179E+00 -1.95828538165E+00 -1.29313670090E+01  1.62239402345E+01  4.75000000000E+00 0.00000000000E+00  1.
        5    1    4    4  501    0  1.33505595832E+03 -1.43917689628E+02  3.53427196355E+03  3.78076249261E+03  0.00000000000E+00 0.00000000000E+00  1.
       -5    1    4    4    0  501  1.82320143973E+02  2.33631174401E+01  4.38317283859E+02  4.75298339450E+02  0.00000000000E+00 0.00000000000E+00  1.
</event>
<event>
 8  50   1.0000000E+00   1.2500000E+02   7.8125000E-03   1.2380861E-01
       -2   -1    0    0    0  503  0.00000000000E+00  0.00000000000E+00  5.44204286120E+03  5.44204286120E+03  0.00000000000E+00 0.00000000000E+00  1.
        2   -1    0    0  503    0  0.00000000000E+00  0.00000000000E+00 -4.08770098430E+03  4.08770098430E+03  0.00000000000E+00 0.00000000000E+00  1.
       23    2    1    2    0    0 -1.20027148705E+03 -9.77214885240E+02  5.17671946922E+03  5.40399559343E+03  9.56207943654E+01 0.00000000000E+00  1.
       25    2    1    2    0    0  1.20027148705E+03  9.77214885240E+02 -3.82237759232E+03  4.12574825207E+03  1.25010426280E+02 0.00000000000E+00  1.
        2    1    3    3  502    0 -1.19718030100E+03 -9.76969941794E+02  5.17418456935E+03  5.39999045351E+03  6.74349576174E-05 0.00000000000E+00  1.
       -2    1    3    3    0  502 -3.09118605109E+00 -2.44943445887E-01  2.53489986814E+00  4.00513992710E+00  8.43991011399E-07 0.00000000000E+00  1.
        5    1    4    4  501    0  7.14011298344E+02  5.92792122984E+02 -2.12821215075E+03  2.32174537662E+03  0.00000000000E+00 0.00000000000E+00  1.
       -5    1    4    4    0  501  4.86260188711E+02  3.84422762255E+02 -1.69416544157E+03  1.80400287546E+03  0.00000000000E+00 0.00000000000E+00  1.
</event>
<event>
 8  50   1.0000000E+00   1.2500000E+02   7.8125000E-03   1.2380861E-01
        1   -1    0    0  503    0  0.00000000000E+00  0.00000000000E+00  1.26052694710E+03  1.26052694710E+03  0.00000000000E+00 0.00000000000E+00  1.
       -1   -1    0    0    0  503  0.00000000000E+00  0.00000000000E+00 -4.16775193411E+03  4.16775193411E+03  0.00000000000E+00 0.00000000000E+00  1.
       23    2    1    2    0    0 -1.30291782273E+03 -1.25040718353E+03 -3.11953902930E+03  3.60568910614E+03  9.14177083365E+01 0.00000000000E+00  1.
       25    2    1    2    0    0  1.30291782273E+03  1.25040718353E+03  2.12314042286E+02  1.82258977507E+03  1.25073011553E+02 0.00000000000E+00  1.
        4    1    3    3  502    0 -6.67150304446E+02 -5.78265731462E+02 -1.50481521569E+03  1.74469230637E+03  1.27500000037E+00 0.00000000000E+00  1.
       -4    1    3    3    0  502 -6.35767518285E+02 -6.72141452068E+02 -1.61472381360E+03  1.86099679976E+03  1.27499999959E+00 0.00000000000E+00  1.
        5    1    4    4  501    0  1.02361936737E+03  9.26227733464E+02  1.27313667526E+02  1.38632723173E+03  0.00000000000E+00 0.00000000000E+00  1.
       -5    1    4    4    0  501  2.79298455360E+02  3.24179450066E+02  8.50003747605E+01  4.36262543339E+02  0.00000000000E+00 0.00000000000E+00  1.
</event>
<event>
 8  50   1.0000000E+00   1.2500000E+02   7.8125000E-03   1.2380861E-01
        2   -1    0    0  503    0  0.00000000000E+00  0.00000000000E+00  4.62306577131E+03  4.62306577131E+03  0.00000000000E+00 0.00000000000E+00  1.
       -2   -1    0    0    0  503  0.00000000000E+00  0.00000000000E+00 -1.52111767453E+03  1.52111767453E+03  0.00000000000E+00 0.00000000000E+00  1.
       23    2    1    2    0    0 -2.59818288063E+03  4.23453538864E+02  1.89913488219E+03  3.24724513903E+03  8.95573081326E+01 0.00000000000E+00  1.
       25    2    1    2    0    0  2.59818288063E+03 -4.23453538864E+02  1.20281321458E+03  2.89693830681E+03  1.24998973984E+02 0.00000000000E+00  1.
        2    1    3    3  502    0 -5.85219049455E-01 -1.58824169845E+00  2.23322848812E+00  2.80219601539E+00  3.82579786823E-07 0.00000000000E+00  1.
       -2    1    3    3    0  502 -2.59759766158E+03  4.25041780563E+02  1.89690165371E+03  3.24444294302E+03  0.00000000000E+00 0.00000000000E+00  1.
        5    1    4    4  501    0  2.21082634204E+03 -3.84288954898E+02  9.83008071962E+02  2.44984407362E+03  0.00000000000E+00 0.00000000000E+00  1.
       -5    1    4    4    0  501  3.87356538590E+02 -3.91645839658E+01  2.19805142621E+02  4.47094233186E+02  0.00000000000E+00 0.00000000000E+00  1.
</event>
<event>
 8  50   1.0000000E+00   1.2500000E+02   7.8125000E-03   1.2380861E-01
       -2   -1    0    0    0  503  0.00000000000E+00  0.00000000000E+00  1.88029769904E+03  1.88029769904E+03  0.00000000000E+00 0.00000000000E+00  1.
        2   -1    0    0  503    0  0.00000000000E+00  0.00000000000E+00 -3.60297926333E+03  3.60297926333E+03  0.00000000000E+00 0.00000000000E+00  1.
       23    2    1    2    0    0 -2.03644988269E+03  9.68776487472E+02  5.02936658635E+02  2.31236881235E+03  9.19142772952E+01 0.00000000000E+00  1.
       25    2    1    2    0    0  2.03644988269E+03 -9.68776487472E+02 -2.22561822292E+03  3.17090815002E+03  1.25004057103E+02 0.00000000000E+00  1.
        1    1    3    3  502    0 -1.60358644914E+03  7.27779736375E+02  4.14026035221E+02  1.80902471028E+03  2.30847796572E-05 0.00000000000E+00  1.
       -1    1    3    3    0  502 -4.32863433545E+02  2.40996751097E+02  8.89106234141E+01  5.03344102076E+02  1.06415576168E-05 0.00000000000E+00  1.
        5    1    4    4  501    0  2.28862611938E+02 -1.40482366701E+02 -3.06409219653E+02  4.07430976222E+02  0.00000000000E+00 0.00000000000E+00  1.
       -5    1    4    4    0  501  1.80758727075E+03 -8.28294120771E+02 -1.91920900326E+03  2.76347717380E+03  0.00000000000E+00 0.00000000000E+00  1.
</event>
<event>
 8  50   1.0000000E+00   1.2500000E+02   7.8125000E-03   1.2380861E-01
        1   -1    0    0  503    0  0.00000000000E+00  0.00000000000E+00  1.20195643431E+03  1.20195643431E+03  0.00000000000E+00 0.00000000000E+00  1.
       -1   -1    0    0    0  503  0.00000000000E+00  0.00000000000E+00 -4.66888178504E+03  4.66888178504E+03  0.00000000000E+00 0.00000000000E+00  1.
       23    2    1    2    0    0 -1.41781828021E+03 -1.73766304360E+03 -7.97191528293E+02  2.38188612234E+03  9.04745170079E+01 0.00000000000E+00  1.
       25    2    1    2    0    0  1.41781828021E+03  1.73766304360E+03 -2.66973382243E+03  3.48895209701E+03  1.25006095128E+02 0.00000000000E+00  1.
        2    1    3    3  502    0 -1.40191991909E+03 -1.70041293742E+03 -7.87048232791E+02  2.34013429915E+03  4.46040318820E-05 0.00000000000E+00  1.
       -2    1    3    3    0  502 -1.58983611154E+01 -3.72501061730E+01 -1.01432955020E+01  4.17518231901E+01  2.15616764553E-06 0.00000000000E+00  1.
        5    1    4    4  501    0  7.49993333045E+02  1.00762932085E+03 -1.53513535266E+03  1.98354415097E+03  0.00000000000E+00 0.00000000000E+00  1.
       -5    1    4    4    0  501  6.67824947162E+02  7.30033722750E+02 -1.13459846977E+03  1.50540794604E+03  0.00000000000E+00 0.00000000000E+00  1.
</event>
<event>
 8  50   1.0000000E+00   1.2500000E+02   7.8125000E-03   1.2380861E-01
        2   -1    0    0  503    0  0.00000000000E+00  0.00000000000E+00  2.87869166551E+03  2.87869166551E+03  0.00000000000E+00 0.00000000000E+00  1.
       -2   -1    0    0    0  503  0.00000000000E+00  0.00000000000E+00 -1.58454014541E+03  1.58454014541E+03  0.00000000000E+00 0.00000000000E+00  1.
       23    2    1    2    0    0  1.14248849296E+03 -1.66989699995E+03 -5.84956638643E+01  2.02620132298E+03  9.07420054756E+01 0.00000000000E+00  1.
       25    2    1    2    0    0 -1.14248849296E+03  1.66989699995E+03  1.35264718396E+03  2.43703048795E+03  1.25008991380E+02 0.00000000000E+00  1.
        5    1    3    3  502    0  1.05530214543E+03 -1.57999848361E+03 -5.66232315214E+01  1.90086469250E+03  4.74999999997E+00 0.00000000000E+00  1.
       -5    1    3    3    0  502  8.71863475287E+01 -8.98985163398E+01 -1.87243234299E+00  1.25336630473E+02  4.75000000000E+00 0.00000000000E+00  1.
        5    1    4    4  501    0 -5.51581489815E+02  7.11091184149E+02  5.63345241770E+02  1.06172061933E+03  0.00000000000E+00 0.00000000000E+00  1.
       -5    1    4    4    0  501 -5.90907003144E+02  9.58805815800E+02  7.89301942188E+02  1.37530986862E+03  0.00000000000E+00 0.00000000000E+00  1.
</event>
<event>
 8  50   1.0000000E+00   1.2500000E+02   7.8125000E-03   1.2380861E-01
       -1   -1    0    0    0  503  0.00000000000E+00  0.00000000000E+00  5.01380959988E+03  5.01380959988E+03  0.00000000000E+00 0.00000000000E+00  1.
        1   -1    0    0  503    0  0.00000000000E+00  0.00000000000E+00 -4.27678645573E+03  4.27678645573E+03  0.00000000000E+00 0.00000000000E+00  1.
       23    2    1    2    0    0 -3.84507801694E+03 -1.50645675086E+03 -1.73023058702E+03  4.47842368575E+03  9.24333610724E+01 0.00000000000E+00  1.
       25    2    1    2    0    0  3.84507801694E+03  1.50645675086E+03  2.46725373116E+03  4.81217236986E+03  1.25000178832E+02 0.00000000000E+00  1.
        1    1    3    3  502    0 -1.30757469377E+03 -4.65403350265E+02 -5.81628514261E+02  1.50487327932E+03  1.88486436615E-05 0.00000000000E+00  1.
       -1    1    3    3    0  502 -2.53750332318E+03 -1.04105340060E+03 -1.14860207276E+03  2.97355040643E+03  6.07850493621E-05 0.00000000000E+00  1.
        5    1    4    4  501    0  3.73001381708E+03  1.43988384228E+03  2.39836175066E+03  4.66244652965E+03  0.00000000000E+00 0.00000000000E+00  1.
       -5    1    4    4    0  501  1.15064199864E+02  6.65729085834E+01  6.88919804993E+01  1.49725840204E+02  0.00000000000E+00 0.00000000000E+00  1.
</event>
<event>
 8  50   1.0000000E+00   1.2500000E+02   7.8125000E-03   1.2380861E-01
       -2   -1    0    0    0  503  0.00000000000E+00  0.00000000000E+00  9.88922190285E+02  9.88922190285E+02  0.00000000000E+00 0.00000000000E+00  1.
        2   -1    0    0  503    0  0.00000000000E+00  0.00000000000E+00 -2.99856752437E+03  2.99856752437E+03  0.00000000000E+00 0.00000000000E+00  1.
       23    2    1    2    0    0  7.58646718193E+02  1.53754666895E+03 -1.14015599972E+03  2.06103393766E+03  9.11624169360E+01 0.00000000000E+00  1.
       25    2    1    2    0    0 -7.58646718193E+02 -1.53754666895E+03 -8.69489334357E+02  1.92645577699E+03  1.25002223556E+02 0.00000000000E+00  1.
       15    1    3    3    0    0  6.29921106196E+01  1.13635257540E+02 -5.96692380203E+01  1.42984449297E+02  1.77680000000E+00 0.00000000000E+00  1.
      -15    1    3    3    0    0  6.95654607574E+02  1.42391141141E+03 -1.08048676170E+03  1.91804948837E+03  1.77679999978E+00 0.00000000000E+00  1.
        5    1    4    4  501    0 -5.96925046719E+02 -1.26275361272E+03 -7.54582091402E+02  1.58753278092E+03  0.00000000000E+00 0.00000000000E+00  1.
       -5    1    4    4    0  501 -1.61721671474E+02 -2.74793056236E+02 -1.14907242955E+02  3.38922996067E+02  0.00000000000E+00 0.00000000000E+00  1.
</event>
<event>
 8  50   1.0000000E+00   1.2500000E+02   7.8125000E-03   1.2380861E-01
       -2   -1    0    0    0  503  0.00000000000E+00  0.00000000000E+00  6.27801218262E+03  6.27801218262E+03  0.00000000000E+00 0.00000000000E+00  1.
        2   -1    0    0  503    0  0.00000000000E+00  0.00000000000E+00 -2.41855920781E+03  2.41855920781E+03  0.00000000000E+00 0.00000000000E+00  1.
       23    2    1    2    0    0 -6.12591809562E+02 -6.96901784298E+02  6.15094333850E+03  6.22119438777E+03  9.06357259015E+01 0.00000000000E+00  1.
       25    2    1    2    0    0  6.12591809562E+02  6.96901784298E+02 -2.29149036369E+03  2.47537700266E+03  1.24989584821E+02 0.00000000000E+00  1.
       11    1    3    3    0    0 -9.45014405950E+01 -1.24945269915E+02  1.26875433878E+03  1.27838938314E+03  5.10516479143E-04 0.00000000000E+00  1.
      -11    1    3    3    0    0 -5.18090368967E+02 -5.71956514384E+02  4.88218899972E+03  4.94280500463E+03  5.09122765161E-04 0.00000000000E+00  1.
        5    1    4    4  501    0  1.73835565617E+02  1.49598625307E+02 -6.86444800124E+02  7.23743750359E+02  0.00000000000E+00 0.00000000000E+00  1.
       -5    1    4    4    0  501  4.38756243945E+02  5.47303158991E+02 -1.60504556357E+03  1.75163325230E+03  0.00000000000E+00 0.00000000000E+00  1.
</event>
<event>
 8  50   1.0000000E+00   1.2500000E+02   7.8125000E-03   1.2380861E-01
        1   -1    0    0  503    0  0.00000000000E+00  0.00000000000E+00  1.24198287907E+03  1.24198287907E+03  0.00000000000E+00 0.00000000000E+00  1.
       -1   -1    0    0    0  503  0.00000000000E+00  0.00000000000E+00 -3.61369571982E+03  3.61369571982E+03  0.00000000000E+00 0.00000000000E+00  1.
       23    2    1    2    0    0  1.66920766038E+03 -1.02095474456E+03 -2.63490983581E+02  1.97664639098E+03  9.53973407882E+01 0.00000000000E+00  1.
       25    2    1    2    0    0 -1.66920766038E+03  1.02095474456E+03 -2.10822185717E+03  2.87903220791E+03  1.24997004889E+02 0.00000000000E+00  1.
       13    1    3    3    0    0  1.66909184809E+03 -1.01599383677E+03 -2.62153096607E+02  1.97150585364E+03  1.05659995368E-01 0.00000000000E+00  1.
      -13    1    3    3    0    0  1.15812297567E-01 -4.96090779168E+00 -1.33788697397E+00  5.14053734512E+00  1.05659999997E-01 0.00000000000E+00  1.
        5    1    4    4  501    0 -3.70049468940E+01  4.12446192809E+01 -8.06521113280E+01  9.78531950215E+01  0.00000000000E+00 0.00000000000E+00  1.
       -5    1    4    4    0  501 -1.63220271349E+03  9.79710125282E+02 -2.02756974584E+03  2.78117901289E+03  0.00000000000E+00 0.00000000000E+00  1.
</event>
<event>
 8  50   1.0000000E+00   1.2500000E+02   7.8125000E-03   1.2380861E-01
       -2   -1    0    0    0  503  0.00000000000E+00  0.00000000000E+00  4.45876073697E+03  4.45876073697E+03  0.00000000000E+00 0.00000000000E+00  1.
        2   -1    0    0  503    0  0.00000000000E+00  0.00000000000E+00 -1.62803239211E+03  1.62803239211E+03  0.00000000000E+00 0.00000000000E+00  1.
       23    2    1    2    0    0  7.35597924302E+02  1.12998513200E+03  4.04691919432E+03  4.26670621634E+03  9.62094924649E+01 0.00000000000E+00  1.
       25    2    1    2    0    0 -7.35597924302E+02 -1.12998513200E+03 -1.21619084947E+03  1.82008691274E+03  1.25001931200E+02 0.00000000000E+00  1.
        1    1    3    3  502    0  5.03474199069E+02  8.46904468938E+02  2.90336201397E+03  3.06598180569E+03  5.84003863998E-05 0.00000000000E+00  1.
       -1    1    3    3    0  502  2.32123725232E+02  2.83080663066E+02  1.14355718035E+03  1.20072441066E+03  1.68587394044E-05 0.00000000000E+00  1.
        5    1    4    4  501    0 -4.72529283554E+02 -6.33658838067E+02 -6.62885780536E+02  1.03161281735E+03  0.00000000000E+00 0.00000000000E+00  1.
       -5    1    4    4    0  501 -2.63068640748E+02 -4.96326293938E+02 -5.53305068932E+02  7.88474095392E+02  0.00000000000E+00 0.00000000000E+00  1.
</event>
<event>
 8  50   1.0000000E+00   1.2500000E+02   7.8125000E-03   1.2380861E-01
       -1   -1    0    0    0  503  0.00000000000E+00  0.00000000000E+00  4.22513706331E+03  4.22513706331E+03  0.00000000000E+00 0.00000000000E+00  1.
        1   -1    0    0  503    0  0.00000000000E+00  0.00000000000E+00 -1.96965401623E+03  1.96965401623E+03  0.00000000000E+00 0.00000000000E+00  1.
       23    2    1    2    0    0  1.29109908881E+03 -1.96901870144E+03 -6.58295357038E+02  2.44649772034E+03  8.95924928849E+01 0.00000000000E+00  1.
       25    2    1    2    0    0 -1.29109908881E+03  1.96901870144E+03  2.91377840412E+03  3.74829335919E+03  1.25008057794E+02 0.00000000000E+00  1.
        4    1    3    3  502    0  7.08223955340E+02 -9.99227416524E+02 -3.35968404247E+02  1.27000511618E+03  1.27500000011E+00 0.00000000000E+00  1.
       -4    1    3    3    0  502  5.82875133470E+02 -9.69791284920E+02 -3.22326952791E+02  1.17649260416E+03  1.27499999986E+00 0.00000000000E+00  1.
        5    1    4    4  501    0 -6.50788984504E+02  1.08879906828E+03  1.62067620823E+03  2.05805760011E+03  0.00000000000E+00 0.00000000000E+00  1.
       -5    1    4    4    0  501 -6.40310104306E+02  8.80219633162E+02  1.29310219589E+03  1.69023575908E+03  0.00000000000E+00 0.00000000000E+00  1.
</event>
<event>
 8  50   1.0000000E+00   1.2500000E+02   7.8125000E-03   1.2380861E-01
        1   -1    0    0  503    0  0.00000000000E+00  0.00000000000E+00  3.43829958615E+03  3.43829958615E+03  0.00000000000E+00 0.00000000000E+00  1.
       -1   -1    0    0    0  503  0.00000000000E+00  0.00000000000E+00 -3.47985925677E+03  3.47985925677E+03  0.00000000000E+00 0.00000000000E+00  1.
       23    2    1    2    0    0  2.84212489133E+03  1.58453312157E+03 -1.18886849721E+03  3.46557121789E+03  9.14136274091E+01 0.00000000000E+00  1.
       25    2    1    2    0    0 -2.84212489133E+03 -1.58453312157E+03  1.14730882658E+03  3.45258762503E+03  1.24998614656E+02 0.00000000000E+00  1.
        2    1    3    3  502    0  2.68453283698E+03  1.51427327762E+03 -1.14006235103E+03  3.28625657495E+03  7.72564494420E-05 0.00000000000E+00  1.
       -2    1    3    3    0  502  1.57592054351E+02  7.02598439580E+01 -4.88061461778E+01  1.79314642939E+02  7.52471755323E-06 0.00000000000E+00  1.
        5    1    4    4  501    0 -2.03794062425E+03 -1.18454955729E+03  8.69368103576E+02  2.51240134954E+03  0.00000000000E+00 0.00000000000E+00  1.
       -5    1    4    4    0  501 -8.04184267084E+02 -3.99983564287E+02  2.77940723007E+02  9.40186275496E+02  0.00000000000E+00 0.00000000000E+00  1.
</event>
<event>
 8  50   1.0000000E+00   1.2500000E+02   7.8125000E-03   1.2380861E-01
        2   -1    0    0  503    0  0.00000000000E+00  0.00000000000E+00  3.14853995756E+03  3.14853995756E+03  0.00000000000E+00 0.00000000000E+00  1.
       -2   -1    0    0    0  503  0.00000000000E+00  0.00000000000E+00 -3.19622038989E+03  3.19622038989E+03  0.00000000000E+00 0.00000000000E+00  1.
       23    2    1    2    0    0 -4.61947710399E+02 -1.05172457568E+03 -2.97897495811E+03  3.19394566815E+03  8.64688374473E+01 0.00000000000E+00  1.
       25    2    1    2    0    0  4.61947710399E+02  1.05172457568E+03  2.93129452578E+03  3.15081467929E+03  1.25001104545E+02 0.00000000000E+00  1.
       11    1    3    3    0    0 -2.80204539201E+01 -8.84093192235E+01 -3.05747384702E+02  3.19504016901E+02  5.11072900539E-04 0.00000000000E+00  1.
      -11    1    3    3    0    0 -4.33927256479E+02 -9.63315256452E+02 -2.67322757341E+03  2.87444165125E+03  5.12461310868E-04 0.00000000000E+00  1.
        5    1    4    4  501    0  2.75923091640E+02  7.14497634966E+02  1.81671487640E+03  1.97157129341E+03  0.00000000000E+00 0.00000000000E+00  1.
       -5    1    4    4    0  501  1.86024618758E+02  3.37226940709E+02  1.11457964938E+03  1.17924338588E+03  0.00000000000E+00 0.00000000000E+00  1.
</event>
<event>
 8  50   1.0000000E+00   1.2500000E+02   7.8125000E-03   1.2380861E-01
        2   -1    0    0  503    0  0.00000000000E+00  0.00000000000E+00  3.22423900161E+03  3.22423900161E+03  0.00000000000E+00 0.00000000000E+00  1.
       -2   -1    0    0    0  503  0.00000000000E+00  0.00000000000E+00 -2.14142486112E+02  2.14142486112E+02  0.00000000000E+00 0.00000000000E+00  1.
       23    2    1    2    0    0 -6.55305105939E+02  4.89808949083E+02  1.69906440455E+03  1.88797329196E+03  9.10258858065E+01 0.00000000000E+00  1.
       25    2    1    2    0    0  6.55305105939E+02 -4.89808949083E+02  1.31103211096E+03  1.55040819577E+03  1.24991155950E+02 0.00000000000E+00  1.
        5    1    3    3  502    0 -8.28227067582E+01  1.02024210913E+02  2.87387019267E+02  3.16041772097E+02  4.75000000000E+00 0.00000000000E+00  1.
       -5    1    3    3    0  502 -5.72482399181E+02  3.87784738170E+02  1.41167738528E+03  1.57193151986E+03  4.75000000002E+00 0.00000000000E+00  1.
        5    1    4    4  501    0  4.97683384400E+02 -3.65465284057E+02  8.81133716343E+02  1.07594156488E+03  0.00000000000E+00 0.00000000000E+00  1.
       -5    1    4    4    0  501  1.57621721539E+02 -1.24343665026E+02  4.29898394613E+02  4.74466630886E+02  0.00000000000E+00 0.00000000000E+00  1.
</event>
<event>
 8  50   1.0000000E+00   1.2500000E+02   7.8125000E-03   1.2380861E-01
       -2   -1    0    0    0  503  0.00000000000E+00  0.00000000000E+00  1.67526445631E+03  1.67526445631E+03  0.00000000000E+00 0.00000000000E+00  1.
        2   -1    0    0  503    0  0.00000000000E+00  0.00000000000E+00 -2.04415133858E+03  2.04415133858E+03  0.00000000000E+00 0.00000000000E+00  1.
       23    2    1    2    0    0  7.44202757521E+02  1.41299450467E+03  7.48848190406E+02  1.76612438912E+03  8.96132302523E+01 0.00000000000E+00  1.
       25    2    1    2    0    0 -7.44202757521E+02 -1.41299450467E+03 -1.11773507267E+03  1.95329140577E+03  1.24997634631E+02 0.00000000000E+00  1.
        3    1    3    3  502    0  1.06439941695E+02  2.05283916372E+02  1.44098650349E+02  2.72461682703E+02  3.65002414999E-06 0.00000000000E+00  1.
       -3    1    3    3    0  502  6.37762815826E+02  1.20771058830E+03  6.04749540057E+02  1.49366270641E+03  3.15398134120E-05 0.00000000000E+00  1.
        5    1    4    4  501    0 -2.06387425890E+02 -5.18354379805E+02 -3.99541772538E+02  6.86236592315E+02  0.00000000000E+00 0.00000000000E+00  1.
       -5    1    4    4    0  501 -5.37815331630E+02 -8.94640124863E+02 -7.18193300133E+02  1.26705481346E+03  0.00000000000E+00 0.00000000000E+00  1.
</event>
<event>
 8  50   1.0000000E+00   1.2500000E+02   7.8125000E-03   1.2380861E-01
       -1   -1    0    0    0  503  0.00000000000E+00  0.00000000000E+00  4.14810437554E+03  4.14810437554E+03  0.00000000000E+00 0.00000000000E+00  1.
        1   -1    0    0  503    0  0.00000000000E+00  0.00000000000E+00 -3.73609067670E+03  3.73609067670E+03  0.00000000000E+00 0.00000000000E+00  1.
       23    2    1    2    0    0 -3.67826739568E+03  2.99453248177E+02 -1.16203155249E+03  3.87014903472E+03  9.17220798430E+01 0.00000000000E+00  1.
       25    2    1    2    0    0  3.67826739568E+03 -2.99453248177E+02  1.57404525134E+03  4.01404601752E+03  1.24994781989E+02 0.00000000000E+00  1.
        4    1    3    3  502    0 -1.01379313136E+02  2.16490568241E+01 -2.53627479842E+01  1.06730227226E+02  1.27499999998E+00 0.00000000000E+00  1.
       -4    1    3    3    0  502 -3.57688808255E+03  2.77804191353E+02 -1.13666880451E+03  3.76341880749E+03  1.27500000260E+00 0.00000000000E+00  1.
        5    1    4    4  501    0  8.12758924131E+02 -5.75892833883E+01  2.92410842000E+02  8.65677592892E+02  0.00000000000E+00 0.00000000000E+00  1.
       -5    1    4    4    0  501  2.86550847155E+03 -2.41863964789E+02  1.28163440934E+03  3.14836842463E+03  0.00000000000E+00 0.00000000000E+00  1.
</event>
<event>
 8  50   1.0000000E+00   1.2500000E+02   7.8125000E-03   1.2380861E-01
        2   -1    0    0  503    0  0.00000000000E+00  0.00000000000E+00  2.38088380703E+03  2.38088380703E+03  0.00000000000E+00 0.00000000000E+00  1.
       -2   -1    0    0    0  503  0.00000000000E+00  0.00000000000E+00 -3.11199728138E+03  3.11199728138E+03  0.00000000000E+00 0.00000000000E+00  1.
       23    2    1    2    0    0  4.46726644387E+01 -2.19577877029E+03  1.25341943905E+03  2.53020740273E+03  8.63084911454E+01 0.00000000000E+00  1.
       25    2    1    2    0    0 -4.46726644387E+01  2.19577877029E+03 -1.98453291339E+03  2.96267368567E+03  1.24997713666E+02 0.00000000000E+00  1.
        3    1    3    3  502    0  5.79552013598E+01 -9.17050855750E+02  5.05229645539E+02  1.04861721907E+03  1.33280037493E-05 0.00000000000E+00  1.
       -3    1    3    3    0  502 -1.32825369210E+01 -1.27872791454E+03  7.48189793508E+02  1.48159018366E+03  2.66560074985E-05 0.00000000000E+00  1.
        5    1    4    4  501    0  2.68250259373E+01  1.35425527204E+03 -1.18558739222E+03  1.80009566092E+03  0.00000000000E+00 0.00000000000E+00  1.
       -5    1    4    4    0  501 -7.14976903760E+01  8.41523498256E+02 -7.98945521174E+02  1.16257802476E+03  0.00000000000E+00 0.00000000000E+00  1.
</event>
<event>
 8  50   1.0000000E+00   1.2500000E+02   7.8125000E-03   1.2380861E-01
       -2   -1    0    0    0  503  0.00000000000E+00  0.00000000000E+00  1.91175444972E+03  1.91175444972E+03  0.00000000000E+00 0.00000000000E+00  1.
        2   -1    0    0  503    0  0.00000000000E+00  0.00000000000E+00 -2.55159156413E+03  2.55159156413E+03  0.00000000000E+00 0.00000000000E+00  1.
       23    2    1    2    0    0  2.51525479151E+02  1.73890532987E+03 -1.66732106958E+03  2.42412921576E+03  9.68818492916E+01 0.00000000000E+00  1.
       25    2    1    2    0    0 -2.51525479151E+02 -1.73890532987E+03  1.02748395518E+03  2.03921679809E+03  1.25000234257E+02 0.00000000000E+00  1.
        3    1    3    3  502    0  1.44146068951E+02  1.23992338561E+03 -1.21998113457E+03  1.74543463358E+03  0.00000000000E+00 0.00000000000E+00  1.
       -3    1    3    3    0  502  1.07379410200E+02  4.98981944254E+02 -4.47339935014E+02  6.78694582184E+02  1.19209289551E-05 0.00000000000E+00  1.
        5    1    4    4  501    0 -1.45432572255E+02 -1.16592060887E+03  6.23367718176E+02  1.33007849818E+03  0.00000000000E+00 0.00000000000E+00  1.
       -5    1    4    4    0  501 -1.06092906897E+02 -5.72984721000E+02  4.04116237002E+02  7.09138299912E+02  0.00000000000E+00 0.00000000000E+00  1.
</event>
<event>
 8  50   1.0000000E+00   1.2500000E+02   7.8125000E-03   1.2380861E-01
       -1   -1    0    0    0  503  0.00000000000E+00  0.00000000000E+00  4.71137765492E+03  4.71137765492E+03  0.00000000000E+00 0.00000000000E+00  1.
        1   -1    0    0  503    0  0.00000000000E+00  0.00000000000E+00 -2.88774852687E+03  2.88774852687E+03  0.00000000000E+00 0.00000000000E+00  1.
       23    2    1    2    0    0  3.22919752017E+03  1.77887654486E+03  8.76933080476E+02  3.79071747818E+03  9.17005211447E+01 0.00000000000E+00  1.
       25    2    1    2    0    0 -3.22919752017E+03 -1.77887654486E+03  9.46696047575E+02  3.80840870362E+03  1.25000244537E+02 0.00000000000E+00  1.
        5    1    3    3  502    0  1.59659960051E+03  8.56320208617E+02  4.72875426495E+02  1.87244447595E+03  4.75000000003E+00 0.00000000000E+00  1.
       -5    1    3    3    0  502  1.63259791966E+03  9.22556336246E+02  4.04057653981E+02  1.91827300223E+03  4.74999999975E+00 0.00000000000E+00  1.
        5    1    4    4  501    0 -1.24566494527E+03 -7.47355554853E+02  4.03175594924E+02  1.50757157097E+03  0.00000000000E+00 0.00000000000E+00  1.
       -5    1    4    4    0  501 -1.98353257490E+03 -1.03152099001E+03  5.43520452651E+02  2.30083713265E+03  0.00000000000E+00 0.00000000000E+00  1.
</event>
<event>
 8  50   1.0000000E+00   1.2500000E+02   7.8125000E-03   1.2380861E-01
        1   -1    0    0  503    0  0.00000000000E+00  0.00000000000E+00  1.76365379006E+03  1.76365379006E+03  0.00000000000E+00 0.00000000000E+00  1.
       -1   -1    0    0    0  503  0.00000000000E+00  0.00000000000E+00 -4.37930528909E+03  4.37930528909E+03  0.00000000000E+00 0.00000000000E+00  1.
       23    2    1    2    0    0 -8.86545391116E+02  7.75806542630E+02  1.47178192203E+03  1.88730686232E+03  8.91439535536E+01 0.00000000000E+00  1.
       25    2    1    2    0    0  8.86545391116E+02 -7.75806542630E+02 -4.08743342106E+03  4.25565221682E+03  1.25001187501E+02 0.00000000000E+00  1.
       14    1    3    3    0    0 -4.82860051912E+02  4.38329233163E+02  8.82354973283E+02  1.09719489848E+03  3.76972873231E-05 0.00000000000E+00  1.
      -14    1    3    3    0    0 -4.03685339203E+02  3.37477309467E+02  5.89426948749E+02  7.90111963841E+02  2.23020159410E-05 0.00000000000E+00  1.
        5    1    4    4  501    0  2.58129819419E+02 -2.03695898799E+02 -1.34195994713E+03  1.38165825101E+03  0.00000000000E+00 0.00000000000E+00  1.
       -5    1    4    4    0  501  6.28415571697E+02 -5.72110643831E+02 -2.74547347392E+03  2.87399396582E+03  0.00000000000E+00 0.00000000000E+00  1.
</event>
<event>
 8  50   1.0000000E+00   1.2500000E+02   7.8125000E-03   1.2380861E-01
        1   -1    0    0  503    0  0.00000000000E+00  0.00000000000E+00  5.02062109359E+03  5.02062109359E+03  0.00000000000E+00 0.00000000000E+00  1.
       -1   -1    0    0    0  503  0.00000000000E+00  0.00000000000E+00 -4.37114530277E+03  4.37114530277E+03  0.00000000000E+00 0.00000000000E+00  1.
       23    2    1    2    0    0 -1.78982617446E+03 -3.43864662437E+03 -2.30969310988E+03  4.51323469078E+03  8.26847638235E+01 0.00000000000E+00  1.
       25    2    1    2    0    0  1.78982617446E+03  3.43864662437E+03  2.95916890070E+03  4.87853170557E+03  1.24990708958E+02 0.00000000000E+00  1.
        5    1    3    3  502    0 -1.63388610499E+02 -3.34886841317E+02 -2.47804787366E+02  4.47520736581E+02  4.74999999998E+00 0.00000000000E+00  1.
       -5    1    3    3    0  502 -1.62643756396E+03 -3.10375978305E+03 -2.06188832252E+03  4.06571395420E+03  4.75000000044E+00 0.00000000000E+00  1.
        5    1    4    4  501    0  6.55091192403E+02  1.13813959009E+03  9.76669706255E+02  1.63657872160E+03  0.00000000000E+00 0.00000000000E+00  1.
       -5    1    4    4    0  501  1.13473498206E+03  2.30050703428E+03  1.98249919445E+03  3.24195298397E+03  0.00000000000E+00 0.00000000000E+00  1.
</event>
<event>
 8  50   1.0000000E+00   1.2500000E+02   7.8125000E-03   1.2380861E-01
        2   -1    0    0  503    0  0.00000000000E+00  0.00000000000E+00  2.39886933413E+03  2.39886933413E+03  0.00000000000E+00 0.00000000000E+00  1.
       -2   -1    0    0    0  503  0.00000000000E+00  0.00000000000E+00 -1.39745703174E+03  1.39745703174E+03  0.00000000000E+00 0.00000000000E+00  1.
       23    2    1    2    0    0  6.69599443242E+02  1.66846880708E+03  8.41298156622E+02  1.98706662387E+03  9.21933011116E+01 0.00000000000E+00  1.
       25    2    1    2    0    0 -6.69599443242E+02 -1.66846880708E+03  1.60114145770E+02  1.80925974201E+03  1.25030795351E+02 0.00000000000E+00  1.
       11    1    3    3    0    0  1.39630168967E+02  2.59651331626E+02  1.47780325997E+02  3.29779354801E+02  5.11016416633E-04 0.00000000000E+00  1.
      -11    1    3    3    0    0  5.29969274275E+02  1.40881747545E+03  6.93517830625E+02  1.65728726907E+03  5.11975795543E-04 0.00000000000E+00  1.
        5    1    4    4  501    0 -1.03067983198E+02 -3.75140612456E+02  8.03624879994E+00  3.89124748081E+02  0.00000000000E+00 0.00000000000E+00  1.
       -5    1    4    4    0  501 -5.66531460044E+02 -1.29332819462E+03  1.52077896970E+02  1.42013499393E+03  0.00000000000E+00 0.00000000000E+00  1.
</event>
<event>
 8  50   1.0000000E+00   1.2500000E+02   7.8125000E-03   1.2380861E-01
        3   -1    0    0  503    0  0.00000000000E+00  0.00000000000E+00  5.09717039610E+03  5.09717039610E+03  0.00000000000E+00 0.00000000000E+00  1.
       -3   -1    0    0    0  503  0.00000000000E+00  0.00000000000E+00 -4.41224226542E+03  4.41224226542E+03  0.00000000000E+00 0.00000000000E+00  1.
       23    2    1    2    0    0  1.25542108659E+03 -3.88912548376E+02  4.90959854059E+03  5.08326303506E+03  8.98341744081E+01 0.00000000000E+00  1.
       25    2    1    2    0    0 -1.25542108659E+03  3.88912548376E+02 -4.22467040991E+03  4.42614962647E+03  1.25001474313E+02 0.00000000000E+00  1.
       16    1    3    3    0    0  1.76242730433E+02 -5.40593005096E+01  5.76194260437E+02  6.04965894710E+02  1.19209289551E-05 0.00000000000E+00  1.
      -16    1    3    3    0    0  1.07917835616E+03 -3.34853247866E+02  4.33340428015E+03  4.47829714035E+03  0.00000000000E+00 0.00000000000E+00  1.
        5    1    4    4  501    0 -4.75026426915E+02  2.02237806718E+02 -1.75857780998E+03  1.83279735664E+03  0.00000000000E+00 0.00000000000E+00  1.
       -5    1    4    4    0  501 -7.80394659676E+02  1.86674741658E+02 -2.46609259993E+03  2.59335226983E+03  0.00000000000E+00 0.00000000000E+00  1.
</event>
<event>
 8  50   1.0000000E+00   1.2500000E+02   7.8125000E-03   1.2380861E-01
       -2   -1    0    0    0  503  0.00000000000E+00  0.00000000000E+00  1.51796446715E+03  1.51796446715E+03  0.00000000000E+00 0.00000000000E+00  1.
        2   -1    0    0  503    0  0.00000000000E+00  0.00000000000E+00 -3.34492940833E+03  3.34492940833E+03  0.00000000000E+00 0.00000000000E+00  1.
       23    2    1    2    0    0  2.21834930999E+03 -3.62522610984E+02 -7.90610440753E+02  2.38455735824E+03  9.24803822058E+01 0.00000000000E+00  1.
       25    2    1    2    0    0 -2.21834930999E+03  3.62522610984E+02 -1.03635450042E+03  2.47833651724E+03  1.24999750238E+02 0.00000000000E+00  1.
        1    1    3    3  502    0  1.59658620819E+03 -2.90866952435E+02 -5.39625427356E+02  1.71023001554E+03  2.14907602993E-05 0.00000000000E+00  1.
       -1    1    3    3    0  502  6.21763101799E+02 -7.16556585495E+01 -2.50985013397E+02  6.74327342699E+02  7.30004829998E-06 0.00000000000E+00  1.
        5    1    4    4  501    0 -1.20248290111E+03  2.16279547014E+02 -6.28191789373E+02  1.37381472337E+03  0.00000000000E+00 0.00000000000E+00  1.
       -5    1    4    4    0  501 -1.01586640888E+03  1.46243063970E+02 -4.08162711048E+02  1.10452179387E+03  0.00000000000E+00 0.00000000000E+00  1.
</event>
<event>
 8  50   1.0000000E+00   1.2500000E+02   7.8125000E-03   1.2380861E-01
        2   -1    0    0  503    0  0.00000000000E+00  0.00000000000E+00  3.98357364215E+03  3.98357364215E+03  0.00000000000E+00 0.00000000000E+00  1.
       -2   -1    0    0    0  503  0.00000000000E+00  0.00000000000E+00 -1.13222482001E+03  1.13222482001E+03  0.00000000000E+00 0.00000000000E+00  1.
       23    2    1    2    0    0 -7.84779745111E+02  1.93280376344E+03  1.88599865661E+03  2.81381336110E+03  9.45783381702E+01 0.00000000000E+00  1.
       25    2    1    2    0    0  7.84779745111E+02 -1.93280376344E+03  9.65350165537E+02  2.30198510106E+03  1.24999308315E+02 0.00000000000E+00  1.
        1    1    3    3  502    0 -3.20217884408E+02  9.02671952207E+02  8.38921716331E+02  1.27324223655E+03  1.19209289551E-05 0.00000000000E+00  1.
       -1    1    3    3    0  502 -4.64561860703E+02  1.03013181124E+03  1.04707694028E+03  1.54057112455E+03  1.68587394044E-05 0.00000000000E+00  1.
        5    1    4    4  501    0  5.22876617788E+02 -1.24847806485E+03  5.62135120930E+02  1.46563751659E+03  0.00000000000E+00 0.00000000000E+00  1.
       -5    1    4    4    0  501  2.61903127324E+02 -6.84325698590E+02  4.03215044607E+02  8.36347584471E+02  0.00000000000E+00 0.00000000000E+00  1.
</event>
<event>
 8  50   1.0000000E+00   1.2500000E+02   7.8125000E-03   1.2380861E-01
       -2   -1    0    0    0  503  0.00000000000E+00  0.00000000000E+00  5.26937857806E+03  5.26937857806E+03  0.00000000000E+00 0.00000000000E+00  1.
        2   -1    0    0  503    0  0.00000000000E+00  0.00000000000E+00 -2.14998612801E+03  2.14998612801E+03  0.00000000000E+00 0.00000000000E+00  1.
       23    2    1    2    0    0  5.05910602682E+02  4.25690357245E+02 -2.07598151987E+03  2.18059632104E+03  9.02398267074E+01 0.00000000000E+00  1.
       25    2    1    2    0    0 -5.05910602682E+02 -4.25690357245E+02  5.19537396993E+03  5.23876838502E+03  1.25002745401E+02 0.00000000000E+00  1.
       16    1    3    3    0    0  4.06038672085E+02  3.15976502553E+02 -1.49864866010E+03  1.58450508355E+03  4.12953092472E-05 0.00000000000E+00  1.
      -16    1    3    3    0    0  9.98719305969E+01  1.09713854692E+02 -5.77332859778E+02  5.96091237490E+02  1.19209289551E-05 0.00000000000E+00  1.
        5    1    4    4  501    0 -4.64798652059E+01 -7.73511997532E+01  9.80378262688E+02  9.84522789947E+02  0.00000000000E+00 0.00000000000E+00  1.
       -5    1    4    4    0  501 -4.59430737476E+02 -3.48339157492E+02  4.21499570724E+03  4.25424559508E+03  0.00000000000E+00 0.00000000000E+00  1.
</event>
<event>
 8  50   1.0000000E+00   1.2500000E+02   7.8125000E-03   1.2380861E-01
        3   -1    0    0  503    0  0.00000000000E+00  0.00000000000E+00  4.12483118469E+03  4.12483118469E+03  0.00000000000E+00 0.00000000000E+00  1.
       -3   -1    0    0    0  503  0.00000000000E+00  0.00000000000E+00 -4.08368278121E+03  4.08368278121E+03  0.00000000000E+00 0.00000000000E+00  1.
       23    2    1    2    0    0 -3.24130160339E+02  4.08700594946E+03 -1.33835219306E+02  4.10303921656E+03  9.13288289536E+01 0.00000000000E+00  1.
       25    2    1    2    0    0  3.24130160339E+02 -4.08700594946E+03  1.74983622792E+02  4.10547474934E+03  1.25002629836E+02 0.00000000000E+00  1.
       14    1    3    3    0    0 -2.25842194391E+02  3.30301475713E+03 -1.06973368469E+02  3.31245445012E+03  8.42936970218E-05 0.00000000000E+00  1.
      -14    1    3    3    0    0 -9.82879659481E+01  7.83991192330E+02 -2.68618508365E+01  7.90584766443E+02  1.48918450559E-05 0.00000000000E+00  1.
        5    1    4    4  501    0  2.92775159945E+02 -3.90045446586E+03  1.46460036092E+02  3.91416822284E+03  0.00000000000E+00 0.00000000000E+00  1.
       -5    1    4    4    0  501  3.13550003939E+01 -1.86551483600E+02  2.85235866999E+01  1.91306526500E+02  0.00000000000E+00 0.00000000000E+00  1.
</event>
<event>
 8  50   1.0000000E+00   1.2500000E+02   7.8125000E-03   1.2380861E-01
       -2   -1    0    0    0  503  0.00000000000E+00  0.00000000000E+00  2.12845008107E+03  2.12845008107E+03  0.00000000000E+00 0.00000000000E+00  1.
        2   -1    0    0  503    0  0.00000000000E+00  0.00000000000E+00 -5.46053517606E+03  5.46053517606E+03  0.00000000000E+00 0.00000000000E+00  1.
       23    2    1    2    0    0 -5.63217846767E+02  1.52051296698E+03 -5.00139335091E+03  5.25845133869E+03  9.05594010621E+01 0.00000000000E+00  1.
       25    2    1    2    0    0  5.63217846767E+02 -1.52051296698E+03  1.66930825593E+03  2.33053391844E+03  1.24997064008E+02 0.00000000000E+00  1.
        4    1    3    3  502    0 -4.75367540931E+02  1.32645781320E+03 -4.42661027819E+03  4.64546497240E+03  1.27499999558E+00 0.00000000000E+00  1.
       -4    1    3    3    0  502 -8.78503058359E+01  1.94055153779E+02 -5.74783072724E+02  6.12986366291E+02  1.27500000009E+00 0.00000000000E+00  1.
        5    1    4    4  501    0  3.42664853335E+02 -8.18659708485E+02  8.40679399085E+02  1.22244213444E+03  0.00000000000E+00 0.00000000000E+00  1.
       -5    1    4    4    0  501  2.20552993432E+02 -7.01853258497E+02  8.28628856845E+02  1.10809178400E+03  0.00000000000E+00 0.00000000000E+00  1.
</event>
<event>
 8  50   1.0000000E+00   1.2500000E+02   7.8125000E-03   1.2380861E-01
        1   -1    0    0  503    0  0.00000000000E+00  0.00000000000E+00  5.39879344939E+03  5.39879344939E+03  0.00000000000E+00 0.00000000000E+00  1.
       -1   -1    0    0    0  503  0.00000000000E+00  0.00000000000E+00 -4.35664312809E+03  4.35664312809E+03  0.00000000000E+00 0.00000000000E+00  1.
       23    2    1    2    0    0 -1.89643556652E+03 -3.64972425082E+03  3.10316672002E+03  5.15322320476E+03  9.54502012382E+01 0.00000000000E+00  1.
       25    2    1    2    0    0  1.89643556652E+03  3.64972425082E+03 -2.06101639872E+03  4.60221337271E+03  1.24997468849E+02 0.00000000000E+00  1.
        5    1    3    3  502    0 -1.42493455117E+03 -2.66309464152E+03  2.25250960236E+03  3.76780222624E+03  4.75000000074E+00 0.00000000000E+00  1.
       -5    1    3    3    0  502 -4.71501015342E+02 -9.86629609298E+02  8.50657117659E+02  1.38542097852E+03  4.75000000006E+00 0.00000000000E+00  1.
        5    1    4    4  501    0  7.61958100295E+02  1.43749949710E+03 -7.48716745063E+02  1.79096669849E+03  0.00000000000E+00 0.00000000000E+00  1.
       -5    1    4    4    0  501  1.13447746622E+03  2.21222475371E+03 -1.31229965366E+03  2.81124667422E+03  0.00000000000E+00 0.00000000000E+00  1.
</event>
<event>
 8  50   1.0000000E+00   1.2500000E+02   7.8125000E-03   1.2380861E-01
        2   -1    0    0  503    0  0.00000000000E+00  0.00000000000E+00  3.47826993559E+03  3.47826993559E+03  0.00000000000E+00 0.00000000000E+00  1.
       -2   -1    0    0    0  503  0.00000000000E+00  0.00000000000E+00 -1.38077932025E+03  1.38077932025E+03  0.00000000000E+00 0.00000000000E+00  1.
       23    2    1    2    0    0  1.28376047516E+03  8.49529487571E+02 -6.76644126625E+02  1.68395924121E+03  9.01673117851E+01 0.00000000000E+00  1.
       25    2    1    2    0    0 -1.28376047516E+03 -8.49529487571E+02  2.77413474196E+03  3.17509001463E+03  1.25026903418E+02 0.00000000000E+00  1.
       14    1    3    3    0    0  5.99806301813E+02  4.30146231655E+02 -3.63037361969E+02  8.22550610289E+02  1.19209289551E-05 0.00000000000E+00  1.
      -14    1    3    3    0    0  6.83954173352E+02  4.19383255916E+02 -3.13606764656E+02  8.61408630922E+02  1.78813934326E-05 0.00000000000E+00  1.
        5    1    4    4  501    0 -1.07226853532E+03 -7.20752235415E+02  2.22935384709E+03  2.57667657502E+03  0.00000000000E+00 0.00000000000E+00  1.
       -5    1    4    4    0  501 -2.11491939844E+02 -1.28777252156E+02  5.44780894866E+02  5.98413439608E+02  0.00000000000E+00 0.00000000000E+00  1.
</event>
<event>
 8  50   1.0000000E+00   1.2500000E+02   7.8125000E-03   1.2380861E-01
        2   -1    0    0  503    0  0.00000000000E+00  0.00000000000E+00  2.00051314202E+03  2.00051314202E+03  0.00000000000E+00 0.00000000000E+00  1.
       -2   -1    0    0    0  503  0.00000000000E+00  0.00000000000E+00 -3.71542544294E+03  3.71542544294E+03  0.00000000000E+00 0.00000000000E+00  1.
       23    2    1    2    0    0 -4.94870789033E+02 -9.53743830959E+02  1.76657472036E+03  2.07027095977E+03  1.03494982105E+02 0.00000000000E+00  1.
       25    2    1    2    0    0  4.94870789033E+02  9.53743830959E+02 -3.48148702128E+03  3.64566762520E+03  1.24964639617E+02 0.00000000000E+00  1.
        1    1    3    3  502    0 -3.52089173109E+02 -6.20465085162E+02  1.24799651795E+03  1.43751139701E+03  2.38418579102E-05 0.00000000000E+00  1.
       -1    1    3    3    0  502 -1.42781615925E+02 -3.33278745797E+02  5.18578202408E+02  6.32759562756E+02  8.42936970218E-06 0.00000000000E+00  1.
        5    1    4    4  501    0  7.58071728039E+01  1.34350918170E+02 -3.68553901441E+02  3.99535824338E+02  0.00000000000E+00 0.00000000000E+00  1.
       -5    1    4    4    0  501  4.19063616229E+02  8.19392912789E+02 -3.11293311984E+03  3.24613180086E+03  0.00000000000E+00 0.00000000000E+00  1.
</event>
<event>
 8  50   1.0000000E+00   1.2500000E+02   7.8125000E-03   1.2380861E-01
       -1   -1    0    0    0  503  0.00000000000E+00  0.00000000000E+00  2.13381660510E+03  2.13381660510E+03  0.00000000000E+00 0.00000000000E+00  1.
        1   -1    0    0  503    0  0.00000000000E+00  0.00000000000E+00 -1.31228917176E+03  1.31228917176E+03  0.00000000000E+00 0.00000000000E+00  1.
       23    2    1    2    0    0  1.02806652468E+03  4.74911129673E+02 -8.53042662882E+02  1.42069948571E+03  9.07958355260E+01 0.00000000000E+00  1.
       25    2    1    2    0    0 -1.02806652468E+03 -4.74911129673E+02  1.67457009623E+03  2.02540629115E+03  1.24997107128E+02 0.00000000000E+00  1.
        2    1    3    3  502    0  3.74425130087E+02  1.88897658205E+02 -2.64657062445E+02  4.95903079259E+02  2.98023223877E-06 0.00000000000E+00  1.
       -2    1    3    3    0  502  6.53641394595E+02  2.86013471468E+02 -5.88385600437E+02  9.24796406454E+02  2.06476546236E-05 0.00000000000E+00  1.
        5    1    4    4  501    0 -8.80149966960E+02 -3.76354956875E+02  1.34343613310E+03  1.64958408747E+03  0.00000000000E+00 0.00000000000E+00  1.
       -5    1    4    4    0  501 -1.47916557722E+02 -9.85561727981E+01  3.31133963125E+02  3.75822203681E+02  0.00000000000E+00 0.00000000000E+00  1.
</event>
<event>
 8  50   1.0000000E+00   1.2500000E+02   7.8125000E-03   1.2380861E-01
       -2   -1    0    0    0  503  0.00000000000E+00  0.00000000000E+00  2.45728464681E+03  2.45728464681E+03  0.00000000000E+00 0.00000000000E+00  1.
        2   -1    0    0  503    0  0.00000000000E+00  0.00000000000E+00 -2.78616920719E+03  2.78616920719E+03  0.00000000000E+00 0.00000000000E+00  1.
       23    2    1    2    0    0  2.19717882115E+03 -4.02470386220E+01  1.25444489863E+03  2.53203875747E+03  9.15077561475E+01 0.00000000000E+00  1.
       25    2    1    2    0    0 -2.19717882115E+03  4.02470386220E+01 -1.58332945901E+03  2.71141509653E+03  1.25000214915E+02 0.00000000000E+00  1.
        5    1    3    3  502    0  7.22744281400E+02  1.87146581621E+01  3.80018598660E+02  8.16790201064E+02  4.74999999999E+00 0.00000000000E+00  1.
       -5    1    3    3    0  502  1.47443453975E+03 -5.89616967841E+01  8.74426299966E+02  1.71524855641E+03  4.74999999996E+00 0.00000000000E+00  1.
        5    1    4    4  501    0 -2.06139969308E+03  2.82016262169E+01 -1.44773156108E+03  2.51914483492E+03  0.00000000000E+00 0.00000000000E+00  1.
       -5    1    4    4    0  501 -1.35779128068E+02  1.20454124051E+01 -1.35597897928E+02  1.92270261615E+02  0.00000000000E+00 0.00000000000E+00  1.
</event>
<event>
 8  50   1.0000000E+00   1.2500000E+02   7.8125000E-03   1.2380861E-01
       -1   -1    0    0    0  503  0.00000000000E+00  0.00000000000E+00  4.95285533174E+03  4.95285533174E+03  0.00000000000E+00 0.00000000000E+00  1.
        1   -1    0    0  503    0  0.00000000000E+00  0.00000000000E+00 -2.86295129555E+03  2.86295129555E+03  0.00000000000E+00 0.00000000000E+00  1.
       23    2    1    2    0    0 -1.19324800888E+03 -3.47113595576E+03  1.91000256842E+03  4.13876773977E+03  9.30750147368E+01 0.00000000000E+00  1.
       25    2    1    2    0    0  1.19324800888E+03  3.47113595576E+03  1.79901467777E+02  3.67703888752E+03  1.24999232734E+02 0.00000000000E+00  1.
       16    1    3    3    0    0 -2.00031486752E+02 -6.85152205530E+02  3.88450215913E+02  8.12612891036E+02  1.26440545533E-05 0.00000000000E+00  1.
      -16    1    3    3    0    0 -9.93216522126E+02 -2.78598375023E+03  1.52155235250E+03  3.32615484874E+03  4.76837158203E-05 0.00000000000E+00  1.
        5    1    4    4  501    0  5.91214419891E+02  1.60209716125E+03  3.44094826217E+01  1.70804971147E+03  0.00000000000E+00 0.00000000000E+00  1.
       -5    1    4    4    0  501  6.02033588987E+02  1.86903879451E+03  1.45491985155E+02  1.96898917605E+03  0.00000000000E+00 0.00000000000E+00  1.
</event>
<event>
 8  50   1.0000000E+00   1.2500000E+02   7.8125000E-03   1.2380861E-01
       -2   -1    0    0    0  503  0.00000000000E+00  0.00000000000E+00  3.06097542521E+03  3.06097542521E+03  0.00000000000E+00 0.00000000000E+00  1.
        2   -1    0    0  503    0  0.00000000000E+00  0.00000000000E+00 -1.99018471377E+03  1.99018471377E+03  0.00000000000E+00 0.00000000000E+00  1.
       23    2    1    2    0    0 -8.26646437613E+02  1.35186359486E+03 -1.39784445183E+03  2.11506338394E+03  9.29757744941E+01 0.00000000000E+00  1.
       25    2    1    2    0    0  8.26646437613E+02 -1.35186359486E+03  2.46863516327E+03  2.93609675504E+03  1.25000294942E+02 0.00000000000E+00  1.
        4    1    3    3  502    0 -2.89668377291E+02  5.60650317969E+02 -5.51233278646E+02  8.37911869443E+02  1.27499999994E+00 0.00000000000E+00  1.
       -4    1    3    3    0  502 -5.36978060322E+02  7.91213276888E+02 -8.46611173187E+02  1.27715151450E+03  1.27500000042E+00 0.00000000000E+00  1.
        5    1    4    4  501    0  4.41946168190E+02 -6.07457768039E+02  1.13621172813E+03  1.36209340600E+03  0.00000000000E+00 0.00000000000E+00  1.
       -5    1    4    4    0  501  3.84700269424E+02 -7.44405826818E+02  1.33242343514E+03  1.57400334905E+03  0.00000000000E+00 0.00000000000E+00  1.
</event>
<event>
 8  50   1.0000000E+00   1.2500000E+02   7.8125000E-03   1.2380861E-01
        1   -1    0    0  503    0  0.00000000000E+00  0.00000000000E+00  4.78646901111E+03  4.78646901111E+03  0.00000000000E+00 0.00000000000E+00  1.
       -1   -1    0    0    0  503  0.00000000000E+00  0.00000000000E+00 -4.43957432353E+03  4.43957432353E+03  0.00000000000E+00 0.00000000000E+00  1.
       23    2    1    2    0    0 -3.42998892057E+03 -1.38836335701E+02  3.25030109375E+03  4.72831769940E+03  9.18234344091E+01 0.00000000000E+00  1.
       25    2    1    2    0    0  3.42998892057E+03  1.38836335701E+02 -2.90340640616E+03  4.49772563524E+03  1.25170312581E+02 0.00000000000E+00  1.
       14    1    3    3    0    0 -1.69526793545E+03 -2.26969134587E+01  1.60670884410E+03  2.33580004121E+03  5.33120149970E-05 0.00000000000E+00  1.
      -14    1    3    3    0    0 -1.73472098512E+03 -1.16139422243E+02  1.64359224965E+03  2.39251765819E+03  3.37174788087E-05 0.00000000000E+00  1.
        5    1    4    4  501    0  5.76141351553E+02 -1.44404939069E+01 -5.23865953911E+02  7.78834335723E+02  0.00000000000E+00 0.00000000000E+00  1.
       -5    1    4    4    0  501  2.85384756902E+03  1.53276829608E+02 -2.37954045225E+03  3.71889129951E+03  0.00000000000E+00 0.00000000000E+00  1.
</event>
<event>
 8  50   1.0000000E+00   1.2500000E+02   7.8125000E-03   1.2380861E-01
        2   -1    0    0  503    0  0.00000000000E+00  0.00000000000E+00  3.20270377109E+03  3.20270377109E+03  0.00000000000E+00 0.00000000000E+00  1.
       -2   -1    0    0    0  503  0.00000000000E+00  0.00000000000E+00 -5.78054205986E+03  5.78054205986E+03  0.00000000000E+00 0.00000000000E+00  1.
       23    2    1    2    0    0 -1.64381560316E+03 -3.96627100254E+03 -1.56082811385E+03  4.56924871720E+03  9.17280538247E+01 0.00000000000E+00  1.
       25    2    1    2    0    0  1.64381560316E+03  3.96627100254E+03 -1.01701017492E+03  4.41399711375E+03  1.25001685921E+02 0.00000000000E+00  1.
       13    1    3    3    0    0 -1.18639148963E+03 -2.95265215494E+03 -1.17851698337E+03  3.39331428046E+03  1.05659984861E-01 0.00000000000E+00  1.
      -13    1    3    3    0    0 -4.57424113533E+02 -1.01361884761E+03 -3.82311130481E+02  1.17593443674E+03  1.05659998058E-01 0.00000000000E+00  1.
        5    1    4    4  501    0  1.22711359680E+03  2.82720270896E+03 -7.05705647731E+02  3.16178800653E+03  0.00000000000E+00 0.00000000000E+00  1.
       -5    1    4    4    0  501  4.16702006359E+02  1.13906829359E+03 -3.11304527187E+02  1.25220910722E+03  0.00000000000E+00 0.00000000000E+00  1.
</event>
<event>
 8  50   1.0000000E+00   1.2500000E+02   7.8125000E-03   1.2380861E-01
       -2   -1    0    0    0  503  0.00000000000E+00  0.00000000000E+00  3.54673728256E+03  3.54673728256E+03  0.00000000000E+00 0.00000000000E+00  1.
        2   -1    0    0  503    0  0.00000000000E+00  0.00000000000E+00 -5.09933387034E+03  5.09933387034E+03  0.00000000000E+00 0.00000000000E+00  1.
       23    2    1    2    0    0  2.42078660279E+03 -2.80382585783E+03 -2.89690107245E+03  4.70342912329E+03  9.25336528588E+01 0.00000000000E+00  1.
       25    2    1    2    0    0 -2.42078660279E+03  2.80382585783E+03  1.34430448467E+03  3.94264202961E+03  1.24997635370E+02 0.00000000000E+00  1.
       11    1    3    3    0    0  9.65995947829E+02 -1.07781070229E+03 -1.17799673791E+03  1.86614586668E+03  5.10794765607E-04 0.00000000000E+00  1.
      -11    1    3    3    0    0  1.45479065497E+03 -1.72601515554E+03 -1.71890433454E+03  2.83728325661E+03  5.14122453996E-04 0.00000000000E+00  1.
        5    1    4    4  501    0 -7.11656515730E+02  7.39754437116E+02  3.62926545214E+02  1.08876411625E+03  0.00000000000E+00 0.00000000000E+00  1.
       -5    1    4    4    0  501 -1.70913008706E+03  2.06407142072E+03  9.81377939454E+02  2.85387791336E+03  0.00000000000E+00 0.00000000000E+00  1.
</event>
<event>
 8  50   1.0000000E+00   1.2500000E+02   7.8125000E-03   1.2380861E-01
       -2   -1    0    0    0  503  0.00000000000E+00  0.00000000000E+00  4.17369116762E+03  4.17369116762E+03  0.00000000000E+00 0.00000000000E+00  1.
        2   -1    0    0  503    0  0.00000000000E+00  0.00000000000E+00 -4.26279453582E+03  4.26279453582E+03  0.00000000000E+00 0.00000000000E+00  1.
       23    2    1    2    0    0 -3.05506393069E+03 -5.38551053362E+02  2.81149360808E+03  4.18765754912E+03  9.23394973345E+01 0.00000000000E+00  1.
       25    2    1    2    0    0  3.05506393069E+03  5.38551053362E+02 -2.90059697627E+03  4.24882815432E+03  1.25000033825E+02 0.00000000000E+00  1.
       12    1    3    3    0    0 -1.95351567505E+02 -5.62084990711E+01  1.94832769657E+02  2.81569597838E+02  5.96046447754E-06 0.00000000000E+00  1.
      -12    1    3    3    0    0 -2.85971236319E+03 -4.82342554291E+02  2.61666083842E+03  3.90608795129E+03  9.53674316406E-05 0.00000000000E+00  1.
        5    1    4    4  501    0  2.05005583553E+03  3.02906034654E+02 -1.91934455061E+03  2.82459988292E+03  0.00000000000E+00 0.00000000000E+00  1.
       -5    1    4    4    0  501  1.00500809516E+03  2.35645018707E+02 -9.81252425668E+02  1.42422827140E+03  0.00000000000E+00 0.00000000000E+00  1.
</event>
<event>
 8  50   1.0000000E+00   1.2500000E+02   7.8125000E-03   1.2380861E-01
       -1   -1    0    0    0  503  0.00000000000E+00  0.00000000000E+00  1.98063555156E+03  1.98063555156E+03  0.00000000000E+00 0.00000000000E+00  1.
        1   -1    0    0  503    0  0.00000000000E+00  0.00000000000E+00 -2.90158139741E+03  2.90158139741E+03  0.00000000000E+00 0.00000000000E+00  1.
       23    2    1    2    0    0  7.19794536260E+01 -2.33549463015E+03  7.30734002484E+01  2.33989201927E+03  1.00193466883E+02 0.00000000000E+00  1.
       25    2    1    2    0    0 -7.19794536260E+01  2.33549463015E+03 -9.94019246099E+02  2.54232492971E+03  1.25002309589E+02 0.00000000000E+00  1.
       14    1    3    3    0    0 -1.76881223759E+01 -7.66809696618E+02  1.45464604172E+00  7.67015056238E+02  5.00111876149E-06 0.00000000000E+00  1.
      -14    1    3    3    0    0  8.96675760020E+01 -1.56868493353E+03  7.16187542067E+01  1.57287696303E+03  3.64241199541E-05 0.00000000000E+00  1.
        5    1    4    4  501    0 -3.07015793011E+01  2.10571913183E+03 -9.11137048138E+02  2.29459503391E+03  0.00000000000E+00 0.00000000000E+00  1.
       -5    1    4    4    0  501 -4.12778743249E+01  2.29775498317E+02 -8.28821979611E+01  2.47729895803E+02  0.00000000000E+00 0.00000000000E+00  1.
</event>
<event>
 8  50   1.0000000E+00   1.2500000E+02   7.8125000E-03   1.2380861E-01
        2   -1    0    0  503    0  0.00000000000E+00  0.00000000000E+00  1.26196033125E+03  1.26196033125E+03  0.00000000000E+00 0.00000000000E+00  1.
       -2   -1    0    0    0  503  0.00000000000E+00  0.00000000000E+00 -1.37917106172E+03  1.37917106172E+03  0.00000000000E+00 0.00000000000E+00  1.
       23    2    1    2    0    0  1.29874893492E+03 -2.06658296699E+00 -2.63278186691E+02  1.32822887660E+03  9.01303407410E+01 0.00000000000E+00  1.
       25    2    1    2    0    0 -1.29874893492E+03  2.06658296699E+00  1.46067456219E+02  1.31290251638E+03  1.24996996088E+02 0.00000000000E+00  1.
        5    1    3    3  502    0  1.25527047198E+03 -8.76942502604E+00 -2.68408204688E+02  1.28368469162E+03  4.74999999994E+00 0.00000000000E+00  1.
       -5    1    3    3    0  502  4.34784629355E+01  6.70284205905E+00  5.13001799711E+00  4.45441849803E+01  4.75000000000E+00 0.00000000000E+00  1.
        5    1    4    4  501    0 -7.73234305126E+02 -5.99711738247E+01  9.13098083895E+01  7.80913127961E+02  0.00000000000E+00 0.00000000000E+00  1.
       -5    1    4    4    0  501 -5.25514629793E+02  6.20377567917E+01  5.47576478297E+01  5.31989388419E+02  0.00000000000E+00 0.00000000000E+00  1.
</event>
<event>
 8  50   1.0000000E+00   1.2500000E+02   7.8125000E-03   1.2380861E-01
        2   -1    0    0  503    0  0.00000000000E+00  0.00000000000E+00  1.71055948530E+03  1.71055948530E+03  0.00000000000E+00 0.00000000000E+00  1.
       -2   -1    0    0    0  503  0.00000000000E+00  0.00000000000E+00 -2.01620457126E+03  2.01620457126E+03  0.00000000000E+00 0.00000000000E+00  1.
       23    2    1    2    0    0  3.04376281713E+02 -7.03687908399E+02 -1.84635391958E+03  2.00129876186E+03  9.13911624983E+01 0.00000000000E+00  1.
       25    2    1    2    0    0 -3.04376281713E+02  7.03687908399E+02  1.54070883362E+03  1.72546529469E+03  1.25000719615E+02 0.00000000000E+00  1.
       13    1    3    3    0    0  2.82667227494E+02 -6.87874815958E+02 -1.80224527313E+03  1.94965652350E+03  1.05659994275E-01 0.00000000000E+00  1.
      -13    1    3    3    0    0  2.17090542190E+01 -1.58130924413E+01 -4.41086464461E+01  5.16422383615E+01  1.05660000027E-01 0.00000000000E+00  1.
        5    1    4    4  501    0 -3.09494107857E+02  6.94802962262E+02  1.48120382970E+03  1.66508334455E+03  0.00000000000E+00 0.00000000000E+00  1.
       -5    1    4    4    0  501  5.11782614396E+00  8.88494613703E+00  5.95050039149E+01  6.03819501441E+01  0.00000000000E+00 0.00000000000E+00  1.
</event>
<event>
 8  50   1.0000000E+00   1.2500000E+02   7.8125000E-03   1.2380861E-01
       -1   -1    0    0    0  503  0.00000000000E+00  0.00000000000E+00  1.72521124688E+03  1.72521124688E+03  0.00000000000E+00 0.00000000000E+00  1.
        1   -1    0    0  503    0  0.00000000000E+00  0.00000000000E+00 -2.32795653794E+03  2.32795653794E+03  0.00000000000E+00 0.00000000000E+00  1.
       23    2    1    2    0    0 -1.82563403859E+03 -7.99945417334E+02 -4.79376572607E+02  2.05224367270E+03  9.51308583509E+01 0.00000000000E+00  1.
       25    2    1    2    0    0  1.82563403859E+03  7.99945417334E+02 -1.23368718458E+02  2.00092411212E+03  1.25000592752E+02 0.00000000000E+00  1.
        1    1    3    3  502    0 -5.39560133821E+00 -4.50764313566E+00 -7.96130770102E+00  1.06213831844E+01  1.76951289177E-06 0.00000000000E+00  1.
       -1    1    3    3    0  502 -1.82023843725E+03 -7.95437774198E+02 -4.71415264906E+02  2.04162228952E+03  3.99840112478E-05 0.00000000000E+00  1.
        5    1    4    4  501    0  5.17969823390E+02  2.53433149103E+02 -8.71019655269E+01  5.83187663969E+02  0.00000000000E+00 0.00000000000E+00  1.
       -5    1    4    4    0  501  1.30766421520E+03  5.46512268231E+02 -3.62667529315E+01  1.41773644815E+03  0.00000000000E+00 0.00000000000E+00  1.
</event>
<event>
 8  50   1.0000000E+00   1.2500000E+02   7.8125000E-03   1.2380861E-01
        1   -1    0    0  503    0  0.00000000000E+00  0.00000000000E+00  4.57987516582E+03  4.57987516582E+03  0.00000000000E+00 0.00000000000E+00  1.
       -1   -1    0    0    0  503  0.00000000000E+00  0.00000000000E+00 -4.94840925549E+03  4.94840925549E+03  0.00000000000E+00 0.00000000000E+00  1.
       23    2    1    2    0    0 -3.53471443566E+02  4.74555852909E+03 -1.07648903926E+02  4.76079517515E+03  9.11844219002E+01 0.00000000000E+00  1.
       25    2    1    2    0    0  3.53471443566E+02 -4.74555852909E+03 -2.60885185741E+02  4.76748924615E+03  1.24999270463E+02 0.00000000000E+00  1.
       16    1    3    3    0    0 -1.40183831108E+02  2.38479323593E+03 -2.78720611234E+01  2.38907244269E+03  3.96389093644E-05 0.00000000000E+00  1.
      -16    1    3    3    0    0 -2.13287612458E+02  2.36076529317E+03 -7.97768428027E+01  2.37172273247E+03  7.41098731804E-05 0.00000000000E+00  1.
        5    1    4    4  501    0  1.33861759799E+02 -2.45444647555E+03 -1.73755353082E+02  2.46422754525E+03  0.00000000000E+00 0.00000000000E+00  1.
       -5    1    4    4    0  501  2.19609683767E+02 -2.29111205354E+03 -8.71298326592E+01  2.30326170090E+03  0.00000000000E+00 0.00000000000E+00  1.
</event>
<event>
 8  50   1.0000000E+00   1.2500000E+02   7.8125000E-03   1.2380861E-01
       -2   -1    0    0    0  503  0.00000000000E+00  0.00000000000E+00  4.61548148838E+03  4.61548148838E+03  0.00000000000E+00 0.00000000000E+00  1.
        2   -1    0    0  503    0  0.00000000000E+00  0.00000000000E+00 -2.68347613370E+03  2.68347613370E+03  0.00000000000E+00 0.00000000000E+00  1.
       23    2    1    2    0    0 -1.77602686220E+03 -2.58950424519E+03 -6.78298185950E+02  3.21372650268E+03  9.02549380819E+01 0.00000000000E+00  1.
       25    2    1    2    0    0  1.77602686220E+03  2.58950424519E+03  2.61030354063E+03  4.08523111941E+03  1.25000294520E+02 0.00000000000E+00  1.
       13    1    3    3    0    0 -7.57398572996E+02 -1.13297363288E+03 -2.51755265522E+02  1.38587971197E+03  1.05660003480E-01 0.00000000000E+00  1.
      -13    1    3    3    0    0 -1.01862828920E+03 -1.45653061231E+03 -4.26542920428E+02  1.82784679070E+03  1.05660014618E-01 0.00000000000E+00  1.
        5    1    4    4  501    0  1.27738556666E+03  1.80636324619E+03  1.77650093604E+03  2.83736103428E+03  0.00000000000E+00 0.00000000000E+00  1.
       -5    1    4    4    0  501  4.98641295531E+02  7.83140998994E+02  8.33802604594E+02  1.24787008512E+03  0.00000000000E+00 0.00000000000E+00  1.
</event>
<event>
 8  50   1.0000000E+00   1.2500000E+02   7.8125000E-03   1.2380861E-01
       -2   -1    0    0    0  503  0.00000000000E+00  0.00000000000E+00  3.54367793274E+03  3.54367793274E+03  0.00000000000E+00 0.00000000000E+00  1.
        2   -1    0    0  503    0  0.00000000000E+00  0.00000000000E+00 -2.61132947241E+03  2.61132947241E+03  0.00000000000E+00 0.00000000000E+00  1.
       23    2    1    2    0    0 -8.15561718597E+01 -3.00445278895E+03  5.26308060382E+00  3.00723035920E+03  1.00093771538E+02 0.00000000000E+00  1.
       25    2    1    2    0    0  8.15561718597E+01  3.00445278895E+03  9.27085379728E+02  3.14777704594E+03  1.25000237983E+02 0.00000000000E+00  1.
        1    1    3    3  502    0  1.99593262540E+01 -9.63235302060E+02 -5.85530513306E+00  9.63459862391E+02  9.61046381137E-06 0.00000000000E+00  1.
       -1    1    3    3    0  502 -1.01515498114E+02 -2.04121748689E+03  1.11183857369E+01  2.04377049681E+03  2.72541968361E-05 0.00000000000E+00  1.
        5    1    4    4  501    0  1.43435317673E+01  6.51717695040E+02  1.47711097883E+02  6.68401271220E+02  0.00000000000E+00 0.00000000000E+00  1.
       -5    1    4    4    0  501  6.72126400924E+01  2.35273509391E+03  7.79374281845E+02  2.47937577472E+03  0.00000000000E+00 0.00000000000E+00  1.
</event>
<event>
 8  50   1.0000000E+00   1.2500000E+02   7.8125000E-03   1.2380861E-01
        2   -1    0    0  503    0  0.00000000000E+00  0.00000000000E+00  3.10441291854E+03  3.10441291854E+03  0.00000000000E+00 0.00000000000E+00  1.
       -2   -1    0    0    0  503  0.00000000000E+00  0.00000000000E+00 -1.25486096174E+03  1.25486096174E+03  0.00000000000E+00 0.00000000000E+00  1.
       23    2    1    2    0    0 -2.18153137589E+02  4.53824701998E+02  3.02839208689E+03  3.07131622080E+03  9.09782648139E+01 0.00000000000E+00  1.
       25    2    1    2    0    0  2.18153137589E+02 -4.53824701998E+02 -1.17884013009E+03  1.28795765948E+03  1.24992914717E+02 0.00000000000E+00  1.
        1    1    3    3  502    0 -2.19116403465E+02  4.48531411074E+02  2.88829788495E+03  2.93111874498E+03  4.76837158203E-05 0.00000000000E+00  1.
       -1    1    3    3    0  502  9.63265876082E-01  5.29329092416E+00  1.40094201941E+02  1.40197475824E+02  1.49011611938E-06 0.00000000000E+00  1.
        5    1    4    4  501    0  6.71385503256E+01 -4.47047287096E+01 -2.28918146162E+02  2.42713030864E+02  0.00000000000E+00 0.00000000000E+00  1.
       -5    1    4    4    0  501  1.51014587263E+02 -4.09119973288E+02 -9.49921983926E+02  1.04524462862E+03  0.00000000000E+00 0.00000000000E+00  1.
</event>
<event>
 8  50   1.0000000E+00   1.2500000E+02   7.8125000E-03   1.2380861E-01
        2   -1    0    0  503    0  0.00000000000E+00  0.00000000000E+00  3.55129250392E+03  3.55129250392E+03  0.00000000000E+00 0.00000000000E+00  1.
       -2   -1    0    0    0  503  0.00000000000E+00  0.00000000000E+00 -1.26742425617E+03  1.26742425617E+03  0.00000000000E+00 0.00000000000E+00  1.
       23    2    1    2    0    0 -1.44984140554E+03 -1.54479166444E+03  1.10515270983E+03  2.39108103458E+03  8.65136643243E+01 0.00000000000E+00  1.
       25    2    1    2    0    0  1.44984140554E+03  1.54479166444E+03  1.17871553792E+03  2.42763572551E+03  1.24994034662E+02 0.00000000000E+00  1.
        5    1    3    3  502    0 -1.09237062601E+03 -1.17191515089E+03  7.94144697579E+02  1.78811271140E+03  4.75000000011E+00 0.00000000000E+00  1.
       -5    1    3    3    0  502 -3.57470779531E+02 -3.72876513550E+02  3.11008012249E+02  6.02968323180E+02  4.75000000000E+00 0.00000000000E+00  1.
        5    1    4    4  501    0  8.34925385713E+02  8.02217928342E+02  6.23443335473E+02  1.31504205135E+03  0.00000000000E+00 0.00000000000E+00  1.
       -5    1    4    4    0  501  6.14916019829E+02  7.42573736101E+02  5.55272202447E+02  1.11259367417E+03  0.00000000000E+00 0.00000000000E+00  1.
</event>
<event>
 8  50   1.0000000E+00   1.2500000E+02   7.8125000E-03   1.2380861E-01
        1   -1    0    0  503    0  0.00000000000E+00  0.00000000000E+00  1.87361607506E+03  1.87361607506E+03  0.00000000000E+00 0.00000000000E+00  1.
       -1   -1    0    0    0  503  0.00000000000E+00  0.00000000000E+00 -1.49780115279E+03  1.49780115279E+03  0.00000000000E+00 0.00000000000E+00  1.
       23    2    1    2    0    0  1.56924605073E+03  1.63527636491E+02  7.43500172610E+02  1.74658125374E+03  9.20821025283E+01 0.00000000000E+00  1.
       25    2    1    2    0    0 -1.56924605073E+03 -1.63527636491E+02 -3.67685250340E+02  1.62483597412E+03  1.25000175360E+02 0.00000000000E+00  1.
        4    1    3    3  502    0  5.70143235833E+02  2.45259026329E+01  2.38494105883E+02  6.18502945371E+02  1.27500000004E+00 0.00000000000E+00  1.
       -4    1    3    3    0  502  9.99102814897E+02  1.39001733858E+02  5.05006066727E+02  1.12807830837E+03  1.27500000012E+00 0.00000000000E+00  1.
        5    1    4    4  501    0 -1.04067531706E+03 -1.18518092591E+02 -3.03471702350E+02  1.09048004472E+03  0.00000000000E+00 0.00000000000E+00  1.
       -5    1    4    4    0  501 -5.28570733675E+02 -4.50095439001E+01 -6.42135479906E+01  5.34355929400E+02  0.00000000000E+00 0.00000000000E+00  1.
</event>
<event>
 8  50   1.0000000E+00   1.2500000E+02   7.8125000E-03   1.2380861E-01
        2   -1    0    0  503    0  0.00000000000E+00  0.00000000000E+00  2.89256774767E+03  2.89256774767E+03  0.00000000000E+00 0.00000000000E+00  1.
       -2   -1    0    0    0  503  0.00000000000E+00  0.00000000000E+00 -3.22727170804E+03  3.22727170804E+03  0.00000000000E+00 0.00000000000E+00  1.
       23    2    1    2    0    0 -6.80767065949E+02  2.33913545064E+03  1.67610415219E+03  2.95851613489E+03  9.21636419569E+01 0.00000000000E+00  1.
       25    2    1    2    0    0  6.80767065949E+02 -2.33913545064E+03 -2.01080811256E+03  3.16132332082E+03  1.24969671283E+02 0.00000000000E+00  1.
        4    1    3    3  502    0 -4.08457446194E+02  1.55797757458E+03  1.09983021062E+03  1.95032297994E+03  1.27500000054E+00 0.00000000000E+00  1.
       -4    1    3    3    0  502 -2.72309619755E+02  7.81157876056E+02  5.76273941566E+02  1.00819315495E+03  1.27499999995E+00 0.00000000000E+00  1.
        5    1    4    4  501    0  1.86691307783E+02 -6.70905167302E+02 -6.48304289218E+02  9.51454591314E+02  0.00000000000E+00 0.00000000000E+00  1.
       -5    1    4    4    0  501  4.94075758167E+02 -1.66823028334E+03 -1.36250382334E+03  2.20986872951E+03  0.00000000000E+00 0.00000000000E+00  1.
</event>
<event>
 8  50   1.0000000E+00   1.2500000E+02   7.8125000E-03   1.2380861E-01
        2   -1    0    0  503    0  0.00000000000E+00  0.00000000000E+00  3.15943774139E+03  3.15943774139E+03  0.00000000000E+00 0.00000000000E+00  1.
       -2   -1    0    0    0  503  0.00000000000E+00  0.00000000000E+00 -4.83235841449E+03  4.83235841449E+03  0.00000000000E+00 0.00000000000E+00  1.
       23    2    1    2    0    0 -1.75819926887E+03  3.47686787849E+03 -1.11759497709E+03  4.05429800865E+03  9.18634671432E+01 0.00000000000E+00  1.
       25    2    1    2    0    0  1.75819926887E+03 -3.47686787849E+03 -5.55325696009E+02  3.93749814723E+03  1.25020467349E+02 0.00000000000E+00  1.
        5    1    3    3  502    0 -4.98046735738E+02  9.59985377096E+02 -2.69472931977E+02  1.11456749405E+03  4.74999999998E+00 0.00000000000E+00  1.
       -5    1    3    3    0  502 -1.26015253313E+03  2.51688250139E+03 -8.48122045115E+02  2.93973051460E+03  4.74999999940E+00 0.00000000000E+00  1.
        5    1    4    4  501    0  2.15035902728E+02 -4.04562154977E+02 -2.59087968426E+01  4.58892408366E+02  0.00000000000E+00 0.00000000000E+00  1.
       -5    1    4    4    0  501  1.54316336614E+03 -3.07230572351E+03 -5.29416899167E+02  3.47860573886E+03  0.00000000000E+00 0.00000000000E+00  1.
</event>
<event>
 8  50   1.0000000E+00   1.2500000E+02   7.8125000E-03   1.2380861E-01
       -2   -1    0    0    0  503  0.00000000000E+00  0.00000000000E+00  5.70256449813E+03  5.70256449813E+03  0.00000000000E+00 0.00000000000E+00  1.
        2   -1    0    0  503    0  0.00000000000E+00  0.00000000000E+00 -2.85360194300E+03  2.85360194300E+03  0.00000000000E+00 0.00000000000E+00  1.
       23    2    1    2    0    0 -2.75281252634E+03  2.85150275128E+03  2.21191166398E+03  4.53988642427E+03  9.47142558327E+01 0.00000000000E+00  1.
       25    2    1    2    0    0  2.75281252634E+03 -2.85150275128E+03  6.37050891145E+02  4.01628001687E+03  1.25006360799E+02 0.00000000000E+00  1.
        2    1    3    3  502    0 -1.70291556740E+03  1.82636724438E+03  1.40990924169E+03  2.86764412207E+03  4.76837158203E-05 0.00000000000E+00  1.
       -2    1    3    3    0  502 -1.04989695894E+03  1.02513550690E+03  8.02002422294E+02  1.67224230220E+03  2.66560074985E-05 0.00000000000E+00  1.
        5    1    4    4  501    0  3.89896980948E+02 -4.23786926853E+02  1.35135164607E+02  5.91503616081E+02  0.00000000000E+00 0.00000000000E+00  1.
       -5    1    4    4    0  501  2.36291554539E+03 -2.42771582443E+03  5.01915726537E+02  3.42477640079E+03  0.00000000000E+00 0.00000000000E+00  1.
</event>
<event>
 8  50   1.0000000E+00   1.2500000E+02   7.8125000E-03   1.2380861E-01
       -2   -1    0    0    0  503  0.00000000000E+00  0.00000000000E+00  1.49583362613E+03  1.49583362613E+03  0.00000000000E+00 0.00000000000E+00  1.
        2   -1    0    0  503    0  0.00000000000E+00  0.00000000000E+00 -3.33789871145E+03  3.33789871145E+03  0.00000000000E+00 0.00000000000E+00  1.
       23    2    1    2    0    0 -1.51421794263E+03  6.96830363108E+02  6.84484743952E+02  1.80429217921E+03  9.23166860369E+01 0.00000000000E+00  1.
       25    2    1    2    0    0  1.51421794263E+03 -6.96830363108E+02 -2.52654982927E+03  3.02944015837E+03  1.25000402499E+02 0.00000000000E+00  1.
        5    1    3    3  502    0 -8.19552607320E+02  3.88163006386E+02  4.20499424638E+02  9.99589577933E+02  4.74999999995E+00 0.00000000000E+00  1.
       -5    1    3    3    0  502 -6.94665335314E+02  3.08667356722E+02  2.63985319314E+02  8.04702601279E+02  4.74999999996E+00 0.00000000000E+00  1.
        5    1    4    4  501    0  6.93015832070E+02 -3.70092666533E+02 -1.11375433136E+03  1.36297037236E+03  0.00000000000E+00 0.00000000000E+00  1.
       -5    1    4    4    0  501  8.21202110564E+02 -3.26737696575E+02 -1.41279549791E+03  1.66646978601E+03  0.00000000000E+00 0.00000000000E+00  1.
</event>
<event>
 8  50   1.0000000E+00   1.2500000E+02   7.8125000E-03   1.2380861E-01
       -2   -1    0    0    0  503  0.00000000000E+00  0.00000000000E+00  5.51628109091E+03  5.51628109091E+03  0.00000000000E+00 0.00000000000E+00  1.
        2   -1    0    0  503    0  0.00000000000E+00  0.00000000000E+00 -2.97199345649E+03  2.97199345649E+03  0.00000000000E+00 0.00000000000E+00  1.
       23    2    1    2    0    0  1.13957517182E+03  2.11899231478E+03  4.68363901487E+03  5.26628625001E+03  9.23928740042E+01 0.00000000000E+00  1.
       25    2    1    2    0    0 -1.13957517182E+03 -2.11899231478E+03 -2.13935138045E+03  3.22198829739E+03  1.24997028536E+02 0.00000000000E+00  1.
        2    1    3    3  502    0  7.34717987051E+02  1.45532842127E+03  3.19122546240E+03  3.58353335217E+03  4.76837158203E-05 0.00000000000E+00  1.
       -2    1    3    3    0  502  4.04857184774E+02  6.63663893508E+02  1.49241355247E+03  1.68275289785E+03  1.68587394044E-05 0.00000000000E+00  1.
        5    1    4    4  501    0 -8.94386298398E+02 -1.55488527739E+03 -1.61768799678E+03  2.41547294159E+03  0.00000000000E+00 0.00000000000E+00  1.
       -5    1    4    4    0  501 -2.45188873426E+02 -5.64107037385E+02 -5.21663383673E+02  8.06515355802E+02  0.00000000000E+00 0.00000000000E+00  1.
</event>
<event>
 8  50   1.0000000E+00   1.2500000E+02   7.8125000E-03   1.2380861E-01
        2   -1    0    0  503    0  0.00000000000E+00  0.00000000000E+00  3.48912608517E+03  3.48912608517E+03  0.00000000000E+00 0.00000000000E+00  1.
       -2   -1    0    0    0  503  0.00000000000E+00  0.00000000000E+00 -2.67320126345E+03  2.67320126345E+03  0.00000000000E+00 0.00000000000E+00  1.
       23    2    1    2    0    0 -1.97900832792E+03  1.22055353251E+03  2.40244700950E+03  3.34472153373E+03  9.58416249116E+01 0.00000000000E+00  1.
       25    2    1    2    0    0  1.97900832792E+03 -1.22055353251E+03 -1.58652218779E+03  2.81760581490E+03  1.24999952494E+02 0.00000000000E+00  1.
        3    1    3    3  502    0 -1.48841049525E+03  9.38532357699E+02  1.87048761317E+03  2.56806010440E+03  5.84003863998E-05 0.00000000000E+00  1.
       -3    1    3    3    0  502 -4.90597832664E+02  2.82021174807E+02  5.31959396336E+02  7.76661429327E+02  5.96046447754E-06 0.00000000000E+00  1.
        5    1    4    4  501    0  5.28185085316E+02 -2.63178452138E+02 -3.89067114975E+02  7.06834918475E+02  0.00000000000E+00 0.00000000000E+00  1.
       -5    1    4    4    0  501  1.45082324260E+03 -9.57375080367E+02 -1.19745507281E+03  2.11077089642E+03  0.00000000000E+00 0.00000000000E+00  1.
</event>
<event>
 8  50   1.0000000E+00   1.2500000E+02   7.8125000E-03   1.2380861E-01
       -1   -1    0    0    0  503  0.00000000000E+00  0.00000000000E+00  1.47393704725E+03  1.47393704725E+03  0.00000000000E+00 0.00000000000E+00  1.
        1   -1    0    0  503    0  0.00000000000E+00  0.00000000000E+00 -5.62806610965E+03  5.62806610965E+03  0.00000000000E+00 0.00000000000E+00  1.
       23    2    1    2    0    0  1.34572970983E+03  1.00355708257E+03 -4.95891431282E+03  5.23613915472E+03  9.05914774947E+01 0.00000000000E+00  1.
       25    2    1    2    0    0 -1.34572970983E+03 -1.00355708257E+03  8.04785250422E+02  1.86586400218E+03  1.25115568400E+02 0.00000000000E+00  1.
        1    1    3    3  502    0  9.86122855365E+02  7.84071357656E+02 -3.70347614500E+03  3.91189745984E+03  6.74349576174E-05 0.00000000000E+00  1.
       -1    1    3    3    0  502  3.59606854463E+02  2.19485724910E+02 -1.25543816783E+03  1.32424169488E+03  2.38418579102E-05 0.00000000000E+00  1.
        5    1    4    4  501    0 -1.18890252822E+03 -9.29316241816E+02  7.39574856489E+02  1.68050256390E+03  0.00000000000E+00 0.00000000000E+00  1.
       -5    1    4    4    0  501 -1.56827181603E+02 -7.42408407502E+01  6.52103939332E+01  1.85361438282E+02  0.00000000000E+00 0.00000000000E+00  1.
</event>
<event>
 8  50   1.0000000E+00   1.2500000E+02   7.8125000E-03   1.2380861E-01
       -1   -1    0    0    0  503  0.00000000000E+00  0.00000000000E+00  2.00389708597E+03  2.00389708597E+03  0.00000000000E+00 0.00000000000E+00  1.
        1   -1    0    0  503    0  0.00000000000E+00  0.00000000000E+00 -3.07330291934E+03  3.07330291934E+03  0.00000000000E+00 0.00000000000E+00  1.
       23    2    1    2    0    0  1.30638529537E+03  1.47023172743E+02 -2.68464864582E+03  2.99084135183E+03  9.76487945176E+01 0.00000000000E+00  1.
       25    2    1    2    0    0 -1.30638529537E+03 -1.47023172743E+02  1.61524281245E+03  2.08635865348E+03  1.24998937931E+02 0.00000000000E+00  1.
        2    1    3    3  502    0  3.79074920574E+01 -1.21866039117E+01 -8.25961207028E+01  9.16930227669E+01  3.79906558513E-06 0.00000000000E+00  1.
       -2    1    3    3    0  502  1.26847780331E+03  1.59209776655E+02 -2.60205252512E+03  2.89914832907E+03  3.37174788087E-05 0.00000000000E+00  1.
        5    1    4    4  501    0 -7.55430678288E+02 -2.47810002725E+01  9.49185504160E+02  1.21336009864E+03  0.00000000000E+00 0.00000000000E+00  1.
       -5    1    4    4    0  501 -5.50954617078E+02 -1.22242172470E+02  6.66057308291E+02  8.72998554831E+02  0.00000000000E+00 0.00000000000E+00  1.
</event>
<event>
 8  50   1.0000000E+00   1.2500000E+02   7.8125000E-03   1.2380861E-01
        2   -1    0    0  503    0  0.00000000000E+00  0.00000000000E+00  1.73741238087E+03  1.73741238087E+03  0.00000000000E+00 0.00000000000E+00  1.
       -2   -1    0    0    0  503  0.00000000000E+00  0.00000000000E+00 -3.01476946797E+03  3.01476946797E+03  0.00000000000E+00 0.00000000000E+00  1.
       23    2    1    2    0    0  8.00400779952E+02 -1.61554979946E+03 -2.09756192320E+03  2.76748915330E+03  9.26694605837E+01 0.00000000000E+00  1.
       25    2    1    2    0    0 -8.00400779952E+02  1.61554979946E+03  8.20204836103E+02  1.98469269554E+03  1.25006237738E+02 0.00000000000E+00  1.
        5    1    3    3  502    0  6.02410219257E+01 -1.80973419591E+02 -2.36624254018E+02  3.03963746869E+02  4.75000000000E+00 0.00000000000E+00  1.
       -5    1    3    3    0  502  7.40159758027E+02 -1.43457637986E+03 -1.86093766918E+03  2.46352540644E+03  4.75000000014E+00 0.00000000000E+00  1.
        5    1    4    4  501    0 -1.90389227130E+02  3.03644656376E+02  2.01527995443E+02  4.11171093464E+02  0.00000000000E+00 0.00000000000E+00  1.
       -5    1    4    4    0  501 -6.10011552822E+02  1.31190514308E+03  6.18676840660E+02  1.57352160207E+03  0.00000000000E+00 0.00000000000E+00  1.
</event>
<event>
 8  50   1.0000000E+00   1.2500000E+02   7.8125000E-03   1.2380861E-01
       -2   -1    0    0    0  503  0.00000000000E+00  0.00000000000E+00  2.73396448444E+03  2.73396448444E+03  0.00000000000E+00 0.00000000000E+00  1.
        2   -1    0    0  503    0  0.00000000000E+00  0.00000000000E+00 -2.66672785278E+03  2.66672785278E+03  0.00000000000E+00 0.00000000000E+00  1.
       23    2    1    2    0    0 -2.69412765842E+03 -1.98409422631E+01  1.75648256507E+02  2.70141480880E+03  8.98451797424E+01 0.00000000000E+00  1.
       25    2    1    2    0    0  2.69412765842E+03  1.98409422631E+01 -1.08411624847E+02  2.69927752843E+03  1.25014368011E+02 0.00000000000E+00  1.
        4    1    3    3  502    0 -1.53345443155E+03 -1.60741371828E+01  1.44273535165E+02  1.54031079659E+03  1.27500000036E+00 0.00000000000E+00  1.
       -4    1    3    3    0  502 -1.16067322688E+03 -3.76680508029E+00  3.13747213417E+01  1.16110401221E+03  1.27500000014E+00 0.00000000000E+00  1.
        5    1    4    4  501    0  1.54956657372E+03 -5.03076942583E+01 -5.90996624641E+01  1.55150900757E+03  0.00000000000E+00 0.00000000000E+00  1.
       -5    1    4    4    0  501  1.14456108471E+03  7.01486365214E+01 -4.93119623830E+01  1.14776852085E+03  0.00000000000E+00 0.00000000000E+00  1.
</event>
<event>
 8  50   1.0000000E+00   1.2500000E+02   7.8125000E-03   1.2380861E-01
       -1   -1    0    0    0  503  0.00000000000E+00  0.00000000000E+00  7.25478665783E+02  7.25478665783E+02  0.00000000000E+00 0.00000000000E+00  1.
        1   -1    0    0  503    0  0.00000000000E+00  0.00000000000E+00 -2.29431804756E+03  2.29431804756E+03  0.00000000000E+00 0.00000000000E+00  1.
       23    2    1    2    0    0 -8.16245394073E+02 -9.35902439351E+02 -1.17223463866E+03  1.71018221570E+03  9.17564357552E+01 0.00000000000E+00  1.
       25    2    1    2    0    0  8.16245394073E+02  9.35902439351E+02 -3.96604743118E+02  1.30961449764E+03  1.24999563356E+02 0.00000000000E+00  1.
        4    1    3    3  502    0 -3.79020643424E+02 -5.03883430639E+02 -6.00851919927E+02  8.70964875939E+02  1.27500000001E+00 0.00000000000E+00  1.
       -4    1    3    3    0  502 -4.37224750649E+02 -4.32019008712E+02 -5.71382718732E+02  8.39217339763E+02  1.27499999990E+00 0.00000000000E+00  1.
        5    1    4    4  501    0 -4.39695117036E+00  4.93066762197E+00 -4.92479137120E+00  8.24003840056E+00  0.00000000000E+00 0.00000000000E+00  1.
       -5    1    4    4    0  501  8.20642345244E+02  9.30971771729E+02 -3.91679951746E+02  1.30137445924E+03  0.00000000000E+00 0.00000000000E+00  1.
</event>
<event>
 8  50   1.0000000E+00   1.2500000E+02   7.8125000E-03   1.2380861E-01
        1   -1    0    0  503    0  0.00000000000E+00  0.00000000000E+00  2.70100908394E+03  2.70100908394E+03  0.00000000000E+00 0.00000000000E+00  1.
       -1   -1    0    0    0  503  0.00000000000E+00  0.00000000000E+00 -4.81004682345E+03  4.81004682345E+03  0.00000000000E+00 0.00000000000E+00  1.
       23    2    1    2    0    0  4.14492312771E+02 -3.57792258162E+03 -9.68526038736E+02  3.73088050769E+03  8.99599774150E+01 0.00000000000E+00  1.
       25    2    1    2    0    0 -4.14492312771E+02  3.57792258162E+03 -1.14051170078E+03  3.78017539970E+03  1.25000941706E+02 0.00000000000E+00  1.
        2    1    3    3  502    0  3.32109433716E+02 -2.77433783661E+03 -7.13900216913E+02  2.88390371326E+03  3.86282247210E-05 0.00000000000E+00  1.
       -2    1    3    3    0  502  8.23828790544E+01 -8.03584745008E+02 -2.54625821824E+02  8.46976794435E+02  9.42432183077E-06 0.00000000000E+00  1.
        5    1    4    4  501    0 -1.31704798840E+02  1.67008330592E+03 -5.41744963805E+02  1.76068509636E+03  0.00000000000E+00 0.00000000000E+00  1.
       -5    1    4    4    0  501 -2.82787513931E+02  1.90783927571E+03 -5.98766736977E+02  2.01949030334E+03  0.00000000000E+00 0.00000000000E+00  1.
</event>
<event>
 8  50   1.0000000E+00   1.2500000E+02   7.8125000E-03   1.2380861E-01
        2   -1    0    0  503    0  0.00000000000E+00  0.00000000000E+00  3.74648868451E+03  3.74648868451E+03  0.00000000000E+00 0.00000000000E+00  1.
       -2   -1    0    0    0  503  0.00000000000E+00  0.00000000000E+00 -2.01150324894E+03  2.01150324894E+03  0.00000000000E+00 0.00000000000E+00  1.
       23    2    1    2    0    0  1.38013117941E+03  2.61450373523E+02 -1.60361702880E+03  2.13376747868E+03  9.08719310197E+01 0.00000000000E+00  1.
       25    2    1    2    0    0 -1.38013117941E+03 -2.61450373523E+02  3.33860246437E+03  3.62422445476E+03  1.24972449876E+02 0.00000000000E+00  1.
        4    1    3    3  502    0  2.72573306220E+02  8.79432715103E+01 -3.14527929717E+02  4.25393547747E+02  1.27499999995E+00 0.00000000000E+00  1.
       -4    1    3    3    0  502  1.10755787319E+03  1.73507102013E+02 -1.28908909908E+03  1.70837393094E+03  1.27499999992E+00 0.00000000000E+00  1.
        5    1    4    4  501    0 -9.74367725093E+02 -2.04154357545E+02  2.49768283702E+03  2.68877128439E+03  0.00000000000E+00 0.00000000000E+00  1.
       -5    1    4    4    0  501 -4.05763454313E+02 -5.72960159784E+01  8.40919627344E+02  9.35453170370E+02  0.00000000000E+00 0.00000000000E+00  1.
</event>
<event>
 8  50   1.0000000E+00   1.2500000E+02   7.8125000E-03   1.2380861E-01
       -1   -1    0    0    0  503  0.00000000000E+00  0.00000000000E+00  3.33840530422E+03  3.33840530422E+03  0.00000000000E+00 0.00000000000E+00  1.
        1   -1    0    0  503    0  0.00000000000E+00  0.00000000000E+00 -3.53944668193E+03  3.53944668193E+03  0.00000000000E+00 0.00000000000E+00  1.
       23    2    1    2    0    0  4.92066307564E+02 -5.71393433697E+02  3.25287527995E+03  3.34036922153E+03  9.08253386740E+01 0.00000000000E+00  1.
       25    2    1    2    0    0 -4.92066307564E+02  5.71393433697E+02 -3.45391665766E+03  3.53748276461E+03  1.24997299118E+02 0.00000000000E+00  1.
        5    1    3    3  502    0  2.98133190919E+02 -2.77177902853E+02  1.74670889953E+03  1.79352321745E+03  4.75000000002E+00 0.00000000000E+00  1.
       -5    1    3    3    0  502  1.93933116645E+02 -2.94215530843E+02  1.50616638042E+03  1.54684600408E+03  4.75000000002E+00 0.00000000000E+00  1.
        5    1    4    4  501    0 -3.37386564013E+00  6.75508733554E-01 -7.53301365551E-01  3.52232087608E+00  0.00000000000E+00 0.00000000000E+00  1.
       -5    1    4    4    0  501 -4.88692441924E+02  5.70717924963E+02 -3.45316335629E+03  3.53396044374E+03  0.00000000000E+00 0.00000000000E+00  1.
</event>
<event>
 8  50   1.0000000E+00   1.2500000E+02   7.8125000E-03   1.2380861E-01
        1   -1    0    0  503    0  0.00000000000E+00  0.00000000000E+00  2.13911463275E+03  2.13911463275E+03  0.00000000000E+00 0.00000000000E+00  1.
       -1   -1    0    0    0  503  0.00000000000E+00  0.00000000000E+00 -4.99256178578E+03  4.99256178578E+03  0.00000000000E+00 0.00000000000E+00  1.
       23    2    1    2    0    0 -2.99318711445E+03  5.42830848396E+02 -2.72378197980E+03  4.08433900888E+03  9.48811569513E+01 0.00000000000E+00  1.
       25    2    1    2    0    0  2.99318711445E+03 -5.42830848396E+02 -1.29665173235E+02  3.04733740964E+03  1.24971192564E+02 0.00000000000E+00  1.
        1    1    3    3  502    0 -9.05346123288E+02  2.00083206142E+02 -8.64582774608E+02  1.26774929165E+03  2.06476546236E-05 0.00000000000E+00  1.
       -1    1    3    3    0  502 -2.08784099117E+03  3.42747642254E+02 -1.85919920519E+03  2.81658971723E+03  4.76837158203E-05 0.00000000000E+00  1.
        5    1    4    4  501    0  1.10384755499E+03 -1.40883317111E+02 -6.21225268373E+01  1.11453431622E+03  0.00000000000E+00 0.00000000000E+00  1.
       -5    1    4    4    0  501  1.88933955946E+03 -4.01947531285E+02 -6.75426463974E+01  1.93280309342E+03  0.00000000000E+00 0.00000000000E+00  1.
</event>
<event>
 8  50   1.0000000E+00   1.2500000E+02   7.8125000E-03   1.2380861E-01
       -2   -1    0    0    0  503  0.00000000000E+00  0.00000000000E+00  1.67027196777E+03  1.67027196777E+03  0.00000000000E+00 0.00000000000E+00  1.
        2   -1    0    0  503    0  0.00000000000E+00  0.00000000000E+00 -1.96073251666E+03  1.96073251666E+03  0.00000000000E+00 0.00000000000E+00  1.
       23    2    1    2    0    0 -7.82059935557E+02 -2.75708263792E+02  1.46483936769E+03  1.68566694483E+03  8.99215561090E+01 0.00000000000E+00  1.
       25    2    1    2    0    0  7.82059935557E+02  2.75708263792E+02 -1.75529991658E+03  1.94533753960E+03  1.25010224732E+02 0.00000000000E+00  1.
        2    1    3    3  502    0 -1.10853873590E+02 -4.17975679052E+01  2.79072572863E+02  3.03178361525E+02  5.96046447754E-06 0.00000000000E+00  1.
       -2    1    3    3    0  502 -6.71206061968E+02 -2.33910695887E+02  1.18576679482E+03  1.38248858331E+03  0.00000000000E+00 0.00000000000E+00  1.
        5    1    4    4  501    0  2.23507252787E+02  4.69555022205E+01 -3.78848315058E+02  4.42364507007E+02  0.00000000000E+00 0.00000000000E+00  1.
       -5    1    4    4    0  501  5.58552682770E+02  2.28752761571E+02 -1.37645160153E+03  1.50297303259E+03  0.00000000000E+00 0.00000000000E+00  1.
</event>
<event>
 8  50   1.0000000E+00   1.2500000E+02   7.8125000E-03   1.2380861E-01
        1   -1    0    0  503    0  0.00000000000E+00  0.00000000000E+00  2.87318518153E+03  2.87318518153E+03  0.00000000000E+00 0.00000000000E+00  1.
       -1   -1    0    0    0  503  0.00000000000E+00  0.00000000000E+00 -5.30307054506E+03  5.30307054506E+03  0.00000000000E+00 0.00000000000E+00  1.
       23    2    1    2    0    0  1.20638767634E+03 -1.32050756986E+03 -4.84666105855E+03  5.16701299107E+03  9.37462838795E+01 0.00000000000E+00  1.
       25    2    1    2    0    0 -1.20638767634E+03  1.32050756986E+03  2.41677569502E+03  3.00924273552E+03  1.25002454208E+02 0.00000000000E+00  1.
       12    1    3    3    0    0  8.97093092611E+02 -1.02098318444E+03 -3.76586574780E+03  4.00361430587E+03  4.76837158203E-05 0.00000000000E+00  1.
      -12    1    3    3    0    0  3.09294583724E+02 -2.99524385415E+02 -1.08079531076E+03  1.16339868520E+03  2.06476546236E-05 0.00000000000E+00  1.
        5    1    4    4  501    0 -5.21328161585E+02  6.62211790482E+02  1.15089881135E+03  1.42649065243E+03  0.00000000000E+00 0.00000000000E+00  1.
       -5    1    4    4    0  501 -6.85059514750E+02  6.58295779377E+02  1.26587688367E+03  1.58275208308E+03  0.00000000000E+00 0.00000000000E+00  1.
</event>
<event>
 8  50   1.0000000E+00   1.2500000E+02   7.8125000E-03   1.2380861E-01
       -2   -1    0    0    0  503  0.00000000000E+00  0.00000000000E+00  1.79597668902E+03  1.79597668902E+03  0.00000000000E+00 0.00000000000E+00  1.
        2   -1    0    0  503    0  0.00000000000E+00  0.00000000000E+00 -2.36915709878E+03  2.36915709878E+03  0.00000000000E+00 0.00000000000E+00  1.
       23    2    1    2    0    0  1.52617079527E+03 -4.73844394967E+02 -1.59854152907E+03  2.26231552824E+03  9.49248237746E+01 0.00000000000E+00  1.
       25    2    1    2    0    0 -1.52617079527E+03  4.73844394967E+02  1.02536111931E+03  1.90281825957E+03  1.25004387722E+02 0.00000000000E+00  1.
        4    1    3    3  502    0  9.16051555848E+02 -3.26913150884E+02 -9.39926081013E+02  1.35258468296E+03  1.27500000020E+00 0.00000000000E+00  1.
       -4    1    3    3    0  502  6.10119239426E+02 -1.46931244083E+02 -6.58615448056E+02  9.09730845277E+02  1.27500000001E+00 0.00000000000E+00  1.
        5    1    4    4  501    0 -2.15460093752E+02  9.83183609255E+01  1.91781115683E+02  3.04745054803E+02  0.00000000000E+00 0.00000000000E+00  1.
       -5    1    4    4    0  501 -1.31071070152E+03  3.75526034041E+02  8.33580003629E+02  1.59807320476E+03  0.00000000000E+00 0.00000000000E+00  1.
</event>
<event>
 8  50   1.0000000E+00   1.2500000E+02   7.8125000E-03   1.2380861E-01
        2   -1    0    0  503    0  0.00000000000E+00  0.00000000000E+00  2.23155571784E+03  2.23155571784E+03  0.00000000000E+00 0.00000000000E+00  1.
       -2   -1    0    0    0  503  0.00000000000E+00  0.00000000000E+00 -3.32135487930E+03  3.32135487930E+03  0.00000000000E+00 0.00000000000E+00  1.
       23    2    1    2    0    0 -2.06222045667E+03  1.74790068240E+03 -2.37417203510E+02  2.71564258889E+03  1.02165232123E+02 0.00000000000E+00  1.
       25    2    1    2    0    0  2.06222045667E+03 -1.74790068240E+03 -8.52381957954E+02  2.83726800825E+03  1.24998963783E+02 0.00000000000E+00  1.
       16    1    3    3    0    0 -1.80843867070E+03  1.54510599931E+03 -1.76754286209E+02  2.38517191256E+03  3.07556501635E-05 0.00000000000E+00  1.
      -16    1    3    3    0    0 -2.53781785976E+02  2.02794683090E+02 -6.06629173006E+01  3.30470676336E+02  5.10786071450E-06 0.00000000000E+00  1.
        5    1    4    4  501    0  1.76966729789E+03 -1.47356886889E+03 -6.83881514475E+02  2.40225341761E+03  0.00000000000E+00 0.00000000000E+00  1.
       -5    1    4    4    0  501  2.92553158782E+02 -2.74331813503E+02 -1.68500443478E+02  4.35014590635E+02  0.00000000000E+00 0.00000000000E+00  1.
</event>
<event>
 8  50   1.0000000E+00   1.2500000E+02   7.8125000E-03   1.2380861E-01
        3   -1    0    0  503    0  0.00000000000E+00  0.00000000000E+00  2.24099686083E+03  2.24099686083E+03  0.00000000000E+00 0.00000000000E+00  1.
       -3   -1    0    0    0  503  0.00000000000E+00  0.00000000000E+00 -2.00635346625E+03  2.00635346625E+03  0.00000000000E+00 0.00000000000E+00  1.
       23    2    1    2    0    0 -1.02752732877E+03  1.74924017536E+03  7.25245751713E+02  2.15642483280E+03  9.23745457336E+01 0.00000000000E+00  1.
       25    2    1    2    0    0  1.02752732877E+03 -1.74924017536E+03 -4.90602357136E+02  2.09092549427E+03  1.25000589295E+02 0.00000000000E+00  1.
       12    1    3    3    0    0 -8.15634064729E+02  1.45733444898E+03  5.90619368782E+02  1.77141577912E+03  2.38418579102E-05 0.00000000000E+00  1.
      -12    1    3    3    0    0 -2.11893264041E+02  2.91905726373E+02  1.34626382931E+02  3.85009053681E+02  9.54139864062E-06 0.00000000000E+00  1.
        5    1    4    4  501    0  2.74157459356E+01 -5.60069574019E+01  6.03308247919E+00  6.26482281220E+01  0.00000000000E+00 0.00000000000E+00  1.
       -5    1    4    4    0  501  1.00011158283E+03 -1.69323321796E+03 -4.96635439616E+02  2.02827726615E+03  0.00000000000E+00 0.00000000000E+00  1.
</event>
<event>
 8  50   1.0000000E+00   1.2500000E+02   7.8125000E-03   1.2380861E-01
       -2   -1    0    0    0  503  0.00000000000E+00  0.00000000000E+00  3.58167805687E+03  3.58167805687E+03  0.00000000000E+00 0.00000000000E+00  1.
        2   -1    0    0  503    0  0.00000000000E+00  0.00000000000E+00 -1.57767324927E+03  1.57767324927E+03  0.00000000000E+00 0.00000000000E+00  1.
       23    2    1    2    0    0 -1.22836914828E+03  1.77044542679E+03 -8.10474584144E+01  2.15827898189E+03  9.07287134458E+01 0.00000000000E+00  1.
       25    2    1    2    0    0  1.22836914828E+03 -1.77044542679E+03  2.08505226601E+03  3.00107232425E+03  1.24997478836E+02 0.00000000000E+00  1.
        4    1    3    3  502    0 -7.84504812774E+02  1.13810073050E+03 -8.64874642007E+00  1.38231599154E+03  1.27500000030E+00 0.00000000000E+00  1.
       -4    1    3    3    0  502 -4.43864335509E+02  6.32344696289E+02 -7.23987119943E+01  7.75962990346E+02  1.27500000012E+00 0.00000000000E+00  1.
        5    1    4    4  501    0  1.86218533542E+02 -2.89140982475E+02  3.96531668719E+02  5.24897336894E+02  0.00000000000E+00 0.00000000000E+00  1.
       -5    1    4    4    0  501  1.04215061474E+03 -1.48130444432E+03  1.68852059729E+03  2.47617498736E+03  0.00000000000E+00 0.00000000000E+00  1.
</event>
<event>
 8  50   1.0000000E+00   1.2500000E+02   7.8125000E-03   1.2380861E-01
       -1   -1    0    0    0  503  0.00000000000E+00  0.00000000000E+00  5.66733400085E+03  5.66733400085E+03  0.00000000000E+00 0.00000000000E+00  1.
        1   -1    0    0  503    0  0.00000000000E+00  0.00000000000E+00 -3.15090945367E+03  3.15090945367E+03  0.00000000000E+00 0.00000000000E+00  1.
       23    2    1    2    0    0 -1.24489502634E+03  1.77881945450E+03 -2.52284193776E+03  3.32972899025E+03  9.16593001232E+01 0.00000000000E+00  1.
       25    2    1    2    0    0  1.24489502634E+03 -1.77881945450E+03  5.03926648494E+03  5.48851446427E+03  1.24988159429E+02 0.00000000000E+00  1.
        5    1    3    3  502    0 -7.30351683338E+02  1.07207394980E+03 -1.44301151322E+03  1.94037649052E+03  4.74999999987E+00 0.00000000000E+00  1.
       -5    1    3    3    0  502 -5.14543342998E+02  7.06745504704E+02 -1.07983042454E+03  1.38935249973E+03  4.74999999999E+00 0.00000000000E+00  1.
        5    1    4    4  501    0  4.64065516577E+02 -7.40616175705E+02  1.92105357206E+03  2.11052504134E+03  0.00000000000E+00 0.00000000000E+00  1.
       -5    1    4    4    0  501  7.80829509758E+02 -1.03820327879E+03  3.11821291288E+03  3.37798942293E+03  0.00000000000E+00 0.00000000000E+00  1.
</event>
<event>
 8  50   1.0000000E+00   1.2500000E+02   7.8125000E-03   1.2380861E-01
       -2   -1    0    0    0  503  0.00000000000E+00  0.00000000000E+00  2.59789859458E+03  2.59789859458E+03  0.00000000000E+00 0.00000000000E+00  1.
        2   -1    0    0  503    0  0.00000000000E+00  0.00000000000E+00 -2.79101328792E+03  2.79101328792E+03  0.00000000000E+00 0.00000000000E+00  1.
       23    2    1    2    0    0 -4.83701751695E+02  2.51107798690E+03 -9.33604301969E+02  2.72368552952E+03  8.58244147518E+01 0.00000000000E+00  1.
       25    2    1    2    0    0  4.83701751695E+02 -2.51107798690E+03  7.40489608629E+02  2.66522635299E+03  1.25006444969E+02 0.00000000000E+00  1.
        5    1    3    3  502    0 -2.96581757751E+02  1.68610709045E+03 -6.55621358464E+02  1.83324297017E+03  4.75000000008E+00 0.00000000000E+00  1.
       -5    1    3    3    0  502 -1.87119993943E+02  8.24970896447E+02 -2.77982943505E+02  8.90442559347E+02  4.75000000002E+00 0.00000000000E+00  1.
        5    1    4    4  501    0  2.30701599931E+02 -1.26276506076E+03  4.35474329653E+02  1.35552082930E+03  0.00000000000E+00 0.00000000000E+00  1.
       -5    1    4    4    0  501  2.53000151763E+02 -1.24831292614E+03  3.05015278976E+02  1.30970552369E+03  0.00000000000E+00 0.00000000000E+00  1.
</event>
<event>
 8  50   1.0000000E+00   1.2500000E+02   7.8125000E-03   1.2380861E-01
       -2   -1    0    0    0  503  0.00000000000E+00  0.00000000000E+00  2.74001863893E+03  2.74001863893E+03  0.00000000000E+00 0.00000000000E+00  1.
        2   -1    0    0  503    0  0.00000000000E+00  0.00000000000E+00 -4.54053715232E+03  4.54053715232E+03  0.00000000000E+00 0.00000000000E+00  1.
       23    2    1    2    0    0 -1.62421759188E+03  8.64228403378E+02  2.20363172113E+03  2.87217662175E+03  9.18273660950E+01 0.00000000000E+00  1.
       25    2    1    2    0    0  1.62421759188E+03 -8.64228403378E+02 -4.00415023452E+03  4.40837916951E+03  1.24957123022E+02 0.00000000000E+00  1.
       15    1    3    3    0    0 -4.80498169088E+02  3.03396269575E+02  6.86703017497E+02  8.91342794971E+02  1.77680000000E+00 0.00000000000E+00  1.
      -15    1    3    3    0    0 -1.14371942279E+03  5.60832133803E+02  1.51692870364E+03  1.98083382678E+03  1.77679999954E+00 0.00000000000E+00  1.
        5    1    4    4  501    0  8.61749256312E+02 -3.87779334374E+02 -2.05314025780E+03  2.26017023941E+03  0.00000000000E+00 0.00000000000E+00  1.
       -5    1    4    4    0  501  7.62468335565E+02 -4.76449069003E+02 -1.95100997672E+03  2.14820893010E+03  0.00000000000E+00 0.00000000000E+00  1.
</event>
<event>
 8  50   1.0000000E+00   1.2500000E+02   7.8125000E-03   1.2380861E-01
       -2   -1    0    0    0  503  0.00000000000E+00  0.00000000000E+00  1.36577817833E+03  1.36577817833E+03  0.00000000000E+00 0.00000000000E+00  1.
        2   -1    0    0  503    0  0.00000000000E+00  0.00000000000E+00 -1.91705838179E+03  1.91705838179E+03  0.00000000000E+00 0.00000000000E+00  1.
       23    2    1    2    0    0 -6.03514019945E+02  2.39972252495E+02 -1.77474359437E+03  1.89204677792E+03  9.11610105268E+01 0.00000000000E+00  1.
       25    2    1    2    0    0  6.03514019945E+02 -2.39972252495E+02  1.22346339092E+03  1.39078978220E+03  1.24970777104E+02 0.00000000000E+00  1.
        1    1    3    3  502    0 -4.34431570741E+02  2.02346234840E+02 -1.21449085575E+03  1.30562736916E+03  2.38418579102E-05 0.00000000000E+00  1.
       -1    1    3    3    0  502 -1.69082449204E+02  3.76260176546E+01 -5.60252738625E+02  5.86419408760E+02  1.03238273118E-05 0.00000000000E+00  1.
        5    1    4    4  501    0  5.58347135839E+02 -1.81498872442E+02  1.10130042704E+03  1.24802083132E+03  0.00000000000E+00 0.00000000000E+00  1.
       -5    1    4    4    0  501  4.51668841057E+01 -5.84733800526E+01  1.22162963876E+02  1.42768950887E+02  0.00000000000E+00 0.00000000000E+00  1.
</event>
<event>
 8  50   1.0000000E+00   1.2500000E+02   7.8125000E-03   1.2380861E-01
       -2   -1    0    0    0  503  0.00000000000E+00  0.00000000000E+00  2.00181169262E+03  2.00181169262E+03  0.00000000000E+00 0.00000000000E+00  1.
        2   -1    0    0  503    0  0.00000000000E+00  0.00000000000E+00 -2.16563519496E+03  2.16563519496E+03  0.00000000000E+00 0.00000000000E+00  1.
       23    2    1    2    0    0 -1.25697465735E+03  1.37350548492E+03  8.44378126875E+02  2.04645696215E+03  9.22446230193E+01 0.00000000000E+00  1.
       25    2    1    2    0    0  1.25697465735E+03 -1.37350548492E+03 -1.00820162921E+03  2.12098992542E+03  1.25000529018E+02 0.00000000000E+00  1.
        4    1    3    3  502    0 -1.00513236422E+03  1.14300303848E+03  7.10342927991E+02  1.67968321911E+03  1.27500000020E+00 0.00000000000E+00  1.
       -4    1    3    3    0  502 -2.51842293127E+02  2.30502446440E+02  1.34035198884E+02  3.66773743045E+02  1.27499999996E+00 0.00000000000E+00  1.
        5    1    4    4  501    0  1.12231658245E+03 -1.16380947951E+03 -8.77982635588E+02  1.83980991525E+03  0.00000000000E+00 0.00000000000E+00  1.
       -5    1    4    4    0  501  1.34658074898E+02 -2.09696005407E+02 -1.30218993626E+02  2.81180010171E+02  0.00000000000E+00 0.00000000000E+00  1.
</event>
<event>
 8  50   1.0000000E+00   1.2500000E+02   7.8125000E-03   1.2380861E-01
        1   -1    0    0  503    0  0.00000000000E+00  0.00000000000E+00  3.71796438335E+03  3.71796438335E+03  0.00000000000E+00 0.00000000000E+00  1.
       -1   -1    0    0    0  503  0.00000000000E+00  0.00000000000E+00 -4.09451932584E+03  4.09451932584E+03  0.00000000000E+00 0.00000000000E+00  1.
       23    2    1    2    0    0  6.75835374594E+02  1.00738784073E+02 -4.03254142903E+03  4.09109097814E+03  9.34519042802E+01 0.00000000000E+00  1.
       25    2    1    2    0    0 -6.75835374594E+02 -1.00738784073E+02  3.65598648653E+03  3.72139273105E+03  1.24999651384E+02 0.00000000000E+00  1.
       12    1    3    3    0    0  5.07374675472E+02  4.76205986512E+01 -2.80667221153E+03  2.85256125012E+03  0.00000000000E+00 0.00000000000E+00  1.
      -12    1    3    3    0    0  1.68460699122E+02  5.31181854214E+01 -1.22586921750E+03  1.23852972802E+03  0.00000000000E+00 0.00000000000E+00  1.
        5    1    4    4  501    0 -5.59523506848E+02 -5.03654805968E+01  3.15463995180E+03  3.20427159614E+03  0.00000000000E+00 0.00000000000E+00  1.
       -5    1    4    4    0  501 -1.16311867746E+02 -5.03733034758E+01  5.01346534733E+02  5.17121134910E+02  0.00000000000E+00 0.00000000000E+00  1.
</event>
<event>
 8  50   1.0000000E+00   1.2500000E+02   7.8125000E-03   1.2380861E-01
        1   -1    0    0  503    0  0.00000000000E+00  0.00000000000E+00  4.42091579064E+03  4.42091579064E+03  0.00000000000E+00 0.00000000000E+00  1.
       -1   -1    0    0    0  503  0.00000000000E+00  0.00000000000E+00 -8.35317441069E+02  8.35317441069E+02  0.00000000000E+00 0.00000000000E+00  1.
       23    2    1    2    0    0  1.02219590786E+03  1.62360243991E+03  1.77834219431E+03  2.61752744791E+03  8.93287387714E+01 0.00000000000E+00  1.
       25    2    1    2    0    0 -1.02219590786E+03 -1.62360243991E+03  1.80725615526E+03  2.63870578380E+03  1.24996183023E+02 0.00000000000E+00  1.
        1    1    3    3  502    0  4.56041431401E+02  6.42029969058E+02  7.32621564514E+02  1.07559779895E+03  2.06476546236E-05 0.00000000000E+00  1.
       -1    1    3    3    0  502  5.66154476459E+02  9.81572470856E+02  1.04572062980E+03  1.54192964896E+03  3.15398134120E-05 0.00000000000E+00  1.
        5    1    4    4  501    0 -8.75721608129E+02 -1.45905681734E+03  1.62185012422E+03  2.35077284241E+03  0.00000000000E+00 0.00000000000E+00  1.
       -5    1    4    4    0  501 -1.46474299731E+02 -1.64545622571E+02  1.85406031038E+02  2.87932941385E+02  0.00000000000E+00 0.00000000000E+00  1.
</event>
<event>
 8  50   1.0000000E+00   1.2500000E+02   7.8125000E-03   1.2380861E-01
        2   -1    0    0  503    0  0.00000000000E+00  0.00000000000E+00  2.00106511079E+03  2.00106511079E+03  0.00000000000E+00 0.00000000000E+00  1.
       -2   -1    0    0    0  503  0.00000000000E+00  0.00000000000E+00 -1.37531649350E+03  1.37531649350E+03  0.00000000000E+00 0.00000000000E+00  1.
       23    2    1    2    0    0  6.29336325755E+02 -5.37663452083E+02  1.77141274378E+03  1.95746750939E+03  9.28964092253E+01 0.00000000000E+00  1.
       25    2    1    2    0    0 -6.29336325755E+02  5.37663452083E+02 -1.14566412649E+03  1.41891409491E+03  1.24998877473E+02 0.00000000000E+00  1.
        5    1    3    3  502    0  5.32698184763E+02 -4.21756801672E+02  1.38757402297E+03  1.54500174354E+03  4.74999999999E+00 0.00000000000E+00  1.
       -5    1    3    3    0  502  9.66381409911E+01 -1.15906650411E+02  3.83838720809E+02  4.12465765848E+02  4.75000000000E+00 0.00000000000E+00  1.
        5    1    4    4  501    0 -3.13019540888E+01  1.63343625322E+01 -1.01985241396E+02  1.07924108482E+02  0.00000000000E+00 0.00000000000E+00  1.
       -5    1    4    4    0  501 -5.98034371666E+02  5.21329089550E+02 -1.04367888510E+03  1.31098998642E+03  0.00000000000E+00 0.00000000000E+00  1.
</event>
<event>
 8  50   1.0000000E+00   1.2500000E+02   7.8125000E-03   1.2380861E-01
       -2   -1    0    0    0  503  0.00000000000E+00  0.00000000000E+00  1.01358226310E+03  1.01358226310E+03  0.00000000000E+00 0.00000000000E+00  1.
        2   -1    0    0  503    0  0.00000000000E+00  0.00000000000E+00 -1.93752263202E+03  1.93752263202E+03  0.00000000000E+00 0.00000000000E+00  1.
       23    2    1    2    0    0 -6.03923933976E+02  6.30507447717E+02 -1.60997035090E+03  1.83373042869E+03  9.10988182125E+01 0.00000000000E+00  1.
       25    2    1    2    0    0  6.03923933976E+02 -6.30507447717E+02  6.86029981971E+02  1.11737446644E+03  1.24999209688E+02 0.00000000000E+00  1.
       16    1    3    3    0    0 -3.26842422650E+02  2.77534246220E+02 -8.10731971620E+02  9.17135517182E+02  1.19209289551E-05 0.00000000000E+00  1.
      -16    1    3    3    0    0 -2.77081511326E+02  3.52973201497E+02 -7.99238379275E+02  9.16594911507E+02  1.19209289551E-05 0.00000000000E+00  1.
        5    1    4    4  501    0  5.64363294749E+02 -5.79086952953E+02  6.71054113502E+02  1.05079077403E+03  0.00000000000E+00 0.00000000000E+00  1.
       -5    1    4    4    0  501  3.95606392266E+01 -5.14204947644E+01  1.49758684695E+01  6.65836924048E+01  0.00000000000E+00 0.00000000000E+00  1.
</event>
<event>
 8  50   1.0000000E+00   1.2500000E+02   7.8125000E-03   1.2380861E-01
       -2   -1    0    0    0  503  0.00000000000E+00  0.00000000000E+00  4.30795959561E+03  4.30795959561E+03  0.00000000000E+00 0.00000000000E+00  1.
        2   -1    0    0  503    0  0.00000000000E+00  0.00000000000E+00 -4.10392749791E+03  4.10392749791E+03  0.00000000000E+00 0.00000000000E+00  1.
       23    2    1    2    0    0 -4.24867077261E+02 -1.17829880381E+03  4.11548556012E+03  4.30287342459E+03  9.27265229979E+01 0.00000000000E+00  1.
       25    2    1    2    0    0  4.24867077261E+02  1.17829880381E+03 -3.91145346242E+03  4.10901366894E+03  1.25000153844E+02 0.00000000000E+00  1.
        5    1    3    3  502    0 -1.47102488376E+02 -5.26436056935E+02  1.71778475894E+03  1.80265945333E+03  4.75000000002E+00 0.00000000000E+00  1.
       -5    1    3    3    0  502 -2.77764588884E+02 -6.51862746877E+02  2.39770080117E+03  2.50021397125E+03  4.75000000020E+00 0.00000000000E+00  1.
        5    1    4    4  501    0  1.19827521382E+02  2.76715952338E+02 -7.86397696298E+02  8.42230188192E+02  0.00000000000E+00 0.00000000000E+00  1.
       -5    1    4    4    0  501  3.05039555878E+02  9.01582851474E+02 -3.12505576612E+03  3.26678348074E+03  0.00000000000E+00 0.00000000000E+00  1.
</event>
<event>
 8  50   1.0000000E+00   1.2500000E+02   7.8125000E-03   1.2380861E-01
       -2   -1    0    0    0  503  0.00000000000E+00  0.00000000000E+00  3.51890583161E+03  3.51890583161E+03  0.00000000000E+00 0.00000000000E+00  1.
        2   -1    0    0  503    0  0.00000000000E+00  0.00000000000E+00 -3.31234751536E+03  3.31234751536E+03  0.00000000000E+00 0.00000000000E+00  1.
       23    2    1    2    0    0 -1.19534431654E+03  1.21615002425E+03 -2.85388302517E+03  3.32557291912E+03  8.31745300074E+01 0.00000000000E+00  1.
       25    2    1    2    0    0  1.19534431654E+03 -1.21615002425E+03  3.06044134142E+03  3.50568042785E+03  1.25000565228E+02 0.00000000000E+00  1.
       16    1    3    3    0    0 -5.41103129427E+01  7.13344516164E+01 -1.23125829974E+02  1.52238299915E+02  2.58095682795E-06 0.00000000000E+00  1.
      -16    1    3    3    0    0 -1.14123400360E+03  1.14481557264E+03 -2.73075719520E+03  3.17333461921E+03  7.53945746462E-05 0.00000000000E+00  1.
        5    1    4    4  501    0  3.76597101209E+02 -3.82430286582E+02  1.08538019655E+03  1.21083792135E+03  0.00000000000E+00 0.00000000000E+00  1.
       -5    1    4    4    0  501  8.18747215333E+02 -8.33719737671E+02  1.97506114488E+03  2.29484250649E+03  0.00000000000E+00 0.00000000000E+00  1.
</event>
<event>
 8  50   1.0000000E+00   1.2500000E+02   7.8125000E-03   1.2380861E-01
       -1   -1    0    0    0  503  0.00000000000E+00  0.00000000000E+00  4.55424837832E+03  4.55424837832E+03  0.00000000000E+00 0.00000000000E+00  1.
        1   -1    0    0  503    0  0.00000000000E+00  0.00000000000E+00 -3.00549569958E+03  3.00549569958E+03  0.00000000000E+00 0.00000000000E+00  1.
       23    2    1    2    0    0  1.73375514463E+02 -9.25760610269E+02 -2.87927472942E+03  3.03093120864E+03  9.60689727981E+01 0.00000000000E+00  1.
       25    2    1    2    0    0 -1.73375514463E+02  9.25760610269E+02  4.42802740816E+03  4.52881286926E+03  1.25010002925E+02 0.00000000000E+00  1.
        4    1    3    3  502    0  5.28698170318E+01 -2.99141480090E+02 -1.07733976879E+03  1.11934956368E+03  1.27499999998E+00 0.00000000000E+00  1.
       -4    1    3    3    0  502  1.20505697431E+02 -6.26619130179E+02 -1.80193496063E+03  1.91158164497E+03  1.27500000182E+00 0.00000000000E+00  1.
        5    1    4    4  501    0 -1.35725580095E+02  5.02179973453E+02  2.21114664425E+03  2.27151395356E+03  0.00000000000E+00 0.00000000000E+00  1.
       -5    1    4    4    0  501 -3.76499343677E+01  4.23580636815E+02  2.21688076390E+03  2.25729891570E+03  0.00000000000E+00 0.00000000000E+00  1.
</event>
<event>
 8  50   1.0000000E+00   1.2500000E+02   7.8125000E-03   1.2380861E-01
       -2   -1    0    0    0  503  0.00000000000E+00  0.00000000000E+00  4.21466223336E+03  4.21466223336E+03  0.00000000000E+00 0.00000000000E+00  1.
        2   -1    0    0  503    0  0.00000000000E+00  0.00000000000E+00 -5.10039921782E+03  5.10039921782E+03  0.00000000000E+00 0.00000000000E+00  1.
       23    2    1    2    0    0 -4.42481377870E+03  3.04181707523E+02 -1.79557103019E+03  4.78572075806E+03  8.68582886878E+01 0.00000000000E+00  1.
       25    2    1    2    0    0  4.42481377870E+03 -3.04181707523E+02  9.09834045730E+02  4.52934069312E+03  1.25002544858E+02 0.00000000000E+00  1.
        2    1    3    3  502    0 -1.34522375362E+03  7.49893751760E+01 -5.06769642630E+02  1.43946720157E+03  1.33280037493E-05 0.00000000000E+00  1.
       -2    1    3    3    0  502 -3.07959002508E+03  2.29192332347E+02 -1.28880138756E+03  3.34625355649E+03  1.68587394044E-05 0.00000000000E+00  1.
        5    1    4    4  501    0  3.13694759943E+03 -1.59712752075E+02  6.55096604677E+02  3.20859781933E+03  0.00000000000E+00 0.00000000000E+00  1.
       -5    1    4    4    0  501  1.28786617927E+03 -1.44468955447E+02  2.54737441053E+02  1.32074287379E+03  0.00000000000E+00 0.00000000000E+00  1.
</event>
<event>
 8  50   1.0000000E+00   1.2500000E+02   7.8125000E-03   1.2380861E-01
        2   -1    0    0  503    0  0.00000000000E+00  0.00000000000E+00  4.00118882630E+03  4.00118882630E+03  0.00000000000E+00 0.00000000000E+00  1.
       -2   -1    0    0    0  503  0.00000000000E+00  0.00000000000E+00 -2.99608058645E+03  2.99608058645E+03  0.00000000000E+00 0.00000000000E+00  1.
       23    2    1    2    0    0 -3.07203122882E+02  3.34971764733E+01 -2.98044418120E+03  2.99780078679E+03  9.09187576376E+01 0.00000000000E+00  1.
       25    2    1    2    0    0  3.07203122882E+02 -3.34971764733E+01  3.98555242105E+03  3.99946862596E+03  1.25001478294E+02 0.00000000000E+00  1.
        4    1    3    3  502    0 -1.28132656412E+02 -2.99514514491E+01 -1.30627145179E+03  1.31288301020E+03  1.27500000015E+00 0.00000000000E+00  1.
       -4    1    3    3    0  502 -1.79070466470E+02  6.34486279224E+01 -1.67417272941E+03  1.68491777659E+03  1.27500000026E+00 0.00000000000E+00  1.
        5    1    4    4  501    0  4.28435357601E+01 -5.29044831018E+01  7.59880927787E+02  7.62924293297E+02  0.00000000000E+00 0.00000000000E+00  1.
       -5    1    4    4    0  501  2.64359587122E+02  1.94073066285E+01  3.22567149326E+03  3.23654433266E+03  0.00000000000E+00 0.00000000000E+00  1.
</event>
</LesHouchesEvents>
