<LesHouchesEvents version="1.0">
<!--
Output from the JHUGenerator v7.5.0 described in arXiv:1001.3396 [hep-ph], arXiv:1208.4018 [hep-ph], arXiv:1309.4819 [hep-ph], arXiv:1606.03107 [hep-ph]
   
   Command line: ./JHUGen Seed=765543533 PDFSet=3 Process=50 VegasNc0=100000 VegasNc2=100 HbbDK DataFile=compare_to_reference/ZH_bb DecayMode1=9 ghg2=0.383432074687728,0.918260989345657 ghg3=6294.49296087723,2253.12941717723 ghg4=0.335495485382528,0.17285803562226 ghz1=0.154934976270359,0.453918144016304 ghz2=0.469297059144414,0.745302300947002 ghz3=3947.40921062637,3597.4885961919 ghz4=0.177791270766536,0.920170534486048 ghzgs2=0.0240331049939919,0.232175381101053 ghzgs3=0.331962910170583,0.0450183240308457 ghzgs4=0.808286540247172,0.133184346613754 ghgsgs2=0.530394804029869,0.211218112389125 ghgsgs3=0.914978695198138,0.055650585081425 ghgsgs4=0.694524307167701,0.511424456076726 ghz1_prime=0.143354267833606,0.0910761280837012 ghz1_prime2=7416.7007267243,4861.35525489789 ghz1_prime3=4431.44656075298,4436.48625894176 ghz1_prime4=2441.69123517064,6946.16318931911 ghz1_prime5=78314042.889773,69465359.939181 ghz1_prime6=51233058.8130761,29537873.5850789 ghz1_prime7=47832192.9001564,59559649.9633293 ghz2_pr
   
   Input Parameter:
    Collider: P-P, sqrt(s)=13000.00
    Resonance: spin=0, mass= 125.00 width=   0.00407
    DecayMode1: 9
    Z boson: mass=91.188, width=2.4952
    Jet cuts:
            pT >=     0.00 GeV
        DeltaR >=     0.00
           mJJ >=     0.00 GeV
      m(gammastar) >=     4.00 GeV
    Random seed:   765543533
    To reproduce results using this seed, JHUGen should be compiled with the same compiler:
      GNU Fortran (GCC) 6.3.0
    
    WidthScheme:   2
    PDFSet:   3
    Unweighted: T
    
    Spin-0-VV couplings: 
      generate_as=F
      kappa_top=  0.10000000E+01  0.00000000E+00i
      kappa_bot=  0.10000000E+01  0.00000000E+00i
      ghg2=  0.38343207E+00  0.91826099E+00i
      ghg3=  0.62944930E+04  0.22531294E+04i
      ghg4=  0.33549549E+00  0.17285804E+00i
      ghz1=  0.15493498E+00  0.45391814E+00i
      ghz2=  0.46929706E+00  0.74530230E+00i
      ghz3=  0.39474092E+04  0.35974886E+04i
      ghz4=  0.17779127E+00  0.92017053E+00i
      ghz1_prime=   0.14335427E+00  0.91076128E-01i,    Lambda_z1=  1.0000E+04
      ghz1_prime2=  0.74167007E+04  0.48613553E+04i,    Lambda_z1=  1.0000E+04
      ghz1_prime3=  0.44314466E+04  0.44364863E+04i,    Lambda_z1=  1.0000E+04
      ghz1_prime4=  0.24416912E+04  0.69461632E+04i,    Lambda_z1=  1.0000E+04
      ghz1_prime5=  0.78314043E+08  0.69465360E+08i,    Lambda_z1=  1.0000E+04
      ghz1_prime6=  0.51233059E+08  0.29537874E+08i,    Lambda_z1=  1.0000E+04
      ghz1_prime7=  0.47832193E+08  0.59559650E+08i,    Lambda_z1=  1.0000E+04
      ghz2_prime=   0.57465793E+00  0.41992191E+00i,    Lambda_z2=  1.0000E+04
      ghz2_prime2=  0.43854587E+04  0.61761246E+04i,    Lambda_z2=  1.0000E+04
      ghz2_prime3=  0.45921696E+04  0.75499391E+04i,    Lambda_z2=  1.0000E+04
      ghz2_prime4=  0.84715906E+04  0.71997238E+04i,    Lambda_z2=  1.0000E+04
      ghz2_prime5=  0.19558280E+08  0.94843889E+08i,    Lambda_z2=  1.0000E+04
      ghz2_prime6=  0.23209661E+08  0.67617823E+08i,    Lambda_z2=  1.0000E+04
      ghz2_prime7=  0.70059904E+07  0.53660191E+08i,    Lambda_z2=  1.0000E+04
      ghz3_prime=   0.40457065E+04  0.19693161E+04i,    Lambda_z3=  1.0000E+04
      ghz3_prime2=  0.33402456E+08  0.37615919E+07i,    Lambda_z3=  1.0000E+04
      ghz3_prime3=  0.44855080E+08  0.12184926E+08i,    Lambda_z3=  1.0000E+04
      ghz3_prime4=  0.27878602E+08  0.78237524E+08i,    Lambda_z3=  1.0000E+04
      ghz3_prime5=  0.93246434E+12  0.63158085E+12i,    Lambda_z3=  1.0000E+04
      ghz3_prime6=  0.35811562E+12  0.41077746E+12i,    Lambda_z3=  1.0000E+04
      ghz3_prime7=  0.62298148E+12  0.61827857E+12i,    Lambda_z3=  1.0000E+04
      ghz4_prime=   0.41653395E+00  0.33115593E+00i,    Lambda_z4=  1.0000E+04
      ghz4_prime2=  0.75883756E+04  0.39234327E+04i,    Lambda_z4=  1.0000E+04
      ghz4_prime3=  0.89560755E+04  0.93020315E+04i,    Lambda_z4=  1.0000E+04
      ghz4_prime4=  0.32034411E+04  0.28637675E+04i,    Lambda_z4=  1.0000E+04
      ghz4_prime5=  0.49012574E+08  0.74595801E+08i,    Lambda_z4=  1.0000E+04
      ghz4_prime6=  0.73323810E+08  0.53968832E+08i,    Lambda_z4=  1.0000E+04
      ghz4_prime7=  0.68563876E+08  0.43025214E+08i,    Lambda_z4=  1.0000E+04
      ghzgs2=  0.24033105E-01  0.23217538E+00i
      ghzgs3=  0.33196291E+00  0.45018324E-01i
      ghzgs4=  0.80828654E+00  0.13318435E+00i
      ghzgs1_prime2=  0.56689643E+04  0.70176759E+04i,  Lambda_zgs1=  1.0000E+04
      ghgsgs2=  0.53039480E+00  0.21121811E+00i
      ghgsgs3=  0.91497870E+00  0.55650585E-01i
      ghgsgs4=  0.69452431E+00  0.51142446E+00i
      Lambda=  1000.0
      Lambda_Q=  10000.0
      Lambda_z11=   1.3888E+02
      Lambda_z21=   1.5452E+02
      Lambda_z31=   1.1998E+02
      Lambda_z41=   1.8136E+02
      Lambda_z12=   1.3667E+02
      Lambda_z22=   1.6659E+02
      Lambda_z32=   1.3884E+02
      Lambda_z42=   4.9064E+01
      Lambda_z10=   9.6973E+00
      Lambda_z20=   1.9326E+02
      Lambda_z30=   8.9204E+01
      Lambda_z40=   1.6167E+02
    
    LHE output: compare_to_reference/ZH_bb.lhe
    Histogram output: compare_to_reference/ZH_bb.dat
    Log file: compare_to_reference/ZH_bb.log
    
-->
<init>
2212 2212   6500.0000000000000000    6500.0000000000000000 0 0  263000  263000  3  1
 1.0000000E+00  1.0000000E+14  1.0000000E+00  50
</init>
<event>
 8  50   1.0000000E+00   1.2500000E+02   7.8125000E-03   1.2380861E-01
       -1   -1    0    0    0  503  0.00000000000E+00  0.00000000000E+00  3.28779810320E+03  3.28779810320E+03  0.00000000000E+00  0.00000000000E+00  1.
        1   -1    0    0  503    0  0.00000000000E+00  0.00000000000E+00 -3.96353877959E+03  3.96353877959E+03  0.00000000000E+00  0.00000000000E+00  1.
       23    2    1    2    0    0 -9.82414571869E+02 -3.43615310273E+03  1.61479169450E+02  3.57862007592E+03  9.03304446158E+01  0.00000000000E+00  1.
       25    2    1    2    0    0  9.82414571869E+02  3.43615310273E+03 -8.37219845840E+02  3.67271680687E+03  1.25000547192E+02  0.00000000000E+00  1.
       14    1    3    3    0    0 -4.83677561697E+02 -1.76539890423E+03  1.23099017863E+02  1.83459277305E+03  3.35855116534E-05  0.00000000000E+00  1.
      -14    1    3    3    0    0 -4.98737010172E+02 -1.67075419850E+03  3.83801515874E+01  1.74402730287E+03  4.20149331685E-05  0.00000000000E+00  1.
        5    1    4    4  501    0  8.75390303910E+01  2.38131849503E+02 -3.29013028349E+01  2.55836579319E+02  0.00000000000E+00  0.00000000000E+00  1.
       -5    1    4    4    0  501  8.94875541478E+02  3.19802125322E+03 -8.04318543005E+02  3.41688022755E+03  0.00000000000E+00  0.00000000000E+00  1.
</event>
<event>
 8  50   1.0000000E+00   1.2500000E+02   7.8125000E-03   1.2380861E-01
       -1   -1    0    0    0  503  0.00000000000E+00  0.00000000000E+00  4.22513706331E+03  4.22513706331E+03  0.00000000000E+00  0.00000000000E+00  1.
        1   -1    0    0  503    0  0.00000000000E+00  0.00000000000E+00 -1.96965401623E+03  1.96965401623E+03  0.00000000000E+00  0.00000000000E+00  1.
       23    2    1    2    0    0  1.29116751162E+03 -1.96912305113E+03 -6.58449662809E+02  2.44629938476E+03  7.91554663769E+01  0.00000000000E+00  1.
       25    2    1    2    0    0 -1.29116751162E+03  1.96912305113E+03  2.91393270989E+03  3.74849169478E+03  1.25008057794E+02  0.00000000000E+00  1.
        4    1    3    3  502    0  8.52863972152E+02 -1.33699580051E+03 -4.75797719347E+02  1.65569315422E+03  1.27499999992E+00  0.00000000000E+00  1.
       -4    1    3    3    0  502  4.38303539465E+02 -6.32127250623E+02 -1.82651943462E+02  7.90606230537E+02  1.27499999994E+00  0.00000000000E+00  1.
        5    1    4    4  501    0 -6.50826360071E+02  1.08885606870E+03  1.62076050206E+03  2.05816595404E+03  0.00000000000E+00  0.00000000000E+00  1.
       -5    1    4    4    0  501 -6.40341151546E+02  8.80266982430E+02  1.29317220782E+03  1.69032574074E+03  0.00000000000E+00  0.00000000000E+00  1.
</event>
<event>
 8  50   1.0000000E+00   1.2500000E+02   7.8125000E-03   1.2380861E-01
       -1   -1    0    0    0  503  0.00000000000E+00  0.00000000000E+00  3.52275210671E+03  3.52275210671E+03  0.00000000000E+00  0.00000000000E+00  1.
        1   -1    0    0  503    0  0.00000000000E+00  0.00000000000E+00 -2.23354392759E+03  2.23354392759E+03  0.00000000000E+00  0.00000000000E+00  1.
       23    2    1    2    0    0 -1.63572038691E+03 -2.27155004462E+03  7.92044685572E+02  2.91054173916E+03  9.16386493180E+01  0.00000000000E+00  1.
       25    2    1    2    0    0  1.63572038691E+03  2.27155004462E+03  4.97163493550E+02  2.84575429515E+03  1.25000718662E+02  0.00000000000E+00  1.
        4    1    3    3  502    0 -5.60115469905E+02 -7.06466533596E+02  2.64929810741E+02  9.39688104087E+02  1.27500000031E+00  0.00000000000E+00  1.
       -4    1    3    3    0  502 -1.07560491701E+03 -1.56508351102E+03  5.27114874831E+02  1.97085363507E+03  1.27500000015E+00  0.00000000000E+00  1.
        5    1    4    4  501    0  7.61273539194E+02  1.14195294172E+03  2.82302703380E+02  1.40117405732E+03  0.00000000000E+00  0.00000000000E+00  1.
       -5    1    4    4    0  501  8.74446847717E+02  1.12959710290E+03  2.14860790170E+02  1.44458023783E+03  0.00000000000E+00  0.00000000000E+00  1.
</event>
<event>
 8  50   1.0000000E+00   1.2500000E+02   7.8125000E-03   1.2380861E-01
        1   -1    0    0  503    0  0.00000000000E+00  0.00000000000E+00  5.52515628101E+03  5.52515628101E+03  0.00000000000E+00  0.00000000000E+00  1.
       -1   -1    0    0    0  503  0.00000000000E+00  0.00000000000E+00 -3.75292825515E+03  3.75292825515E+03  0.00000000000E+00  0.00000000000E+00  1.
       23    2    1    2    0    0  1.63691372063E+03  4.16949157995E+03  5.87529668195E+01  4.48060933275E+03  9.08928906251E+01  0.00000000000E+00  1.
       25    2    1    2    0    0 -1.63691372063E+03 -4.16949157995E+03  1.71347505904E+03  4.79747520341E+03  1.24999941483E+02  0.00000000000E+00  1.
        3    1    3    3  502    0  1.08429083239E+03  2.79102808702E+03  8.07159317627E+01  2.99533628386E+03  4.40152153007E-05  0.00000000000E+00  1.
       -3    1    3    3    0  502  5.52622888236E+02  1.37846349292E+03 -2.19629649432E+01  1.48527304889E+03  1.06317722744E-05  0.00000000000E+00  1.
        5    1    4    4  501    0 -1.02731066082E+03 -2.50120487057E+03  1.08144016075E+03  2.91219948144E+03  0.00000000000E+00  0.00000000000E+00  1.
       -5    1    4    4    0  501 -6.09603059802E+02 -1.66828670938E+03  6.32034898283E+02  1.88527572197E+03  0.00000000000E+00  0.00000000000E+00  1.
</event>
<event>
 8  50   1.0000000E+00   1.2500000E+02   7.8125000E-03   1.2380861E-01
        2   -1    0    0  503    0  0.00000000000E+00  0.00000000000E+00  3.41767999018E+03  3.41767999018E+03  0.00000000000E+00  0.00000000000E+00  1.
       -2   -1    0    0    0  503  0.00000000000E+00  0.00000000000E+00 -5.41512900675E+03  5.41512900675E+03  0.00000000000E+00  0.00000000000E+00  1.
       23    2    1    2    0    0 -1.06596857090E+03  4.12574095606E+03 -1.59468823917E+03  4.55076881495E+03  9.18629213822E+01  0.00000000000E+00  1.
       25    2    1    2    0    0  1.06596857090E+03 -4.12574095606E+03 -4.02760777393E+02  4.28204018198E+03  1.24997782556E+02  0.00000000000E+00  1.
        4    1    3    3  502    0 -9.37155117649E+02  3.49590016203E+03 -1.35471571702E+03  3.86456128907E+03  1.27500000148E+00  0.00000000000E+00  1.
       -4    1    3    3    0  502 -1.28813453253E+02  6.29840794031E+02 -2.39972522155E+02  6.86207525884E+02  1.27499999997E+00  0.00000000000E+00  1.
        5    1    4    4  501    0  3.41875227913E+02 -1.10128306614E+03 -1.09760655503E+02  1.15833952912E+03  0.00000000000E+00  0.00000000000E+00  1.
       -5    1    4    4    0  501  7.24093342989E+02 -3.02445788992E+03 -2.93000121890E+02  3.12370065286E+03  0.00000000000E+00  0.00000000000E+00  1.
</event>
<event>
 8  50   1.0000000E+00   1.2500000E+02   7.8125000E-03   1.2380861E-01
       -2   -1    0    0    0  503  0.00000000000E+00  0.00000000000E+00  2.12845008107E+03  2.12845008107E+03  0.00000000000E+00  0.00000000000E+00  1.
        2   -1    0    0  503    0  0.00000000000E+00  0.00000000000E+00 -5.46053517606E+03  5.46053517606E+03  0.00000000000E+00  0.00000000000E+00  1.
       23    2    1    2    0    0 -5.63198251069E+02  1.52046006469E+03 -5.00133519377E+03  5.25853224610E+03  9.90786784358E+01  0.00000000000E+00  1.
       25    2    1    2    0    0  5.63198251069E+02 -1.52046006469E+03  1.66925009878E+03  2.33045301103E+03  1.24997064008E+02  0.00000000000E+00  1.
        4    1    3    3  502    0 -5.19535798463E+02  1.40755095331E+03 -4.70447529872E+03  4.93793545867E+03  1.27500000003E+00  0.00000000000E+00  1.
       -4    1    3    3    0  502 -4.36624526059E+01  1.12909111384E+02 -2.96859895044E+02  3.20596787431E+02  1.27499999999E+00  0.00000000000E+00  1.
        5    1    4    4  501    0  3.42654672839E+02 -8.18632224314E+02  8.40649186394E+02  1.22240009739E+03  0.00000000000E+00  0.00000000000E+00  1.
       -5    1    4    4    0  501  2.20543578230E+02 -7.01827840379E+02  8.28600912388E+02  1.10805291365E+03  0.00000000000E+00  0.00000000000E+00  1.
</event>
<event>
 8  50   1.0000000E+00   1.2500000E+02   7.8125000E-03   1.2380861E-01
        2   -1    0    0  503    0  0.00000000000E+00  0.00000000000E+00  3.47826993559E+03  3.47826993559E+03  0.00000000000E+00  0.00000000000E+00  1.
       -2   -1    0    0    0  503  0.00000000000E+00  0.00000000000E+00 -1.38077932025E+03  1.38077932025E+03  0.00000000000E+00  0.00000000000E+00  1.
       23    2    1    2    0    0  1.28376544434E+03  8.49532775924E+02 -6.76654851520E+02  1.68394698169E+03  8.97551982331E+01  0.00000000000E+00  1.
       25    2    1    2    0    0 -1.28376544434E+03 -8.49532775924E+02  2.77414546686E+03  3.17510227415E+03  1.25026903418E+02  0.00000000000E+00  1.
       14    1    3    3    0    0  9.72587733572E+02  6.83346496282E+02 -5.02039303702E+02  1.29032274875E+03  2.66560074985E-05  0.00000000000E+00  1.
      -14    1    3    3    0    0  3.11177710765E+02  1.66186279643E+02 -1.74615547818E+02  3.93624232941E+02  8.42936970218E-06  0.00000000000E+00  1.
        5    1    4    4  501    0 -1.07227259174E+03 -7.20754919753E+02  2.22936260618E+03  2.57668659235E+03  0.00000000000E+00  0.00000000000E+00  1.
       -5    1    4    4    0  501 -2.11492852597E+02 -1.28777856171E+02  5.44782860671E+02  5.98415681797E+02  0.00000000000E+00  0.00000000000E+00  1.
</event>
<event>
 8  50   1.0000000E+00   1.2500000E+02   7.8125000E-03   1.2380861E-01
        2   -1    0    0  503    0  0.00000000000E+00  0.00000000000E+00  1.26196033125E+03  1.26196033125E+03  0.00000000000E+00  0.00000000000E+00  1.
       -2   -1    0    0    0  503  0.00000000000E+00  0.00000000000E+00 -1.37917106172E+03  1.37917106172E+03  0.00000000000E+00  0.00000000000E+00  1.
       23    2    1    2    0    0  1.29878860390E+03 -2.06664608869E+00 -2.63282664226E+02  1.32818913701E+03  8.89523115583E+01  0.00000000000E+00  1.
       25    2    1    2    0    0 -1.29878860390E+03  2.06664608869E+00  1.46071933755E+02  1.31294225597E+03  1.24996996088E+02  0.00000000000E+00  1.
        5    1    3    3  502    0  5.27743419347E+02  1.33964731717E+01 -6.52269452983E+01  5.31948962825E+02  4.75000000000E+00  0.00000000000E+00  1.
       -5    1    3    3    0  502  7.71045184554E+02 -1.54631192604E+01 -1.98055718928E+02  7.96240174182E+02  4.75000000000E+00  0.00000000000E+00  1.
        5    1    4    4  501    0 -7.73257906108E+02 -5.99711362705E+01  9.13124707663E+01  7.80936805293E+02  0.00000000000E+00  0.00000000000E+00  1.
       -5    1    4    4    0  501 -5.25530697794E+02  6.20377823592E+01  5.47594629885E+01  5.32005450677E+02  0.00000000000E+00  0.00000000000E+00  1.
</event>
<event>
 8  50   1.0000000E+00   1.2500000E+02   7.8125000E-03   1.2380861E-01
       -2   -1    0    0    0  503  0.00000000000E+00  0.00000000000E+00  4.61548148838E+03  4.61548148838E+03  0.00000000000E+00  0.00000000000E+00  1.
        2   -1    0    0  503    0  0.00000000000E+00  0.00000000000E+00 -2.68347613370E+03  2.68347613370E+03  0.00000000000E+00  0.00000000000E+00  1.
       23    2    1    2    0    0 -1.77601755560E+03 -2.58949067587E+03 -6.78284514031E+02  3.21374788566E+03  9.16802723307E+01  0.00000000000E+00  1.
       25    2    1    2    0    0  1.77601755560E+03  2.58949067587E+03  2.61028986871E+03  4.08520973643E+03  1.25000294520E+02  0.00000000000E+00  1.
       13    1    3    3    0    0 -4.68506633443E+02 -7.46281179567E+02 -1.69366493712E+02  8.97284283220E+02  1.05660000139E-01  0.00000000000E+00  1.
      -13    1    3    3    0    0 -1.30751092216E+03 -1.84320949631E+03 -5.08918020319E+02  2.31646360244E+03  1.05660003354E-01  0.00000000000E+00  1.
        5    1    4    4  501    0  1.27737907639E+03  1.80635378317E+03  1.77649140019E+03  2.83734611736E+03  0.00000000000E+00  0.00000000000E+00  1.
       -5    1    4    4    0  501  4.98638479212E+02  7.83136892709E+02  8.33798468520E+02  1.24786361906E+03  0.00000000000E+00  0.00000000000E+00  1.
</event>
<event>
 8  50   1.0000000E+00   1.2500000E+02   7.8125000E-03   1.2380861E-01
       -2   -1    0    0    0  503  0.00000000000E+00  0.00000000000E+00  5.35325985426E+03  5.35325985426E+03  0.00000000000E+00  0.00000000000E+00  1.
        2   -1    0    0  503    0  0.00000000000E+00  0.00000000000E+00 -2.15012977220E+03  2.15012977220E+03  0.00000000000E+00  0.00000000000E+00  1.
       23    2    1    2    0    0 -1.97729168137E+03  1.87250904306E+03  3.83556837986E+03  4.70489411023E+03  9.20395694661E+01  0.00000000000E+00  1.
       25    2    1    2    0    0  1.97729168137E+03 -1.87250904306E+03 -6.32438297794E+02  2.79849551623E+03  1.25005776962E+02  0.00000000000E+00  1.
        4    1    3    3  502    0 -3.30130170140E+02  2.99487270750E+02  5.72705843968E+02  7.25721822683E+02  1.27499999990E+00  0.00000000000E+00  1.
       -4    1    3    3    0  502 -1.64716151123E+03  1.57302177231E+03  3.26286253589E+03  3.97917228755E+03  1.27500000093E+00  0.00000000000E+00  1.
        5    1    4    4  501    0  1.19796963682E+03 -1.21323258115E+03 -3.75284497272E+02  1.74582444724E+03  0.00000000000E+00  0.00000000000E+00  1.
       -5    1    4    4    0  501  7.79322044552E+02 -6.59276461915E+02 -2.57153800522E+02  1.05267106899E+03  0.00000000000E+00  0.00000000000E+00  1.
</event>
<event>
 8  50   1.0000000E+00   1.2500000E+02   7.8125000E-03   1.2380861E-01
       -2   -1    0    0    0  503  0.00000000000E+00  0.00000000000E+00  1.59131816041E+03  1.59131816041E+03  0.00000000000E+00  0.00000000000E+00  1.
        2   -1    0    0  503    0  0.00000000000E+00  0.00000000000E+00 -2.83879364092E+03  2.83879364092E+03  0.00000000000E+00  0.00000000000E+00  1.
       23    2    1    2    0    0  1.50180329241E+03 -1.30274341789E+03 -1.39835339838E+03  2.43237678318E+03  9.22553339837E+01  0.00000000000E+00  1.
       25    2    1    2    0    0 -1.50180329241E+03  1.30274341789E+03  1.50877917879E+02  1.99773501815E+03  1.25010058298E+02  0.00000000000E+00  1.
        4    1    3    3  502    0  4.67291197457E+02 -4.14238197044E+02 -3.88084537878E+02  7.35231651437E+02  1.27499999992E+00  0.00000000000E+00  1.
       -4    1    3    3    0  502  1.03451209495E+03 -8.88505220843E+02 -1.01026886050E+03  1.69714513174E+03  1.27500000026E+00  0.00000000000E+00  1.
        5    1    4    4  501    0 -1.35706452236E+03  1.16585035756E+03  9.87645842417E+01  1.79181070908E+03  0.00000000000E+00  0.00000000000E+00  1.
       -5    1    4    4    0  501 -1.44738770054E+02  1.36893060323E+02  5.21133336371E+01  2.05924309066E+02  0.00000000000E+00  0.00000000000E+00  1.
</event>
<event>
 8  50   1.0000000E+00   1.2500000E+02   7.8125000E-03   1.2380861E-01
        2   -1    0    0  503    0  0.00000000000E+00  0.00000000000E+00  2.70100908394E+03  2.70100908394E+03  0.00000000000E+00  0.00000000000E+00  1.
       -2   -1    0    0    0  503  0.00000000000E+00  0.00000000000E+00 -4.81004682345E+03  4.81004682345E+03  0.00000000000E+00  0.00000000000E+00  1.
       23    2    1    2    0    0  4.14498473079E+02 -3.57797575778E+03 -9.68509106957E+02  3.73082439272E+03  8.55643126903E+01  0.00000000000E+00  1.
       25    2    1    2    0    0 -4.14498473079E+02  3.57797575778E+03 -1.14052863256E+03  3.78023151467E+03  1.25000941706E+02  0.00000000000E+00  1.
        2    1    3    3  502    0  3.34189779930E+02 -2.67452778915E+03 -6.95396716651E+02  2.78358730732E+03  5.59141130426E-05  0.00000000000E+00  1.
       -2    1    3    3    0  502  8.03086931488E+01 -9.03447968623E+02 -2.73112390307E+02  9.47237085392E+02  1.63234042378E-05  0.00000000000E+00  1.
        5    1    4    4  501    0 -1.31707662850E+02  1.67010802822E+03 -5.41752834955E+02  1.76071118261E+03  0.00000000000E+00  0.00000000000E+00  1.
       -5    1    4    4    0  501 -2.82790810229E+02  1.90786772955E+03 -5.98775797606E+02  2.01952033206E+03  0.00000000000E+00  0.00000000000E+00  1.
</event>
<event>
 8  50   1.0000000E+00   1.2500000E+02   7.8125000E-03   1.2380861E-01
        2   -1    0    0  503    0  0.00000000000E+00  0.00000000000E+00  1.40097561428E+03  1.40097561428E+03  0.00000000000E+00  0.00000000000E+00  1.
       -2   -1    0    0    0  503  0.00000000000E+00  0.00000000000E+00 -1.68085064211E+03  1.68085064211E+03  0.00000000000E+00  0.00000000000E+00  1.
       23    2    1    2    0    0  7.74960386157E+02  1.31031980478E+03 -2.99752411174E+02  1.55423922607E+03  9.11398538259E+01  0.00000000000E+00  1.
       25    2    1    2    0    0 -7.74960386157E+02 -1.31031980478E+03  1.98773833466E+01  1.52758703031E+03  1.25001735592E+02  0.00000000000E+00  1.
        5    1    3    3  502    0  4.64994932200E+02  7.72718549808E+02 -1.32627412638E+02  9.11551884026E+02  4.75000000003E+00  0.00000000000E+00  1.
       -5    1    3    3    0  502  3.09965453956E+02  5.37601254970E+02 -1.67124998536E+02  6.42687342047E+02  4.75000000001E+00  0.00000000000E+00  1.
        5    1    4    4  501    0 -1.31724831891E+02 -2.63771908627E+02 -4.09408982324E+01  2.97662910463E+02  0.00000000000E+00  0.00000000000E+00  1.
       -5    1    4    4    0  501 -6.43235554266E+02 -1.04654789615E+03  6.08182815790E+01  1.22992411985E+03  0.00000000000E+00  0.00000000000E+00  1.
</event>
<event>
 8  50   1.0000000E+00   1.2500000E+02   7.8125000E-03   1.2380861E-01
       -1   -1    0    0    0  503  0.00000000000E+00  0.00000000000E+00  1.40163414873E+03  1.40163414873E+03  0.00000000000E+00  0.00000000000E+00  1.
        1   -1    0    0  503    0  0.00000000000E+00  0.00000000000E+00 -5.46436015459E+03  5.46436015459E+03  0.00000000000E+00  0.00000000000E+00  1.
       23    2    1    2    0    0 -6.12115112143E+02 -2.52037274926E+03 -8.40884824717E+02  2.72801815220E+03  8.96216746985E+01  0.00000000000E+00  1.
       25    2    1    2    0    0  6.12115112143E+02  2.52037274926E+03 -3.22184118114E+03  4.13797615112E+03  1.24989299573E+02  0.00000000000E+00  1.
       14    1    3    3    0    0 -6.01791357655E-01 -3.38811483492E+01 -1.85251208133E+01  3.86196124715E+01  2.64731615848E-06  0.00000000000E+00  1.
      -14    1    3    3    0    0 -6.11513320786E+02 -2.48649160091E+03 -8.22359703904E+02  2.68939853973E+03  4.76837158203E-05  0.00000000000E+00  1.
        5    1    4    4  501    0  2.92952366335E+02  1.33884264932E+03 -1.78783194218E+03  2.25270144095E+03  0.00000000000E+00  0.00000000000E+00  1.
       -5    1    4    4    0  501  3.19162745808E+02  1.18153009994E+03 -1.43400923895E+03  1.88527471017E+03  0.00000000000E+00  0.00000000000E+00  1.
</event>
<event>
 8  50   1.0000000E+00   1.2500000E+02   7.8125000E-03   1.2380861E-01
        2   -1    0    0  503    0  0.00000000000E+00  0.00000000000E+00  4.40552787592E+03  4.40552787592E+03  0.00000000000E+00  0.00000000000E+00  1.
       -2   -1    0    0    0  503  0.00000000000E+00  0.00000000000E+00 -1.80889759112E+03  1.80889759112E+03  0.00000000000E+00  0.00000000000E+00  1.
       23    2    1    2    0    0 -2.15970518194E+03 -4.37173155245E+02 -6.40519175650E+02  2.29649146103E+03  9.03403322992E+01  0.00000000000E+00  1.
       25    2    1    2    0    0  2.15970518194E+03  4.37173155245E+02  3.23714946045E+03  3.91793400601E+03  1.24993622020E+02  0.00000000000E+00  1.
        1    1    3    3  502    0 -1.21321203501E+02 -4.18512261031E+01 -2.43079095605E+01  1.30618658745E+02  4.25564484998E-06  0.00000000000E+00  1.
       -1    1    3    3    0  502 -2.03838397844E+03 -3.95321929142E+02 -6.16211266089E+02  2.16587280228E+03  2.06476546236E-05  0.00000000000E+00  1.
        5    1    4    4  501    0  3.14173103193E+02  4.04380364303E+01  5.34524476765E+02  6.21334362338E+02  0.00000000000E+00  0.00000000000E+00  1.
       -5    1    4    4    0  501  1.84553207875E+03  3.96735118815E+02  2.70262498369E+03  3.29659964367E+03  0.00000000000E+00  0.00000000000E+00  1.
</event>
<event>
 8  50   1.0000000E+00   1.2500000E+02   7.8125000E-03   1.2380861E-01
       -1   -1    0    0    0  503  0.00000000000E+00  0.00000000000E+00  4.28543162091E+03  4.28543162091E+03  0.00000000000E+00  0.00000000000E+00  1.
        1   -1    0    0  503    0  0.00000000000E+00  0.00000000000E+00 -2.82110631661E+03  2.82110631661E+03  0.00000000000E+00  0.00000000000E+00  1.
       23    2    1    2    0    0  9.53018771710E+02 -3.22253748490E+03  1.63747239873E+03  3.73925443938E+03  8.78366948121E+01  0.00000000000E+00  1.
       25    2    1    2    0    0 -9.53018771710E+02  3.22253748490E+03 -1.73147094425E+02  3.36728349814E+03  1.25002478755E+02  0.00000000000E+00  1.
        5    1    3    3  502    0  4.54563610119E+02 -1.42808802208E+03  7.64066174467E+02  1.68222565547E+03  4.74999999996E+00  0.00000000000E+00  1.
       -5    1    3    3    0  502  4.98455161591E+02 -1.79444946282E+03  8.73406224264E+02  2.05702878391E+03  4.75000000003E+00  0.00000000000E+00  1.
        5    1    4    4  501    0 -8.72519521707E+02  2.98657812868E+03 -1.29013267333E+02  3.11409435593E+03  0.00000000000E+00  0.00000000000E+00  1.
       -5    1    4    4    0  501 -8.04992500031E+01  2.35959356223E+02 -4.41338270915E+01  2.53189142212E+02  0.00000000000E+00  0.00000000000E+00  1.
</event>
<event>
 8  50   1.0000000E+00   1.2500000E+02   7.8125000E-03   1.2380861E-01
        2   -1    0    0  503    0  0.00000000000E+00  0.00000000000E+00  4.21344067593E+03  4.21344067593E+03  0.00000000000E+00  0.00000000000E+00  1.
       -2   -1    0    0    0  503  0.00000000000E+00  0.00000000000E+00 -1.50894633086E+03  1.50894633086E+03  0.00000000000E+00  0.00000000000E+00  1.
       23    2    1    2    0    0 -1.83234848135E+03 -1.56963122725E+03  2.16718112293E+03  3.24739720585E+03  1.66347366293E+02  0.00000000000E+00  1.
       25    2    1    2    0    0  1.83234848135E+03  1.56963122725E+03  5.37313222152E+02  2.47498980095E+03  1.25003477539E+02  0.00000000000E+00  1.
        5    1    3    3  502    0 -1.81194299218E+03 -1.52570892491E+03  2.13613420540E+03  3.18967349998E+03  4.75000000002E+00  0.00000000000E+00  1.
       -5    1    3    3    0  502 -2.04054891737E+01 -4.39223023405E+01  3.10469175235E+01  5.77237058670E+01  4.75000000000E+00  0.00000000000E+00  1.
        5    1    4    4  501    0  7.17818900128E+02  5.44860257415E+02  1.71098651094E+02  9.17284809586E+02  0.00000000000E+00  0.00000000000E+00  1.
       -5    1    4    4    0  501  1.11452958123E+03  1.02477096984E+03  3.66214571058E+02  1.55770499136E+03  0.00000000000E+00  0.00000000000E+00  1.
</event>
<event>
 8  50   1.0000000E+00   1.2500000E+02   7.8125000E-03   1.2380861E-01
       -1   -1    0    0    0  503  0.00000000000E+00  0.00000000000E+00  5.89917224176E+03  5.89917224176E+03  0.00000000000E+00  0.00000000000E+00  1.
        1   -1    0    0  503    0  0.00000000000E+00  0.00000000000E+00 -4.01780006875E+03  4.01780006875E+03  0.00000000000E+00  0.00000000000E+00  1.
       23    2    1    2    0    0  4.76205837366E+03 -4.08802806550E+02  4.10969850170E+00  4.78043063541E+03  9.04460146179E+01  0.00000000000E+00  1.
       25    2    1    2    0    0 -4.76205837366E+03  4.08802806550E+02  1.87726247450E+03  5.13654167510E+03  1.25005172401E+02  0.00000000000E+00  1.
        3    1    3    3  502    0  2.64694887572E+03 -2.45972482191E+02 -3.85871563254E+01  2.65863306632E+03  6.24339093719E-05  0.00000000000E+00  1.
       -3    1    3    3    0  502  2.11510949794E+03 -1.62830324359E+02  4.26968548271E+01  2.12179756909E+03  3.23993189710E-05  0.00000000000E+00  1.
        5    1    4    4  501    0 -3.35371402174E+03  3.00599930448E+02  1.26248630493E+03  3.59605752567E+03  0.00000000000E+00  0.00000000000E+00  1.
       -5    1    4    4    0  501 -1.40834435191E+03  1.08202876102E+02  6.14776169577E+02  1.54048414943E+03  0.00000000000E+00  0.00000000000E+00  1.
</event>
<event>
 8  50   1.0000000E+00   1.2500000E+02   7.8125000E-03   1.2380861E-01
       -2   -1    0    0    0  503  0.00000000000E+00  0.00000000000E+00  3.64250984636E+03  3.64250984636E+03  0.00000000000E+00  0.00000000000E+00  1.
        2   -1    0    0  503    0  0.00000000000E+00  0.00000000000E+00 -3.47380276408E+03  3.47380276408E+03  0.00000000000E+00  0.00000000000E+00  1.
       23    2    1    2    0    0 -2.01279182584E+03 -9.81325872290E+02 -2.67811806075E+03  3.49217552533E+03  9.29631679539E+01  0.00000000000E+00  1.
       25    2    1    2    0    0  2.01279182584E+03  9.81325872290E+02  2.84682514303E+03  3.62413708511E+03  1.24999259445E+02  0.00000000000E+00  1.
        2    1    3    3  502    0 -1.09138497710E+03 -5.57235321199E+02 -1.52802365294E+03  1.95869565154E+03  3.37174788087E-05  0.00000000000E+00  1.
       -2    1    3    3    0  502 -9.21406848734E+02 -4.24090551090E+02 -1.15009440782E+03  1.53347987379E+03  1.68587394044E-05  0.00000000000E+00  1.
        5    1    4    4  501    0  1.99444654946E+03  9.84335469499E+02  2.82119855549E+03  3.59247750788E+03  0.00000000000E+00  0.00000000000E+00  1.
       -5    1    4    4    0  501  1.83452763826E+01 -3.00959720906E+00  2.56265875483E+01  3.16595772286E+01  0.00000000000E+00  0.00000000000E+00  1.
</event>
<event>
 8  50   1.0000000E+00   1.2500000E+02   7.8125000E-03   1.2380861E-01
       -1   -1    0    0    0  503  0.00000000000E+00  0.00000000000E+00  4.14995816096E+03  4.14995816096E+03  0.00000000000E+00  0.00000000000E+00  1.
        1   -1    0    0  503    0  0.00000000000E+00  0.00000000000E+00 -1.20733806954E+03  1.20733806954E+03  0.00000000000E+00  0.00000000000E+00  1.
       23    2    1    2    0    0  7.75728392233E+02 -7.84169965060E+02 -8.56098535238E+02  1.39970011391E+03  9.78704971565E+01  0.00000000000E+00  1.
       25    2    1    2    0    0 -7.75728392233E+02  7.84169965060E+02  3.79871862666E+03  3.95759611659E+03  1.25006979430E+02  0.00000000000E+00  1.
        5    1    3    3  502    0  4.27277217038E+02 -3.98638663446E+02 -5.06844209096E+02  7.73558154884E+02  4.74999999998E+00  0.00000000000E+00  1.
       -5    1    3    3    0  502  3.48451175194E+02 -3.85531301614E+02 -3.49254326142E+02  6.26141959021E+02  4.75000000002E+00  0.00000000000E+00  1.
        5    1    4    4  501    0 -4.49812327469E+02  5.36012073703E+02  2.32707986553E+03  2.43000838962E+03  0.00000000000E+00  0.00000000000E+00  1.
       -5    1    4    4    0  501 -3.25916064764E+02  2.48157891357E+02  1.47163876114E+03  1.52758772697E+03  0.00000000000E+00  0.00000000000E+00  1.
</event>
<event>
 8  50   1.0000000E+00   1.2500000E+02   7.8125000E-03   1.2380861E-01
       -2   -1    0    0    0  503  0.00000000000E+00  0.00000000000E+00  7.05286059347E+02  7.05286059347E+02  0.00000000000E+00  0.00000000000E+00  1.
        2   -1    0    0  503    0  0.00000000000E+00  0.00000000000E+00 -4.22442272169E+03  4.22442272169E+03  0.00000000000E+00  0.00000000000E+00  1.
       23    2    1    2    0    0  2.11193874664E+02  1.70493896442E+03 -1.57448936418E+03  2.33188325369E+03  8.51059681468E+01  0.00000000000E+00  1.
       25    2    1    2    0    0 -2.11193874664E+02 -1.70493896442E+03 -1.94464729816E+03  2.59782552735E+03  1.24998524900E+02  0.00000000000E+00  1.
       14    1    3    3    0    0  1.21773636126E+01  9.24038320173E+01 -1.13373506013E+02  1.46766168519E+02  0.00000000000E+00  0.00000000000E+00  1.
      -14    1    3    3    0    0  1.99016511051E+02  1.61253513240E+03 -1.46111585817E+03  2.18511708517E+03  4.12953092472E-05  0.00000000000E+00  1.
        5    1    4    4  501    0  1.52591828111E+01 -1.97863003352E+02 -2.31377462170E+02  3.04824770575E+02  0.00000000000E+00  0.00000000000E+00  1.
       -5    1    4    4    0  501 -2.26453057475E+02 -1.50707596107E+03 -1.71326983599E+03  2.29300075678E+03  0.00000000000E+00  0.00000000000E+00  1.
</event>
<event>
 8  50   1.0000000E+00   1.2500000E+02   7.8125000E-03   1.2380861E-01
        2   -1    0    0  503    0  0.00000000000E+00  0.00000000000E+00  2.06607186120E+03  2.06607186120E+03  0.00000000000E+00  0.00000000000E+00  1.
       -2   -1    0    0    0  503  0.00000000000E+00  0.00000000000E+00 -1.29644554364E+03  1.29644554364E+03  0.00000000000E+00  0.00000000000E+00  1.
       23    2    1    2    0    0  1.13305706328E+03  2.16291779828E+02  1.57177444426E+03  1.95196170687E+03  9.52846198303E+01  0.00000000000E+00  1.
       25    2    1    2    0    0 -1.13305706328E+03 -2.16291779828E+02 -8.02148126697E+02  1.41055569797E+03  1.25001268909E+02  0.00000000000E+00  1.
        5    1    3    3  502    0  1.08147271377E+03  1.94095153401E+02  1.51911603970E+03  1.87483126275E+03  4.74999999996E+00  0.00000000000E+00  1.
       -5    1    3    3    0  502  5.15843495149E+01  2.21966264275E+01  5.26584045589E+01  7.71304441211E+01  4.75000000000E+00  0.00000000000E+00  1.
        5    1    4    4  501    0 -5.88831067914E+02 -5.16703441013E+01 -3.86238013114E+02  7.06096065542E+02  0.00000000000E+00  0.00000000000E+00  1.
       -5    1    4    4    0  501 -5.44225995371E+02 -1.64621435727E+02 -4.15910113583E+02  7.04459632427E+02  0.00000000000E+00  0.00000000000E+00  1.
</event>
<event>
 8  50   1.0000000E+00   1.2500000E+02   7.8125000E-03   1.2380861E-01
        2   -1    0    0  503    0  0.00000000000E+00  0.00000000000E+00  1.01009799828E+03  1.01009799828E+03  0.00000000000E+00  0.00000000000E+00  1.
       -2   -1    0    0    0  503  0.00000000000E+00  0.00000000000E+00 -3.69270620538E+03  3.69270620538E+03  0.00000000000E+00  0.00000000000E+00  1.
       23    2    1    2    0    0 -3.51946765219E+02 -9.68102586642E+02  6.43897409992E+02  1.21821627639E+03  9.14214289190E+01  0.00000000000E+00  1.
       25    2    1    2    0    0  3.51946765219E+02  9.68102586642E+02 -3.32650561709E+03  3.48458792727E+03  1.24997034047E+02  0.00000000000E+00  1.
        5    1    3    3  502    0 -2.94849369779E+02 -8.71046755101E+02  5.50080820180E+02  1.07157364267E+03  4.74999999999E+00  0.00000000000E+00  1.
       -5    1    3    3    0  502 -5.70973954394E+01 -9.70558315415E+01  9.38165898116E+01  1.46642633726E+02  4.74999999999E+00  0.00000000000E+00  1.
        5    1    4    4  501    0  1.39015580211E+02  2.34649991923E+02 -8.04116846614E+02  8.49111213716E+02  0.00000000000E+00  0.00000000000E+00  1.
       -5    1    4    4    0  501  2.12931185008E+02  7.33452594720E+02 -2.52238877048E+03  2.63547671355E+03  0.00000000000E+00  0.00000000000E+00  1.
</event>
<event>
 8  50   1.0000000E+00   1.2500000E+02   7.8125000E-03   1.2380861E-01
        2   -1    0    0  503    0  0.00000000000E+00  0.00000000000E+00  1.70183812851E+03  1.70183812851E+03  0.00000000000E+00  0.00000000000E+00  1.
       -2   -1    0    0    0  503  0.00000000000E+00  0.00000000000E+00 -3.71829325484E+03  3.71829325484E+03  0.00000000000E+00  0.00000000000E+00  1.
       23    2    1    2    0    0  2.44669289407E+03 -4.01412269599E+02 -1.44972509680E+03  2.87371603747E+03  9.54100602855E+01  0.00000000000E+00  1.
       25    2    1    2    0    0 -2.44669289407E+03  4.01412269599E+02 -5.66730029529E+02  2.54641534588E+03  1.24941023227E+02  0.00000000000E+00  1.
        5    1    3    3  502    0  1.43512697467E+03 -2.64127087902E+02 -8.95918757994E+02  1.71232167989E+03  4.75000000006E+00  0.00000000000E+00  1.
       -5    1    3    3    0  502  1.01156591940E+03 -1.37285181696E+02 -5.53806338805E+02  1.16139435758E+03  4.75000000005E+00  0.00000000000E+00  1.
        5    1    4    4  501    0 -1.69753961385E+02  7.14800830726E+00 -6.38713192889E+01  1.81513214000E+02  0.00000000000E+00  0.00000000000E+00  1.
       -5    1    4    4    0  501 -2.27693893269E+03  3.94264261291E+02 -5.02858710240E+02  2.36490213188E+03  0.00000000000E+00  0.00000000000E+00  1.
</event>
<event>
 8  50   1.0000000E+00   1.2500000E+02   7.8125000E-03   1.2380861E-01
       -2   -1    0    0    0  503  0.00000000000E+00  0.00000000000E+00  1.94337794276E+03  1.94337794276E+03  0.00000000000E+00  0.00000000000E+00  1.
        2   -1    0    0  503    0  0.00000000000E+00  0.00000000000E+00 -3.84986505754E+03  3.84986505754E+03  0.00000000000E+00  0.00000000000E+00  1.
       23    2    1    2    0    0 -1.74381867479E+03 -1.72926744011E+03 -2.22309100658E+03  3.31389218141E+03  9.20777743370E+01  0.00000000000E+00  1.
       25    2    1    2    0    0  1.74381867479E+03  1.72926744011E+03  3.16603891800E+02  2.47935081889E+03  1.25191888167E+02  0.00000000000E+00  1.
       11    1    3    3    0    0 -1.34352840420E+03 -1.37909711245E+03 -1.76636049916E+03  2.61285415426E+03  5.11906398620E-04  0.00000000000E+00  1.
      -11    1    3    3    0    0 -4.00290270585E+02 -3.50170327663E+02 -4.56730507425E+02  7.01038027152E+02  5.11038141951E-04  0.00000000000E+00  1.
        5    1    4    4  501    0  8.78118378023E+02  7.94482484855E+02  1.21000392403E+02  1.19035095645E+03  0.00000000000E+00  0.00000000000E+00  1.
       -5    1    4    4    0  501  8.65700296765E+02  9.34784955253E+02  1.95603499397E+02  1.28899986244E+03  0.00000000000E+00  0.00000000000E+00  1.
</event>
<event>
 8  50   1.0000000E+00   1.2500000E+02   7.8125000E-03   1.2380861E-01
       -2   -1    0    0    0  503  0.00000000000E+00  0.00000000000E+00  1.81645104776E+03  1.81645104776E+03  0.00000000000E+00  0.00000000000E+00  1.
        2   -1    0    0  503    0  0.00000000000E+00  0.00000000000E+00 -5.29909554305E+03  5.29909554305E+03  0.00000000000E+00  0.00000000000E+00  1.
       23    2    1    2    0    0 -2.44384033245E+03  5.95170825797E+02  3.38061274276E+02  2.53952234207E+03  9.11285813755E+01  0.00000000000E+00  1.
       25    2    1    2    0    0  2.44384033245E+03 -5.95170825797E+02 -3.82070576957E+03  4.57602424873E+03  1.24985859085E+02  0.00000000000E+00  1.
       12    1    3    3    0    0 -7.59112444516E+02  2.09798557783E+02  7.09400210818E+01  7.90758891735E+02  1.77880173718E-05  0.00000000000E+00  1.
      -12    1    3    3    0    0 -1.68472788793E+03  3.85372268014E+02  2.67121253194E+02  1.74876345034E+03  3.74609383642E-05  0.00000000000E+00  1.
        5    1    4    4  501    0  9.16755508220E+02 -1.78555936809E+02 -1.49460358201E+03  1.76243092113E+03  0.00000000000E+00  0.00000000000E+00  1.
       -5    1    4    4    0  501  1.52708482423E+03 -4.16614888989E+02 -2.32610218757E+03  2.81359332760E+03  0.00000000000E+00  0.00000000000E+00  1.
</event>
<event>
 8  50   1.0000000E+00   1.2500000E+02   7.8125000E-03   1.2380861E-01
        2   -1    0    0  503    0  0.00000000000E+00  0.00000000000E+00  2.36161581882E+03  2.36161581882E+03  0.00000000000E+00  0.00000000000E+00  1.
       -2   -1    0    0    0  503  0.00000000000E+00  0.00000000000E+00 -1.91239588448E+03  1.91239588448E+03  0.00000000000E+00  0.00000000000E+00  1.
       23    2    1    2    0    0 -3.59071370444E+02 -2.52441967784E+01 -1.87872306957E+03  1.91508976549E+03  9.16456174147E+01  0.00000000000E+00  1.
       25    2    1    2    0    0  3.59071370444E+02  2.52441967784E+01  2.32794300391E+03  2.35892193781E+03  1.24998242693E+02  0.00000000000E+00  1.
        5    1    3    3  502    0 -2.76116231857E+02  9.58121157875E+00 -1.53976060136E+03  1.56435841325E+03  4.75000000008E+00  0.00000000000E+00  1.
       -5    1    3    3    0  502 -8.29551385872E+01 -3.48254083572E+01 -3.38962468210E+02  3.50731352234E+02  4.75000000000E+00  0.00000000000E+00  1.
        5    1    4    4  501    0  3.06779684716E+02  3.29117339721E+01  2.18195851252E+03  2.20366510785E+03  0.00000000000E+00  0.00000000000E+00  1.
       -5    1    4    4    0  501  5.22916857280E+01 -7.66753719369E+00  1.45984491384E+02  1.55256829955E+02  0.00000000000E+00  0.00000000000E+00  1.
</event>
<event>
 8  50   1.0000000E+00   1.2500000E+02   7.8125000E-03   1.2380861E-01
       -1   -1    0    0    0  503  0.00000000000E+00  0.00000000000E+00  1.60356640065E+03  1.60356640065E+03  0.00000000000E+00  0.00000000000E+00  1.
        1   -1    0    0  503    0  0.00000000000E+00  0.00000000000E+00 -4.60823055993E+03  4.60823055993E+03  0.00000000000E+00  0.00000000000E+00  1.
       23    2    1    2    0    0  9.71798886875E+01  3.33513166463E+02  1.57596726271E+03  1.61631171876E+03  9.00877133557E+01  0.00000000000E+00  1.
       25    2    1    2    0    0 -9.71798886875E+01 -3.33513166463E+02 -4.58063142198E+03  4.59548524182E+03  1.25001683398E+02  0.00000000000E+00  1.
       13    1    3    3    0    0  5.94120986878E+01  1.08559108641E+02  4.11168681199E+02  4.29388603834E+02  1.05659999991E-01  0.00000000000E+00  1.
      -13    1    3    3    0    0  3.77677899998E+01  2.24954057823E+02  1.16479858151E+03  1.18692311492E+03  1.05659996965E-01  0.00000000000E+00  1.
        5    1    4    4  501    0 -6.27406524720E+01 -2.38810293948E+02 -2.43451633206E+03  2.44700562260E+03  0.00000000000E+00  0.00000000000E+00  1.
       -5    1    4    4    0  501 -3.44392362156E+01 -9.47028725159E+01 -2.14611508992E+03  2.14847961922E+03  0.00000000000E+00  0.00000000000E+00  1.
</event>
<event>
 8  50   1.0000000E+00   1.2500000E+02   7.8125000E-03   1.2380861E-01
       -1   -1    0    0    0  503  0.00000000000E+00  0.00000000000E+00  1.40035137299E+03  1.40035137299E+03  0.00000000000E+00  0.00000000000E+00  1.
        1   -1    0    0  503    0  0.00000000000E+00  0.00000000000E+00 -2.98051582025E+03  2.98051582025E+03  0.00000000000E+00  0.00000000000E+00  1.
       23    2    1    2    0    0 -1.41924531485E+03 -7.26385079766E+02 -2.15438260992E+03  2.68167760452E+03  9.02097380961E+01  0.00000000000E+00  1.
       25    2    1    2    0    0  1.41924531485E+03  7.26385079766E+02  5.74218162656E+02  1.69918958872E+03  1.25004848986E+02  0.00000000000E+00  1.
        4    1    3    3  502    0 -6.22362000379E+00 -2.40679675381E+00 -2.02319287670E+00  7.08837435397E+00  1.27500000000E+00  0.00000000000E+00  1.
       -4    1    3    3    0  502 -1.41302169484E+03 -7.23978283012E+02 -2.15235941704E+03  2.67458923017E+03  1.27499999981E+00  0.00000000000E+00  1.
        5    1    4    4  501    0  3.31798214219E+02  2.03364413897E+02  1.88069824303E+02  4.32223783025E+02  0.00000000000E+00  0.00000000000E+00  1.
       -5    1    4    4    0  501  1.08744710063E+03  5.23020665869E+02  3.86148338353E+02  1.26696580570E+03  0.00000000000E+00  0.00000000000E+00  1.
</event>
<event>
 8  50   1.0000000E+00   1.2500000E+02   7.8125000E-03   1.2380861E-01
        2   -1    0    0  503    0  0.00000000000E+00  0.00000000000E+00  3.11825320836E+03  3.11825320836E+03  0.00000000000E+00  0.00000000000E+00  1.
       -2   -1    0    0    0  503  0.00000000000E+00  0.00000000000E+00 -1.07562102940E+03  1.07562102940E+03  0.00000000000E+00  0.00000000000E+00  1.
       23    2    1    2    0    0  6.53331157205E+02 -1.15270783032E+03  2.46294605163E+03  2.79821689159E+03  9.13103286786E+01  0.00000000000E+00  1.
       25    2    1    2    0    0 -6.53331157205E+02  1.15270783032E+03 -4.20313872665E+02  1.39565734617E+03  1.24974930677E+02  0.00000000000E+00  1.
        4    1    3    3  502    0  1.98892027633E+02 -2.72303784237E+02  6.07513351908E+02  6.94824789380E+02  1.27499999998E+00  0.00000000000E+00  1.
       -4    1    3    3    0  502  4.54439129572E+02 -8.80404046083E+02  1.85543269972E+03  2.10339210221E+03  1.27500000003E+00  0.00000000000E+00  1.
        5    1    4    4  501    0 -6.50289278088E+02  1.15276883468E+03 -4.24974195649E+02  1.39009179494E+03  0.00000000000E+00  0.00000000000E+00  1.
       -5    1    4    4    0  501 -3.04187911682E+00 -6.10043591950E-02  4.66032298380E+00  5.56555122216E+00  0.00000000000E+00  0.00000000000E+00  1.
</event>
<event>
 8  50   1.0000000E+00   1.2500000E+02   7.8125000E-03   1.2380861E-01
       -2   -1    0    0    0  503  0.00000000000E+00  0.00000000000E+00  2.48716879297E+03  2.48716879297E+03  0.00000000000E+00  0.00000000000E+00  1.
        2   -1    0    0  503    0  0.00000000000E+00  0.00000000000E+00 -3.88967098223E+03  3.88967098223E+03  0.00000000000E+00  0.00000000000E+00  1.
       23    2    1    2    0    0 -2.01032366451E+03  1.23990565340E+03 -2.77254374465E+03  3.64345237753E+03  9.47583550446E+01  0.00000000000E+00  1.
       25    2    1    2    0    0  2.01032366451E+03 -1.23990565340E+03  1.37004155540E+03  2.73338739767E+03  1.25002147068E+02  0.00000000000E+00  1.
       13    1    3    3    0    0 -1.16028596421E+02  5.34131814816E+01 -1.27944514273E+02  1.80791075665E+02  1.05659999750E-01  0.00000000000E+00  1.
      -13    1    3    3    0    0 -1.89429506809E+03  1.18649247192E+03 -2.64459923038E+03  3.46266130186E+03  1.05659991585E-01  0.00000000000E+00  1.
        5    1    4    4  501    0  8.49179849811E+02 -5.29002440040E+02  6.51806464449E+02  1.19406937235E+03  0.00000000000E+00  0.00000000000E+00  1.
       -5    1    4    4    0  501  1.16114381470E+03 -7.10903213365E+02  7.18235090954E+02  1.53931802532E+03  0.00000000000E+00  0.00000000000E+00  1.
</event>
<event>
 8  50   1.0000000E+00   1.2500000E+02   7.8125000E-03   1.2380861E-01
        2   -1    0    0  503    0  0.00000000000E+00  0.00000000000E+00  2.42000900567E+03  2.42000900567E+03  0.00000000000E+00  0.00000000000E+00  1.
       -2   -1    0    0    0  503  0.00000000000E+00  0.00000000000E+00 -2.08046239243E+03  2.08046239243E+03  0.00000000000E+00  0.00000000000E+00  1.
       23    2    1    2    0    0 -1.83385913611E+03 -1.20971597593E+03  6.13938743352E+02  2.28295778960E+03  9.23223428631E+01  0.00000000000E+00  1.
       25    2    1    2    0    0  1.83385913611E+03  1.20971597593E+03 -2.74392130104E+02  2.21751360850E+03  1.24993957099E+02  0.00000000000E+00  1.
        2    1    3    3  502    0 -1.67280450365E+03 -1.07148435404E+03  5.49172607156E+02  2.06105414311E+03  3.47551816395E-05  0.00000000000E+00  1.
       -2    1    3    3    0  502 -1.61054632456E+02 -1.38231621890E+02  6.47661361962E+01  2.21903646485E+02  4.14830771299E-06  0.00000000000E+00  1.
        5    1    4    4  501    0  1.13410469160E+03  7.22189682445E+02 -1.10426352716E+02  1.34905350832E+03  0.00000000000E+00  0.00000000000E+00  1.
       -5    1    4    4    0  501  6.99754444510E+02  4.87526293485E+02 -1.63965777388E+02  8.68460100180E+02  0.00000000000E+00  0.00000000000E+00  1.
</event>
<event>
 8  50   1.0000000E+00   1.2500000E+02   7.8125000E-03   1.2380861E-01
        2   -1    0    0  503    0  0.00000000000E+00  0.00000000000E+00  3.31949048551E+03  3.31949048551E+03  0.00000000000E+00  0.00000000000E+00  1.
       -2   -1    0    0    0  503  0.00000000000E+00  0.00000000000E+00 -4.42664845016E+03  4.42664845016E+03  0.00000000000E+00  0.00000000000E+00  1.
       23    2    1    2    0    0 -2.31710978658E+03 -2.85685329983E+03  5.31679567717E+02  3.71724052889E+03  6.77159292009E+01  0.00000000000E+00  1.
       25    2    1    2    0    0  2.31710978658E+03  2.85685329983E+03 -1.63883753237E+03  4.02889840677E+03  1.25001499225E+02  0.00000000000E+00  1.
        1    1    3    3  502    0 -9.93231647716E+02 -1.27055543418E+03  2.50302467389E+02  1.63201456566E+03  2.26967725332E-05  0.00000000000E+00  1.
       -1    1    3    3    0  502 -1.32387813886E+03 -1.58629786565E+03  2.81377100328E+02  2.08522596322E+03  7.30004829998E-06  0.00000000000E+00  1.
        5    1    4    4  501    0  1.63524090527E+03  2.08630756132E+03 -1.21825495498E+03  2.91733391884E+03  0.00000000000E+00  0.00000000000E+00  1.
       -5    1    4    4    0  501  6.81868881306E+02  7.70545738514E+02 -4.20582577385E+02  1.11156448793E+03  0.00000000000E+00  0.00000000000E+00  1.
</event>
<event>
 8  50   1.0000000E+00   1.2500000E+02   7.8125000E-03   1.2380861E-01
       -2   -1    0    0    0  503  0.00000000000E+00  0.00000000000E+00  3.50896987096E+03  3.50896987096E+03  0.00000000000E+00  0.00000000000E+00  1.
        2   -1    0    0  503    0  0.00000000000E+00  0.00000000000E+00 -3.21060750757E+03  3.21060750757E+03  0.00000000000E+00  0.00000000000E+00  1.
       23    2    1    2    0    0 -1.01899076735E+03 -2.51786220418E+03  2.11984833094E+03  3.44674835990E+03  9.13512294441E+01  0.00000000000E+00  1.
       25    2    1    2    0    0  1.01899076735E+03  2.51786220418E+03 -1.82148596756E+03  3.27282901863E+03  1.25005567826E+02  0.00000000000E+00  1.
        1    1    3    3  502    0 -8.40443386696E+02 -2.11403731483E+03  1.73573593233E+03  2.86151674493E+03  4.12953092472E-05  0.00000000000E+00  1.
       -1    1    3    3    0  502 -1.78547380655E+02 -4.03824889343E+02  3.84112398613E+02  5.85231614969E+02  1.19209289551E-05  0.00000000000E+00  1.
        5    1    4    4  501    0  8.20487725225E+00  3.76129391275E+01 -1.11347265305E+01  4.00753706838E+01  0.00000000000E+00  0.00000000000E+00  1.
       -5    1    4    4    0  501  1.01078589010E+03  2.48024926505E+03 -1.81035124103E+03  3.23275364794E+03  0.00000000000E+00  0.00000000000E+00  1.
</event>
<event>
 8  50   1.0000000E+00   1.2500000E+02   7.8125000E-03   1.2380861E-01
       -2   -1    0    0    0  503  0.00000000000E+00  0.00000000000E+00  3.27911648911E+03  3.27911648911E+03  0.00000000000E+00  0.00000000000E+00  1.
        2   -1    0    0  503    0  0.00000000000E+00  0.00000000000E+00 -3.17408857580E+03  3.17408857580E+03  0.00000000000E+00  0.00000000000E+00  1.
       23    2    1    2    0    0  2.97983042097E+03 -5.72214894635E+02  1.14283781055E+03  3.24392159499E+03  1.00647055911E+02  0.00000000000E+00  1.
       25    2    1    2    0    0 -2.97983042097E+03  5.72214894635E+02 -1.03780989724E+03  3.20928346991E+03  1.25027133322E+02  0.00000000000E+00  1.
        3    1    3    3  502    0  2.15182254422E+03 -4.47592605956E+02  7.95674701048E+02  2.33747248810E+03  6.07850493621E-05  0.00000000000E+00  1.
       -3    1    3    3    0  502  8.28007876748E+02 -1.24622288679E+02  3.47163109505E+02  9.06449106896E+02  2.10734242554E-05  0.00000000000E+00  1.
        5    1    4    4  501    0 -2.24631164330E+03  4.26067330813E+02 -8.38247675933E+02  2.43518141736E+03  0.00000000000E+00  0.00000000000E+00  1.
       -5    1    4    4    0  501 -7.33518777665E+02  1.46147563822E+02 -1.99562221306E+02  7.74102052555E+02  0.00000000000E+00  0.00000000000E+00  1.
</event>
<event>
 8  50   1.0000000E+00   1.2500000E+02   7.8125000E-03   1.2380861E-01
        2   -1    0    0  503    0  0.00000000000E+00  0.00000000000E+00  4.06458566813E+03  4.06458566813E+03  0.00000000000E+00  0.00000000000E+00  1.
       -2   -1    0    0    0  503  0.00000000000E+00  0.00000000000E+00 -1.65464472974E+03  1.65464472974E+03  0.00000000000E+00  0.00000000000E+00  1.
       23    2    1    2    0    0 -9.92770374106E+02  1.53932302342E+03 -8.16105816968E+02  2.00734177681E+03  9.10160331947E+01  0.00000000000E+00  1.
       25    2    1    2    0    0  9.92770374106E+02 -1.53932302342E+03  3.22604675536E+03  3.71188862106E+03  1.25024322583E+02  0.00000000000E+00  1.
        2    1    3    3  502    0 -5.71929020303E+02  8.37371088866E+02 -4.11626029845E+02  1.09440812003E+03  2.23020159410E-05  0.00000000000E+00  1.
       -2    1    3    3    0  502 -4.20841353803E+02  7.01951934556E+02 -4.04479787123E+02  9.12933656784E+02  2.59810623142E-05  0.00000000000E+00  1.
        5    1    4    4  501    0  2.61148910560E+02 -4.90024959814E+02  9.08361654677E+02  1.06463332205E+03  0.00000000000E+00  0.00000000000E+00  1.
       -5    1    4    4    0  501  7.31621463546E+02 -1.04929806361E+03  2.31768510068E+03  2.64725529901E+03  0.00000000000E+00  0.00000000000E+00  1.
</event>
<event>
 8  50   1.0000000E+00   1.2500000E+02   7.8125000E-03   1.2380861E-01
        2   -1    0    0  503    0  0.00000000000E+00  0.00000000000E+00  4.84571191225E+03  4.84571191225E+03  0.00000000000E+00  0.00000000000E+00  1.
       -2   -1    0    0    0  503  0.00000000000E+00  0.00000000000E+00 -1.69237882702E+03  1.69237882702E+03  0.00000000000E+00  0.00000000000E+00  1.
       23    2    1    2    0    0 -1.01013281011E+03 -1.94437776050E+03 -5.24804645083E+02  2.25494998395E+03  9.16861221533E+01  0.00000000000E+00  1.
       25    2    1    2    0    0  1.01013281011E+03  1.94437776050E+03  3.67813773031E+03  4.28314075533E+03  1.24997588944E+02  0.00000000000E+00  1.
        4    1    3    3  502    0 -7.35613342209E+02 -1.34792270315E+03 -3.38853026363E+02  1.57252841055E+03  1.27500000017E+00  0.00000000000E+00  1.
       -4    1    3    3    0  502 -2.74519467900E+02 -5.96455057357E+02 -1.85951618720E+02  6.82421573393E+02  1.27499999998E+00  0.00000000000E+00  1.
        5    1    4    4  501    0  3.79335403262E+02  6.14829503065E+02  1.16279559320E+03  1.36894275175E+03  0.00000000000E+00  0.00000000000E+00  1.
       -5    1    4    4    0  501  6.30797406848E+02  1.32954825744E+03  2.51534213711E+03  2.91419800358E+03  0.00000000000E+00  0.00000000000E+00  1.
</event>
<event>
 8  50   1.0000000E+00   1.2500000E+02   7.8125000E-03   1.2380861E-01
        2   -1    0    0  503    0  0.00000000000E+00  0.00000000000E+00  5.03570659322E+03  5.03570659322E+03  0.00000000000E+00  0.00000000000E+00  1.
       -2   -1    0    0    0  503  0.00000000000E+00  0.00000000000E+00 -2.35648323329E+03  2.35648323329E+03  0.00000000000E+00  0.00000000000E+00  1.
       23    2    1    2    0    0 -2.13238387188E+03 -1.03659336877E+03 -1.33935287920E+03  2.72462441657E+03  9.01403745568E+01  0.00000000000E+00  1.
       25    2    1    2    0    0  2.13238387188E+03  1.03659336877E+03  4.01857623914E+03  4.66756540994E+03  1.25000308199E+02  0.00000000000E+00  1.
        2    1    3    3  502    0 -1.81591823212E+03 -9.10178674740E+02 -1.12396026011E+03  2.32148032772E+03  7.05251667869E-05  0.00000000000E+00  1.
       -2    1    3    3    0  502 -3.16465639758E+02 -1.26414694031E+02 -2.15392619090E+02  4.03144088848E+02  1.33280037493E-05  0.00000000000E+00  1.
        5    1    4    4  501    0  4.52221772635E+02  2.10309187052E+02  9.47192679689E+02  1.07047113845E+03  0.00000000000E+00  0.00000000000E+00  1.
       -5    1    4    4    0  501  1.68016209924E+03  8.26284181719E+02  3.07138355945E+03  3.59709427148E+03  0.00000000000E+00  0.00000000000E+00  1.
</event>
<event>
 8  50   1.0000000E+00   1.2500000E+02   7.8125000E-03   1.2380861E-01
       -1   -1    0    0    0  503  0.00000000000E+00  0.00000000000E+00  4.25549124088E+03  4.25549124088E+03  0.00000000000E+00  0.00000000000E+00  1.
        1   -1    0    0  503    0  0.00000000000E+00  0.00000000000E+00 -5.16381214880E+03  5.16381214880E+03  0.00000000000E+00  0.00000000000E+00  1.
       23    2    1    2    0    0  3.83358681051E+03  1.22674184295E+03  1.95744351218E+03  4.47668121534E+03  8.83528008707E+01  0.00000000000E+00  1.
       25    2    1    2    0    0 -3.83358681051E+03 -1.22674184295E+03 -2.86576442010E+03  4.94262217433E+03  1.24999454683E+02  0.00000000000E+00  1.
       15    1    3    3    0    0  5.00709357213E+02  1.83491035694E+02  2.37139187409E+02  5.83623998653E+02  1.77679999992E+00  0.00000000000E+00  1.
      -15    1    3    3    0    0  3.33287745330E+03  1.04325080726E+03  1.72030432477E+03  3.89305721669E+03  1.77679999866E+00  0.00000000000E+00  1.
        5    1    4    4  501    0 -4.60085327550E+02 -1.84662515748E+02 -3.28107420105E+02  5.94502508386E+02  0.00000000000E+00  0.00000000000E+00  1.
       -5    1    4    4    0  501 -3.37350148296E+03 -1.04207932721E+03 -2.53765700000E+03  4.34811966595E+03  0.00000000000E+00  0.00000000000E+00  1.
</event>
<event>
 8  50   1.0000000E+00   1.2500000E+02   7.8125000E-03   1.2380861E-01
        1   -1    0    0  503    0  0.00000000000E+00  0.00000000000E+00  1.23563382052E+03  1.23563382052E+03  0.00000000000E+00  0.00000000000E+00  1.
       -1   -1    0    0    0  503  0.00000000000E+00  0.00000000000E+00 -1.54015040201E+03  1.54015040201E+03  0.00000000000E+00  0.00000000000E+00  1.
       23    2    1    2    0    0 -1.07509252271E+03  2.80265185912E+02  6.63222419572E+02  1.29709679740E+03  9.06841616628E+01  0.00000000000E+00  1.
       25    2    1    2    0    0  1.07509252271E+03 -2.80265185912E+02 -9.67739001065E+02  1.47868742513E+03  1.25000881001E+02  0.00000000000E+00  1.
        5    1    3    3  502    0 -9.26785716426E+02  2.64908760031E+02  5.49714606170E+02  1.10964729804E+03  4.75000000004E+00  0.00000000000E+00  1.
       -5    1    3    3    0  502 -1.48306806282E+02  1.53564258804E+01  1.13507813402E+02  1.87449499356E+02  4.75000000000E+00  0.00000000000E+00  1.
        5    1    4    4  501    0  6.91099687635E+02 -1.64880042932E+02 -6.94028390750E+02  9.93216801093E+02  0.00000000000E+00  0.00000000000E+00  1.
       -5    1    4    4    0  501  3.83992835073E+02 -1.15385142980E+02 -2.73710610315E+02  4.85470624042E+02  0.00000000000E+00  0.00000000000E+00  1.
</event>
<event>
 8  50   1.0000000E+00   1.2500000E+02   7.8125000E-03   1.2380861E-01
        2   -1    0    0  503    0  0.00000000000E+00  0.00000000000E+00  2.69389815702E+03  2.69389815702E+03  0.00000000000E+00  0.00000000000E+00  1.
       -2   -1    0    0    0  503  0.00000000000E+00  0.00000000000E+00 -4.27496844015E+03  4.27496844015E+03  0.00000000000E+00  0.00000000000E+00  1.
       23    2    1    2    0    0  1.80495343305E+03  2.87158494608E+03 -8.13491827690E+02  3.48911668770E+03  9.11554094345E+01  0.00000000000E+00  1.
       25    2    1    2    0    0 -1.80495343305E+03 -2.87158494608E+03 -7.67578455446E+02  3.47974990947E+03  1.25002996650E+02  0.00000000000E+00  1.
        3    1    3    3  502    0  9.71470734558E+02  1.46820786648E+03 -4.02078258513E+02  1.80583959788E+03  1.03238273118E-05  0.00000000000E+00  1.
       -3    1    3    3    0  502  8.33482698492E+02  1.40337707959E+03 -4.11413569176E+02  1.68327708982E+03  1.78813934326E-05  0.00000000000E+00  1.
        5    1    4    4  501    0 -1.21276289215E+02 -1.51547415818E+02 -2.47383717335E+01  1.95669477954E+02  0.00000000000E+00  0.00000000000E+00  1.
       -5    1    4    4    0  501 -1.68367714384E+03 -2.72003753026E+03 -7.42840083713E+02  3.28408043151E+03  0.00000000000E+00  0.00000000000E+00  1.
</event>
<event>
 8  50   1.0000000E+00   1.2500000E+02   7.8125000E-03   1.2380861E-01
       -1   -1    0    0    0  503  0.00000000000E+00  0.00000000000E+00  4.88330591956E+03  4.88330591956E+03  0.00000000000E+00  0.00000000000E+00  1.
        1   -1    0    0  503    0  0.00000000000E+00  0.00000000000E+00 -2.69810696207E+03  2.69810696207E+03  0.00000000000E+00  0.00000000000E+00  1.
       23    2    1    2    0    0 -2.73066527824E+03 -1.74902069086E+02 -1.39588080923E+03  3.07287848046E+03  8.35184202508E+01  0.00000000000E+00  1.
       25    2    1    2    0    0  2.73066527824E+03  1.74902069086E+02  3.58107976672E+03  4.50853440118E+03  1.25006221539E+02  0.00000000000E+00  1.
       12    1    3    3    0    0 -2.58818183907E+03 -1.47121606532E+02 -1.32360748432E+03  2.91071585212E+03  3.76972873231E-05  0.00000000000E+00  1.
      -12    1    3    3    0    0 -1.42483439166E+02 -2.77804625543E+01 -7.22733249153E+01  1.62162628341E+02  7.52471755323E-06  0.00000000000E+00  1.
        5    1    4    4  501    0  1.22630351871E+03  9.58719962721E+01  1.70835645691E+03  2.10511129006E+03  0.00000000000E+00  0.00000000000E+00  1.
       -5    1    4    4    0  501  1.50436175953E+03  7.90300728139E+01  1.87272330982E+03  2.40342311112E+03  0.00000000000E+00  0.00000000000E+00  1.
</event>
<event>
 8  50   1.0000000E+00   1.2500000E+02   7.8125000E-03   1.2380861E-01
        2   -1    0    0  503    0  0.00000000000E+00  0.00000000000E+00  2.98767795877E+03  2.98767795877E+03  0.00000000000E+00  0.00000000000E+00  1.
       -2   -1    0    0    0  503  0.00000000000E+00  0.00000000000E+00 -1.60855331944E+03  1.60855331944E+03  0.00000000000E+00  0.00000000000E+00  1.
       23    2    1    2    0    0 -5.14765177955E+02 -4.08309419474E+02 -1.50024395264E+03  1.64020750806E+03  8.85944783088E+01  0.00000000000E+00  1.
       25    2    1    2    0    0  5.14765177955E+02  4.08309419474E+02  2.87936859198E+03  2.95602377015E+03  1.24953074293E+02  0.00000000000E+00  1.
       14    1    3    3    0    0 -3.21019750558E+02 -2.21629253466E+02 -7.99592320352E+02  8.89674707411E+02  1.19209289551E-05  0.00000000000E+00  1.
      -14    1    3    3    0    0 -1.93745427397E+02 -1.86680166008E+02 -7.00651632289E+02  7.50532800647E+02  1.68587394044E-05  0.00000000000E+00  1.
        5    1    4    4  501    0  4.23019127204E+02  2.89227262439E+02  2.37883341210E+03  2.43340214388E+03  0.00000000000E+00  0.00000000000E+00  1.
       -5    1    4    4    0  501  9.17460507510E+01  1.19082157035E+02  5.00535179877E+02  5.22621626271E+02  0.00000000000E+00  0.00000000000E+00  1.
</event>
<event>
 8  50   1.0000000E+00   1.2500000E+02   7.8125000E-03   1.2380861E-01
       -1   -1    0    0    0  503  0.00000000000E+00  0.00000000000E+00  1.54540527744E+03  1.54540527744E+03  0.00000000000E+00  0.00000000000E+00  1.
        1   -1    0    0  503    0  0.00000000000E+00  0.00000000000E+00 -1.52228962221E+03  1.52228962221E+03  0.00000000000E+00  0.00000000000E+00  1.
       23    2    1    2    0    0  7.31500605699E+02  1.21252931273E+03  5.90396684683E+02  1.53708955223E+03  9.35712343819E+01  0.00000000000E+00  1.
       25    2    1    2    0    0 -7.31500605699E+02 -1.21252931273E+03 -5.67281029454E+02  1.53060534743E+03  1.24997971248E+02  0.00000000000E+00  1.
        1    1    3    3  502    0  7.17735417951E+02  1.20428844504E+03  5.90010434867E+02  1.52104145318E+03  2.52881091065E-05  0.00000000000E+00  1.
       -1    1    3    3    0  502  1.37651877479E+01  8.24086769061E+00  3.86249815458E-01  1.60480990448E+01  7.56901053114E-07  0.00000000000E+00  1.
        5    1    4    4  501    0 -1.47496635493E+01 -3.13007788027E+01 -3.70106347094E+01  5.06663439579E+01  0.00000000000E+00  0.00000000000E+00  1.
       -5    1    4    4    0  501 -7.16750942150E+02 -1.18122853393E+03 -5.30270394744E+02  1.47993900347E+03  0.00000000000E+00  0.00000000000E+00  1.
</event>
<event>
 8  50   1.0000000E+00   1.2500000E+02   7.8125000E-03   1.2380861E-01
       -1   -1    0    0    0  503  0.00000000000E+00  0.00000000000E+00  1.29198473736E+03  1.29198473736E+03  0.00000000000E+00  0.00000000000E+00  1.
        1   -1    0    0  503    0  0.00000000000E+00  0.00000000000E+00 -2.27214418032E+03  2.27214418032E+03  0.00000000000E+00  0.00000000000E+00  1.
       23    2    1    2    0    0 -1.01001739485E+03 -7.73664451310E+02  6.98526562239E+02  1.45408060471E+03  8.78591243078E+01  0.00000000000E+00  1.
       25    2    1    2    0    0  1.01001739485E+03  7.73664451310E+02 -1.67868600520E+03  2.11004831297E+03  1.25001431526E+02  0.00000000000E+00  1.
        5    1    3    3  502    0 -3.78675746852E+02 -3.43310239879E+02  2.72428714841E+02  5.79221209236E+02  4.75000000001E+00  0.00000000000E+00  1.
       -5    1    3    3    0  502 -6.31341647997E+02 -4.30354211431E+02  4.26097847398E+02  8.74859395474E+02  4.75000000001E+00  0.00000000000E+00  1.
        5    1    4    4  501    0  7.01517480755E+02  6.04482765648E+02 -1.18896629550E+03  1.50703916392E+03  0.00000000000E+00  0.00000000000E+00  1.
       -5    1    4    4    0  501  3.08499914094E+02  1.69181685662E+02 -4.89719709703E+02  6.03009149044E+02  0.00000000000E+00  0.00000000000E+00  1.
</event>
<event>
 8  50   1.0000000E+00   1.2500000E+02   7.8125000E-03   1.2380861E-01
        2   -1    0    0  503    0  0.00000000000E+00  0.00000000000E+00  3.45889016564E+03  3.45889016564E+03  0.00000000000E+00  0.00000000000E+00  1.
       -2   -1    0    0    0  503  0.00000000000E+00  0.00000000000E+00 -1.53492722410E+03  1.53492722410E+03  0.00000000000E+00  0.00000000000E+00  1.
       23    2    1    2    0    0  1.14854342980E+03  1.42046918947E+03  2.47890465876E+03  3.08058177580E+03  9.01722895949E+01  0.00000000000E+00  1.
       25    2    1    2    0    0 -1.14854342980E+03 -1.42046918947E+03 -5.54941717220E+02  1.91323561394E+03  1.25001906301E+02  0.00000000000E+00  1.
        3    1    3    3  502    0  3.50903507413E+02  3.77454238539E+02  6.66096457055E+02  8.42193246118E+02  1.19209289551E-05  0.00000000000E+00  1.
       -3    1    3    3    0  502  7.97639922387E+02  1.04301495093E+03  1.81280820171E+03  2.23838852968E+03  3.37174788087E-05  0.00000000000E+00  1.
        5    1    4    4  501    0 -4.96514927896E+02 -7.01125786682E+02 -2.91817055096E+02  9.07337663728E+02  0.00000000000E+00  0.00000000000E+00  1.
       -5    1    4    4    0  501 -6.52028501904E+02 -7.19343402790E+02 -2.63124662124E+02  1.00589795022E+03  0.00000000000E+00  0.00000000000E+00  1.
</event>
<event>
 8  50   1.0000000E+00   1.2500000E+02   7.8125000E-03   1.2380861E-01
        1   -1    0    0  503    0  0.00000000000E+00  0.00000000000E+00  3.89752891568E+03  3.89752891568E+03  0.00000000000E+00  0.00000000000E+00  1.
       -1   -1    0    0    0  503  0.00000000000E+00  0.00000000000E+00 -4.95161594577E+03  4.95161594577E+03  0.00000000000E+00  0.00000000000E+00  1.
       23    2    1    2    0    0  2.46446135278E+03  3.49019791092E+03  4.97043187665E+02  4.30198289386E+03  7.03823267169E+01  0.00000000000E+00  1.
       25    2    1    2    0    0 -2.46446135278E+03 -3.49019791092E+03 -1.55113021775E+03  4.54716196759E+03  1.25003161492E+02  0.00000000000E+00  1.
        2    1    3    3  502    0  9.48141492809E+02  1.35097361802E+03  2.26190143227E+02  1.66591235900E+03  5.67810502149E-05  0.00000000000E+00  1.
       -2    1    3    3    0  502  1.51631985997E+03  2.13922429290E+03  2.70853044437E+02  2.63607053486E+03  4.51974597219E-05  0.00000000000E+00  1.
        5    1    4    4  501    0 -8.57729007355E+02 -1.22088930306E+03 -6.05166076247E+02  1.61012288979E+03  0.00000000000E+00  0.00000000000E+00  1.
       -5    1    4    4    0  501 -1.60673234543E+03 -2.26930860785E+03 -9.45964141501E+02  2.93703907780E+03  0.00000000000E+00  0.00000000000E+00  1.
</event>
<event>
 8  50   1.0000000E+00   1.2500000E+02   7.8125000E-03   1.2380861E-01
        1   -1    0    0  503    0  0.00000000000E+00  0.00000000000E+00  1.46907774990E+03  1.46907774990E+03  0.00000000000E+00  0.00000000000E+00  1.
       -1   -1    0    0    0  503  0.00000000000E+00  0.00000000000E+00 -3.71831943662E+03  3.71831943662E+03  0.00000000000E+00  0.00000000000E+00  1.
       23    2    1    2    0    0  1.05887056636E+03 -2.00077261629E+03 -1.75848592861E+03  2.86774966953E+03  8.61247211941E+01  0.00000000000E+00  1.
       25    2    1    2    0    0 -1.05887056636E+03  2.00077261629E+03 -4.90755758108E+02  2.31964751698E+03  1.25001802168E+02  0.00000000000E+00  1.
       12    1    3    3    0    0  6.35636243361E+02 -1.12366779949E+03 -9.73778982690E+02  1.61706779840E+03  1.68587394044E-05  0.00000000000E+00  1.
      -12    1    3    3    0    0  4.23234323000E+02 -8.77104816795E+02 -7.84706945920E+02  1.25068187114E+03  1.19209289551E-05  0.00000000000E+00  1.
        5    1    4    4  501    0 -9.50572744840E+02  1.85143780006E+03 -4.27693039968E+02  2.12469569755E+03  0.00000000000E+00  0.00000000000E+00  1.
       -5    1    4    4    0  501 -1.08297821521E+02  1.49334816222E+02 -6.30627181406E+01  1.94951819437E+02  0.00000000000E+00  0.00000000000E+00  1.
</event>
<event>
 8  50   1.0000000E+00   1.2500000E+02   7.8125000E-03   1.2380861E-01
       -2   -1    0    0    0  503  0.00000000000E+00  0.00000000000E+00  4.18382889490E+03  4.18382889490E+03  0.00000000000E+00  0.00000000000E+00  1.
        2   -1    0    0  503    0  0.00000000000E+00  0.00000000000E+00 -4.98247147149E+03  4.98247147149E+03  0.00000000000E+00  0.00000000000E+00  1.
       23    2    1    2    0    0  1.60459241934E+03  4.24539156927E+03  8.82660399492E+01  4.54025463926E+03  8.97490217097E+01  0.00000000000E+00  1.
       25    2    1    2    0    0 -1.60459241934E+03 -4.24539156927E+03 -8.86908616543E+02  4.62604572713E+03  1.25003067100E+02  0.00000000000E+00  1.
        2    1    3    3  502    0  1.46528650099E+03  3.84790230567E+03  5.61006370161E+01  4.11783486379E+03  6.27929699246E-05  0.00000000000E+00  1.
       -2    1    3    3    0  502  1.39305918354E+02  3.97489263596E+02  3.21654029331E+01  4.22419775470E+02  1.75484504004E-05  0.00000000000E+00  1.
        5    1    4    4  501    0 -3.41613222536E+00 -3.55148061716E+01 -1.21616821689E+00  3.56994465212E+01  0.00000000000E+00  0.00000000000E+00  1.
       -5    1    4    4    0  501 -1.60117628711E+03 -4.20987676310E+03 -8.85692448326E+02  4.59034628061E+03  0.00000000000E+00  0.00000000000E+00  1.
</event>
<event>
 8  50   1.0000000E+00   1.2500000E+02   7.8125000E-03   1.2380861E-01
        2   -1    0    0  503    0  0.00000000000E+00  0.00000000000E+00  2.58529804976E+03  2.58529804976E+03  0.00000000000E+00  0.00000000000E+00  1.
       -2   -1    0    0    0  503  0.00000000000E+00  0.00000000000E+00 -2.17323575099E+03  2.17323575099E+03  0.00000000000E+00  0.00000000000E+00  1.
       23    2    1    2    0    0  1.94459796464E+02 -1.55957455495E+03 -1.57168489114E+03  2.22457093606E+03  9.18425153257E+01  0.00000000000E+00  1.
       25    2    1    2    0    0 -1.94459796464E+02  1.55957455495E+03  1.98374718990E+03  2.53396286469E+03  1.25009924755E+02  0.00000000000E+00  1.
        2    1    3    3  502    0  7.24946967957E+01 -7.82803543744E+02 -7.31271369400E+02  1.07368276733E+03  1.88486436615E-05  0.00000000000E+00  1.
       -2    1    3    3    0  502  1.21965099668E+02 -7.76771011210E+02 -8.40413521735E+02  1.15088816872E+03  2.06476546236E-05  0.00000000000E+00  1.
        5    1    4    4  501    0 -7.74740170569E+01  9.21691098697E+02  1.24425324826E+03  1.55038151773E+03  0.00000000000E+00  0.00000000000E+00  1.
       -5    1    4    4    0  501 -1.16985779407E+02  6.37883456258E+02  7.39493941647E+02  9.83581346958E+02  0.00000000000E+00  0.00000000000E+00  1.
</event>
<event>
 8  50   1.0000000E+00   1.2500000E+02   7.8125000E-03   1.2380861E-01
       -2   -1    0    0    0  503  0.00000000000E+00  0.00000000000E+00  1.42761526290E+03  1.42761526290E+03  0.00000000000E+00  0.00000000000E+00  1.
        2   -1    0    0  503    0  0.00000000000E+00  0.00000000000E+00 -2.49141644609E+03  2.49141644609E+03  0.00000000000E+00  0.00000000000E+00  1.
       23    2    1    2    0    0  1.07060705499E+03 -1.05381306056E+03  6.47171647618E+02  1.63873035838E+03  9.94213920512E+01  0.00000000000E+00  1.
       25    2    1    2    0    0 -1.07060705499E+03  1.05381306056E+03 -1.71097283080E+03  2.28030135061E+03  1.24999156304E+02  0.00000000000E+00  1.
        5    1    3    3  502    0  2.32048697999E+02 -2.65059251475E+02  1.16505694784E+02  3.71078353522E+02  4.74999999999E+00  0.00000000000E+00  1.
       -5    1    3    3    0  502  8.38558356989E+02 -7.88753809084E+02  5.30665952834E+02  1.26765200486E+03  4.74999999993E+00  0.00000000000E+00  1.
        5    1    4    4  501    0 -2.03841403407E+02  2.04171919000E+02 -4.06749996440E+02  4.98681310914E+02  0.00000000000E+00  0.00000000000E+00  1.
       -5    1    4    4    0  501 -8.66765651581E+02  8.49641141559E+02 -1.30422283436E+03  1.78162003970E+03  0.00000000000E+00  0.00000000000E+00  1.
</event>
<event>
 8  50   1.0000000E+00   1.2500000E+02   7.8125000E-03   1.2380861E-01
       -2   -1    0    0    0  503  0.00000000000E+00  0.00000000000E+00  5.02313543258E+03  5.02313543258E+03  0.00000000000E+00  0.00000000000E+00  1.
        2   -1    0    0  503    0  0.00000000000E+00  0.00000000000E+00 -1.04446832001E+03  1.04446832001E+03  0.00000000000E+00  0.00000000000E+00  1.
       23    2    1    2    0    0  1.55636120484E+03 -1.66467060900E+03  2.25709360897E+03  3.20878790652E+03  9.19773504821E+01  0.00000000000E+00  1.
       25    2    1    2    0    0 -1.55636120484E+03  1.66467060900E+03  1.72157350360E+03  2.85881584607E+03  1.24997108031E+02  0.00000000000E+00  1.
        5    1    3    3  502    0  1.39926357908E+03 -1.49556160120E+03  1.98851312369E+03  2.85461907657E+03  4.74999999984E+00  0.00000000000E+00  1.
       -5    1    3    3    0  502  1.57097625760E+02 -1.69109007797E+02  2.68580485276E+02  3.54168829951E+02  4.75000000000E+00  0.00000000000E+00  1.
        5    1    4    4  501    0 -8.23780583100E+02  9.15729240824E+02  1.00231428875E+03  1.58802028482E+03  0.00000000000E+00  0.00000000000E+00  1.
       -5    1    4    4    0  501 -7.32580621742E+02  7.48941368174E+02  7.19259214857E+02  1.27079556124E+03  0.00000000000E+00  0.00000000000E+00  1.
</event>
<event>
 8  50   1.0000000E+00   1.2500000E+02   7.8125000E-03   1.2380861E-01
       -3   -1    0    0    0  503  0.00000000000E+00  0.00000000000E+00  2.28582293453E+03  2.28582293453E+03  0.00000000000E+00  0.00000000000E+00  1.
        3   -1    0    0  503    0  0.00000000000E+00  0.00000000000E+00 -1.50690624778E+03  1.50690624778E+03  0.00000000000E+00  0.00000000000E+00  1.
       23    2    1    2    0    0 -6.09168289093E+02 -1.08937357030E+03  1.78834447971E+03  2.18263889863E+03  8.89708018793E+01  0.00000000000E+00  1.
       25    2    1    2    0    0  6.09168289093E+02  1.08937357030E+03 -1.00942779296E+03  1.61009028369E+03  1.25001889355E+02  0.00000000000E+00  1.
       16    1    3    3    0    0 -1.41549019154E+00 -6.48422773632E+00  2.54232355454E+01  2.62752683605E+01  1.74731603258E-06  0.00000000000E+00  1.
      -16    1    3    3    0    0 -6.07752798901E+02 -1.08288934256E+03  1.76292124416E+03  2.15636363026E+03  4.12953092472E-05  0.00000000000E+00  1.
        5    1    4    4  501    0  1.90753995452E+02  4.55698850615E+02 -4.29559005514E+02  6.54652173640E+02  0.00000000000E+00  0.00000000000E+00  1.
       -5    1    4    4    0  501  4.18414293641E+02  6.33674719685E+02 -5.79868787441E+02  9.55438110052E+02  0.00000000000E+00  0.00000000000E+00  1.
</event>
<event>
 8  50   1.0000000E+00   1.2500000E+02   7.8125000E-03   1.2380861E-01
       -1   -1    0    0    0  503  0.00000000000E+00  0.00000000000E+00  6.38048379672E+02  6.38048379672E+02  0.00000000000E+00  0.00000000000E+00  1.
        1   -1    0    0  503    0  0.00000000000E+00  0.00000000000E+00 -1.11198604400E+03  1.11198604400E+03  0.00000000000E+00  0.00000000000E+00  1.
       23    2    1    2    0    0  4.95399869517E+02  6.39213130682E+02 -1.96384759751E+01  8.14070195671E+02  9.11600602626E+01  0.00000000000E+00  1.
       25    2    1    2    0    0 -4.95399869517E+02 -6.39213130682E+02 -4.54299188348E+02  9.35964227996E+02  1.25007305388E+02  0.00000000000E+00  1.
        5    1    3    3  502    0  2.31661773827E+02  3.28563239872E+02 -5.12983029335E+01  4.05308596543E+02  4.75000000000E+00  0.00000000000E+00  1.
       -5    1    3    3    0  502  2.63738095690E+02  3.10649890811E+02  3.16598269583E+01  4.08761599128E+02  4.75000000000E+00  0.00000000000E+00  1.
        5    1    4    4  501    0 -4.01312075529E+02 -5.85572772260E+02 -3.88687163866E+02  8.09335878936E+02  0.00000000000E+00  0.00000000000E+00  1.
       -5    1    4    4    0  501 -9.40877939883E+01 -5.36403584222E+01 -6.56120244818E+01  1.26628349061E+02  0.00000000000E+00  0.00000000000E+00  1.
</event>
<event>
 8  50   1.0000000E+00   1.2500000E+02   7.8125000E-03   1.2380861E-01
       -2   -1    0    0    0  503  0.00000000000E+00  0.00000000000E+00  5.44067483194E+03  5.44067483194E+03  0.00000000000E+00  0.00000000000E+00  1.
        2   -1    0    0  503    0  0.00000000000E+00  0.00000000000E+00 -2.03695444783E+03  2.03695444783E+03  0.00000000000E+00  0.00000000000E+00  1.
       23    2    1    2    0    0  1.99327630676E+02  4.36366361553E+02  5.39930803971E+03  5.42138458662E+03  9.34688320106E+01  0.00000000000E+00  1.
       25    2    1    2    0    0 -1.99327630676E+02 -4.36366361553E+02 -1.99558765560E+03  2.05624469315E+03  1.25000164361E+02  0.00000000000E+00  1.
        5    1    3    3  502    0  1.60325784303E+02  2.44430906994E+02  3.34996484502E+03  3.36269800172E+03  4.74999999984E+00  0.00000000000E+00  1.
       -5    1    3    3    0  502  3.90018463728E+01  1.91935454558E+02  2.04934319469E+03  2.05868658490E+03  4.74999999996E+00  0.00000000000E+00  1.
        5    1    4    4  501    0 -1.60140659236E+02 -3.88559351527E+02 -1.86499475707E+03  1.91176066606E+03  0.00000000000E+00  0.00000000000E+00  1.
       -5    1    4    4    0  501 -3.91869714402E+01 -4.78070100254E+01 -1.30592898533E+02  1.44484027095E+02  0.00000000000E+00  0.00000000000E+00  1.
</event>
<event>
 8  50   1.0000000E+00   1.2500000E+02   7.8125000E-03   1.2380861E-01
        2   -1    0    0  503    0  0.00000000000E+00  0.00000000000E+00  1.99071494912E+03  1.99071494912E+03  0.00000000000E+00  0.00000000000E+00  1.
       -2   -1    0    0    0  503  0.00000000000E+00  0.00000000000E+00 -1.19894023606E+03  1.19894023606E+03  0.00000000000E+00  0.00000000000E+00  1.
       23    2    1    2    0    0 -1.35030571044E+03  2.72001485337E+02 -3.17765445067E+02  1.41652128328E+03  9.08149119577E+01  0.00000000000E+00  1.
       25    2    1    2    0    0  1.35030571044E+03 -2.72001485337E+02  1.10954015813E+03  1.77313390190E+03  1.24956600141E+02  0.00000000000E+00  1.
       12    1    3    3    0    0 -3.72349848691E+02  3.38609000173E+01 -8.58139653643E+01  3.83607881855E+02  1.09500724500E-05  0.00000000000E+00  1.
      -12    1    3    3    0    0 -9.77955861748E+02  2.38140585320E+02 -2.31951479703E+02  1.03291340142E+03  2.99509633217E-05  0.00000000000E+00  1.
        5    1    4    4  501    0  9.92620149866E+02 -1.45320067682E+02  8.24556736482E+02  1.29857864439E+03  0.00000000000E+00  0.00000000000E+00  1.
       -5    1    4    4    0  501  3.57685560573E+02 -1.26681417655E+02  2.84983421644E+02  4.74555257513E+02  0.00000000000E+00  0.00000000000E+00  1.
</event>
<event>
 8  50   1.0000000E+00   1.2500000E+02   7.8125000E-03   1.2380861E-01
       -1   -1    0    0    0  503  0.00000000000E+00  0.00000000000E+00  1.17342952388E+03  1.17342952388E+03  0.00000000000E+00  0.00000000000E+00  1.
        1   -1    0    0  503    0  0.00000000000E+00  0.00000000000E+00 -2.09674320000E+03  2.09674320000E+03  0.00000000000E+00  0.00000000000E+00  1.
       23    2    1    2    0    0 -1.00818657781E+03 -8.14460524760E+02 -1.37516387603E+03  1.89192028464E+03  9.21984568276E+01  0.00000000000E+00  1.
       25    2    1    2    0    0  1.00818657781E+03  8.14460524760E+02  4.51850199911E+02  1.37825243924E+03  1.25000244154E+02  0.00000000000E+00  1.
        3    1    3    3  502    0 -7.39308010838E+02 -5.54193428642E+02 -1.01454490702E+03  1.37222740812E+03  1.68587394044E-05  0.00000000000E+00  1.
       -3    1    3    3    0  502 -2.68878566969E+02 -2.60267096119E+02 -3.60618969011E+02  5.19692876522E+02  8.42936970218E-06  0.00000000000E+00  1.
        5    1    4    4  501    0  3.77479576404E+02  3.14576244469E+02  1.08072991766E+02  5.03119087031E+02  0.00000000000E+00  0.00000000000E+00  1.
       -5    1    4    4    0  501  6.30707001403E+02  4.99884280292E+02  3.43777208145E+02  8.75133352205E+02  0.00000000000E+00  0.00000000000E+00  1.
</event>
<event>
 8  50   1.0000000E+00   1.2500000E+02   7.8125000E-03   1.2380861E-01
        3   -1    0    0  503    0  0.00000000000E+00  0.00000000000E+00  1.57544911147E+03  1.57544911147E+03  0.00000000000E+00  0.00000000000E+00  1.
       -3   -1    0    0    0  503  0.00000000000E+00  0.00000000000E+00 -4.96023406626E+03  4.96023406626E+03  0.00000000000E+00  0.00000000000E+00  1.
       23    2    1    2    0    0 -2.10330535709E+03  7.35564194723E+02 -3.66124669139E+03  4.28690459048E+03  8.87441430910E+01  0.00000000000E+00  1.
       25    2    1    2    0    0  2.10330535709E+03 -7.35564194723E+02  2.76461736599E+02  2.24877858725E+03  1.25003731795E+02  0.00000000000E+00  1.
        4    1    3    3  502    0 -3.34754279113E+02  8.46584112921E+01 -5.85556805608E+02  6.79783695160E+02  1.27500000006E+00  0.00000000000E+00  1.
       -4    1    3    3    0  502 -1.76855107798E+03  6.50905783431E+02 -3.07568988579E+03  3.60712089532E+03  1.27500000003E+00  0.00000000000E+00  1.
        5    1    4    4  501    0  1.11559318022E+03 -3.82810051075E+02  2.08793045824E+02  1.19778387656E+03  0.00000000000E+00  0.00000000000E+00  1.
       -5    1    4    4    0  501  9.87712176869E+02 -3.52754143648E+02  6.76686907744E+01  1.05099471069E+03  0.00000000000E+00  0.00000000000E+00  1.
</event>
<event>
 8  50   1.0000000E+00   1.2500000E+02   7.8125000E-03   1.2380861E-01
       -1   -1    0    0    0  503  0.00000000000E+00  0.00000000000E+00  3.90844470140E+03  3.90844470140E+03  0.00000000000E+00  0.00000000000E+00  1.
        1   -1    0    0  503    0  0.00000000000E+00  0.00000000000E+00 -3.88936732863E+03  3.88936732863E+03  0.00000000000E+00  0.00000000000E+00  1.
       23    2    1    2    0    0  1.22484184417E+03 -7.48495394508E+02  3.63275490751E+03  3.90746838206E+03  1.04489424671E+02  0.00000000000E+00  1.
       25    2    1    2    0    0 -1.22484184417E+03  7.48495394508E+02 -3.61367753474E+03  3.89034364798E+03  1.25001901630E+02  0.00000000000E+00  1.
        2    1    3    3  502    0  3.35695492149E+02 -1.76156700610E+02  8.56395948240E+02  9.36555746756E+02  1.68587394044E-05  0.00000000000E+00  1.
       -2    1    3    3    0  502  8.89146352025E+02 -5.72338693898E+02  2.77635895927E+03  2.97091263530E+03  5.84003863998E-05  0.00000000000E+00  1.
        5    1    4    4  501    0 -6.21152447345E+02  3.13938419829E+02 -1.67222979222E+03  1.81128136199E+03  0.00000000000E+00  0.00000000000E+00  1.
       -5    1    4    4    0  501 -6.03689396828E+02  4.34556974679E+02 -1.94144774252E+03  2.07906228599E+03  0.00000000000E+00  0.00000000000E+00  1.
</event>
<event>
 8  50   1.0000000E+00   1.2500000E+02   7.8125000E-03   1.2380861E-01
        2   -1    0    0  503    0  0.00000000000E+00  0.00000000000E+00  2.34716309058E+03  2.34716309058E+03  0.00000000000E+00  0.00000000000E+00  1.
       -2   -1    0    0    0  503  0.00000000000E+00  0.00000000000E+00 -2.20489588695E+03  2.20489588695E+03  0.00000000000E+00  0.00000000000E+00  1.
       23    2    1    2    0    0 -6.68155167394E+02 -1.59144776310E+03 -1.40740063046E+03  2.22907949305E+03  9.42419297974E+01  0.00000000000E+00  1.
       25    2    1    2    0    0  6.68155167394E+02  1.59144776310E+03  1.54966783409E+03  2.32297948448E+03  1.25003915602E+02  0.00000000000E+00  1.
        2    1    3    3  502    0 -3.98058051326E+02 -9.76790705788E+02 -8.02067065172E+02  1.32509692935E+03  2.66560074985E-05  0.00000000000E+00  1.
       -2    1    3    3    0  502 -2.70097116067E+02 -6.14657057312E+02 -6.05333565291E+02  9.03982563703E+02  0.00000000000E+00  0.00000000000E+00  1.
        5    1    4    4  501    0  6.61719609681E+02  1.59197650671E+03  1.54497967329E+03  2.31499983383E+03  0.00000000000E+00  0.00000000000E+00  1.
       -5    1    4    4    0  501  6.43555771225E+00 -5.28743606086E-01  4.68816079711E+00  7.97965065188E+00  0.00000000000E+00  0.00000000000E+00  1.
</event>
<event>
 8  50   1.0000000E+00   1.2500000E+02   7.8125000E-03   1.2380861E-01
       -1   -1    0    0    0  503  0.00000000000E+00  0.00000000000E+00  3.86980368817E+03  3.86980368817E+03  0.00000000000E+00  0.00000000000E+00  1.
        1   -1    0    0  503    0  0.00000000000E+00  0.00000000000E+00 -2.92756495662E+03  2.92756495662E+03  0.00000000000E+00  0.00000000000E+00  1.
       23    2    1    2    0    0 -2.92794489895E+03  1.64529852086E+03  2.87541138443E+02  3.37331817691E+03  1.29333144826E+02  0.00000000000E+00  1.
       25    2    1    2    0    0  2.92794489895E+03 -1.64529852086E+03  6.54697593115E+02  3.42405046788E+03  1.24996456362E+02  0.00000000000E+00  1.
        2    1    3    3  502    0 -3.84586658420E+02  2.10837994746E+02  8.12368551511E+01  4.46048186296E+02  1.31181008083E-05  0.00000000000E+00  1.
       -2    1    3    3    0  502 -2.54335824053E+03  1.43446052611E+03  2.06304283292E+02  2.92726999062E+03  3.99840112478E-05  0.00000000000E+00  1.
        5    1    4    4  501    0  1.80662179843E+03 -1.05698597788E+03  3.58540874861E+02  2.12359441488E+03  0.00000000000E+00  0.00000000000E+00  1.
       -5    1    4    4    0  501  1.12132310053E+03 -5.88312542980E+02  2.96156718254E+02  1.30045605299E+03  0.00000000000E+00  0.00000000000E+00  1.
</event>
<event>
 8  50   1.0000000E+00   1.2500000E+02   7.8125000E-03   1.2380861E-01
       -2   -1    0    0    0  503  0.00000000000E+00  0.00000000000E+00  2.22023371049E+03  2.22023371049E+03  0.00000000000E+00  0.00000000000E+00  1.
        2   -1    0    0  503    0  0.00000000000E+00  0.00000000000E+00 -2.28700328157E+03  2.28700328157E+03  0.00000000000E+00  0.00000000000E+00  1.
       23    2    1    2    0    0  3.53215327028E+02 -2.06713335802E+03 -8.50733814046E+02  2.26491090787E+03  9.09505974014E+01  0.00000000000E+00  1.
       25    2    1    2    0    0 -3.53215327028E+02  2.06713335802E+03  7.83964242974E+02  2.24232608419E+03  1.24999786015E+02  0.00000000000E+00  1.
       14    1    3    3    0    0  3.51372212013E+02 -1.98217266624E+03 -8.29779722971E+02  2.17738496799E+03  3.37174788087E-05  0.00000000000E+00  1.
      -14    1    3    3    0    0  1.84311501532E+00 -8.49606917705E+01 -2.09540910752E+01  8.75259398799E+01  4.00360399116E-06  0.00000000000E+00  1.
        5    1    4    4  501    0 -1.61375878648E+02  6.29372366554E+02  2.66977135083E+02  7.02444688675E+02  0.00000000000E+00  0.00000000000E+00  1.
       -5    1    4    4    0  501 -1.91839448381E+02  1.43776099146E+03  5.16987107892E+02  1.53988139551E+03  0.00000000000E+00  0.00000000000E+00  1.
</event>
<event>
 8  50   1.0000000E+00   1.2500000E+02   7.8125000E-03   1.2380861E-01
       -2   -1    0    0    0  503  0.00000000000E+00  0.00000000000E+00  5.60456796743E+03  5.60456796743E+03  0.00000000000E+00  0.00000000000E+00  1.
        2   -1    0    0  503    0  0.00000000000E+00  0.00000000000E+00 -1.38988447677E+03  1.38988447677E+03  0.00000000000E+00  0.00000000000E+00  1.
       23    2    1    2    0    0  5.54847171003E+02 -1.17086444506E+03 -9.87690483539E+02  1.63170135589E+03  9.02102635376E+01  0.00000000000E+00  1.
       25    2    1    2    0    0 -5.54847171003E+02  1.17086444506E+03  5.20237397420E+03  5.36275108832E+03  1.25001343971E+02  0.00000000000E+00  1.
        1    1    3    3  502    0  2.81839951520E+02 -6.78349809005E+02 -5.92626476771E+02  9.43821149700E+02  4.29815205987E-05  0.00000000000E+00  1.
       -1    1    3    3    0  502  2.73007219483E+02 -4.92514636056E+02 -3.95064006768E+02  6.87880206186E+02  1.11510079705E-05  0.00000000000E+00  1.
        5    1    4    4  501    0 -1.54276744348E+02  3.78595885341E+02  1.86819608786E+03  1.91240497305E+03  0.00000000000E+00  0.00000000000E+00  1.
       -5    1    4    4    0  501 -4.00570426655E+02  7.92268559720E+02  3.33417788634E+03  3.45034611527E+03  0.00000000000E+00  0.00000000000E+00  1.
</event>
<event>
 8  50   1.0000000E+00   1.2500000E+02   7.8125000E-03   1.2380861E-01
        2   -1    0    0  503    0  0.00000000000E+00  0.00000000000E+00  2.50441758464E+03  2.50441758464E+03  0.00000000000E+00  0.00000000000E+00  1.
       -2   -1    0    0    0  503  0.00000000000E+00  0.00000000000E+00 -4.04192103987E+03  4.04192103987E+03  0.00000000000E+00  0.00000000000E+00  1.
       23    2    1    2    0    0 -1.09707643360E+03  7.76726967013E+02  2.19585899335E+03  2.57638885932E+03  9.54010132433E+01  0.00000000000E+00  1.
       25    2    1    2    0    0  1.09707643360E+03 -7.76726967013E+02 -3.73336244858E+03  3.96994976519E+03  1.24997932826E+02  0.00000000000E+00  1.
        1    1    3    3  502    0 -1.08072939106E+03  7.75865686719E+02  2.17784013091E+03  2.55204451692E+03  3.37174788087E-05  0.00000000000E+00  1.
       -1    1    3    3    0  502 -1.63470425378E+01  8.61280294233E-01  1.80188624329E+01  2.43443423993E+01  3.03788230387E-06  0.00000000000E+00  1.
        5    1    4    4  501    0  7.47811117102E+02 -5.57943693957E+02 -2.42920339823E+03  2.60222054839E+03  0.00000000000E+00  0.00000000000E+00  1.
       -5    1    4    4    0  501  3.49265316496E+02 -2.18783273056E+02 -1.30415905034E+03  1.36772921679E+03  0.00000000000E+00  0.00000000000E+00  1.
</event>
<event>
 8  50   1.0000000E+00   1.2500000E+02   7.8125000E-03   1.2380861E-01
       -2   -1    0    0    0  503  0.00000000000E+00  0.00000000000E+00  8.98643650666E+02  8.98643650666E+02  0.00000000000E+00  0.00000000000E+00  1.
        2   -1    0    0  503    0  0.00000000000E+00  0.00000000000E+00 -2.08885473277E+03  2.08885473277E+03  0.00000000000E+00  0.00000000000E+00  1.
       23    2    1    2    0    0  9.05749792081E+02  9.07895127085E+02 -1.10650138689E+03  1.69626313852E+03  9.11431197956E+01  0.00000000000E+00  1.
       25    2    1    2    0    0 -9.05749792081E+02 -9.07895127085E+02 -8.37096952119E+01  1.29123524491E+03  1.24999587935E+02  0.00000000000E+00  1.
        2    1    3    3  502    0  4.86496205922E+02  4.25972956052E+02 -5.38970018423E+02  8.41795817537E+02  8.42936970218E-06  0.00000000000E+00  1.
       -2    1    3    3    0  502  4.19253586160E+02  4.81922171033E+02 -5.67531368464E+02  8.54467320986E+02  0.00000000000E+00  0.00000000000E+00  1.
        5    1    4    4  501    0 -4.03589425663E+02 -4.87613027499E+02 -1.95792604123E+01  6.33272639967E+02  0.00000000000E+00  0.00000000000E+00  1.
       -5    1    4    4    0  501 -5.02160366418E+02 -4.20282099586E+02 -6.41304347996E+01  6.57962604942E+02  0.00000000000E+00  0.00000000000E+00  1.
</event>
<event>
 8  50   1.0000000E+00   1.2500000E+02   7.8125000E-03   1.2380861E-01
        2   -1    0    0  503    0  0.00000000000E+00  0.00000000000E+00  4.06216108414E+03  4.06216108414E+03  0.00000000000E+00  0.00000000000E+00  1.
       -2   -1    0    0    0  503  0.00000000000E+00  0.00000000000E+00 -1.36430076397E+03  1.36430076397E+03  0.00000000000E+00  0.00000000000E+00  1.
       23    2    1    2    0    0  5.63943047608E+01 -8.87016086930E+02  3.85775827160E+03  3.95984461336E+03  8.99590115544E+01  0.00000000000E+00  1.
       25    2    1    2    0    0 -5.63943047608E+01  8.87016086930E+02 -1.15989795143E+03  1.46661723475E+03  1.24999997803E+02  0.00000000000E+00  1.
       16    1    3    3    0    0  5.65692631667E+01 -7.94638053333E+02  3.32249988600E+03  3.41667312013E+03  0.00000000000E+00  0.00000000000E+00  1.
      -16    1    3    3    0    0 -1.74958405846E-01 -9.23780335965E+01  5.35258385604E+02  5.43171493233E+02  5.96046447754E-06  0.00000000000E+00  1.
        5    1    4    4  501    0 -3.90026713406E+01  8.53773697849E+02 -1.13792650242E+03  1.42314000029E+03  0.00000000000E+00  0.00000000000E+00  1.
       -5    1    4    4    0  501 -1.73916334202E+01  3.32423890803E+01 -2.19714490107E+01  4.34772344614E+01  0.00000000000E+00  0.00000000000E+00  1.
</event>
<event>
 8  50   1.0000000E+00   1.2500000E+02   7.8125000E-03   1.2380861E-01
       -2   -1    0    0    0  503  0.00000000000E+00  0.00000000000E+00  4.32127975179E+03  4.32127975179E+03  0.00000000000E+00  0.00000000000E+00  1.
        2   -1    0    0  503    0  0.00000000000E+00  0.00000000000E+00 -2.66291927932E+03  2.66291927932E+03  0.00000000000E+00  0.00000000000E+00  1.
       23    2    1    2    0    0 -2.40890098632E+03  9.18413914614E+02 -1.43779679633E+03  2.95330535076E+03  9.20042761546E+01  0.00000000000E+00  1.
       25    2    1    2    0    0  2.40890098632E+03 -9.18413914614E+02  3.09615726880E+03  4.03089368036E+03  1.25003795196E+02  0.00000000000E+00  1.
       12    1    3    3    0    0 -5.45312179324E+02  2.39745640533E+02 -3.03832059593E+02  6.68698187159E+02  1.03238273118E-05  0.00000000000E+00  1.
      -12    1    3    3    0    0 -1.86358880700E+03  6.78668274081E+02 -1.13396473673E+03  2.28460716360E+03  4.12953092472E-05  0.00000000000E+00  1.
        5    1    4    4  501    0  8.78951544869E+01 -1.85317405570E+01  8.15161635612E+01  1.21300735827E+02  0.00000000000E+00  0.00000000000E+00  1.
       -5    1    4    4    0  501  2.32100583183E+03 -8.99882174057E+02  3.01464110523E+03  3.90959294453E+03  0.00000000000E+00  0.00000000000E+00  1.
</event>
<event>
 8  50   1.0000000E+00   1.2500000E+02   7.8125000E-03   1.2380861E-01
        2   -1    0    0  503    0  0.00000000000E+00  0.00000000000E+00  2.75217741146E+03  2.75217741146E+03  0.00000000000E+00  0.00000000000E+00  1.
       -2   -1    0    0    0  503  0.00000000000E+00  0.00000000000E+00 -3.72675753339E+03  3.72675753339E+03  0.00000000000E+00  0.00000000000E+00  1.
       23    2    1    2    0    0 -1.70710872322E+03  2.62730875552E+03 -1.14848124642E+03  3.33841971099E+03  9.52129383584E+01  0.00000000000E+00  1.
       25    2    1    2    0    0  1.70710872322E+03 -2.62730875552E+03  1.73901124501E+02  3.14051523386E+03  1.24991372874E+02  0.00000000000E+00  1.
       14    1    3    3    0    0 -3.11925758919E+02  4.18566988298E+02 -2.03669735571E+02  5.60336830805E+02  9.42432183077E-06  0.00000000000E+00  1.
      -14    1    3    3    0    0 -1.39518296430E+03  2.20874176722E+03 -9.44811510852E+02  2.77808288018E+03  7.05251667869E-05  0.00000000000E+00  1.
        5    1    4    4  501    0  1.30576435308E+03 -2.05130701776E+03  1.81870109423E+02  2.43843346508E+03  0.00000000000E+00  0.00000000000E+00  1.
       -5    1    4    4    0  501  4.01344370142E+02 -5.76001737752E+02 -7.96898492200E+00  7.02081768784E+02  0.00000000000E+00  0.00000000000E+00  1.
</event>
<event>
 8  50   1.0000000E+00   1.2500000E+02   7.8125000E-03   1.2380861E-01
       -2   -1    0    0    0  503  0.00000000000E+00  0.00000000000E+00  5.73341802316E+03  5.73341802316E+03  0.00000000000E+00  0.00000000000E+00  1.
        2   -1    0    0  503    0  0.00000000000E+00  0.00000000000E+00 -3.75854818409E+03  3.75854818409E+03  0.00000000000E+00  0.00000000000E+00  1.
       23    2    1    2    0    0  2.26980985251E+03  4.03059608072E+03  1.36957000581E+03  4.82509337809E+03  8.97918370246E+01  0.00000000000E+00  1.
       25    2    1    2    0    0 -2.26980985251E+03 -4.03059608072E+03  6.05299833265E+02  4.66687282916E+03  1.24790155618E+02  0.00000000000E+00  1.
        3    1    3    3  502    0  2.24903406466E+03  3.98030982053E+03  1.34591066386E+03  4.76576289869E+03  2.92001931999E-05  0.00000000000E+00  1.
       -3    1    3    3    0  502  2.07757878505E+01  5.02862601876E+01  2.36593419421E+01  5.93304793980E+01  4.88567242347E-06  0.00000000000E+00  1.
        5    1    4    4  501    0 -1.39908927454E+03 -2.50055844800E+03  4.35470845654E+02  2.89825433794E+03  0.00000000000E+00  0.00000000000E+00  1.
       -5    1    4    4    0  501 -8.70720577967E+02 -1.53003763272E+03  1.69828987611E+02  1.76861849121E+03  0.00000000000E+00  0.00000000000E+00  1.
</event>
<event>
 8  50   1.0000000E+00   1.2500000E+02   7.8125000E-03   1.2380861E-01
        2   -1    0    0  503    0  0.00000000000E+00  0.00000000000E+00  2.69739431991E+03  2.69739431991E+03  0.00000000000E+00  0.00000000000E+00  1.
       -2   -1    0    0    0  503  0.00000000000E+00  0.00000000000E+00 -2.71317571244E+03  2.71317571244E+03  0.00000000000E+00  0.00000000000E+00  1.
       23    2    1    2    0    0 -3.32328019606E+02  2.45835154352E+03 -1.08142500044E+03  2.70776657020E+03  9.26582049812E+01  0.00000000000E+00  1.
       25    2    1    2    0    0  3.32328019606E+02 -2.45835154352E+03  1.06564360791E+03  2.70280346216E+03  1.24964122050E+02  0.00000000000E+00  1.
        4    1    3    3  502    0 -2.58566061023E+02  2.13916709251E+03 -9.47129335089E+02  2.35370938321E+03  1.27499999976E+00  0.00000000000E+00  1.
       -4    1    3    3    0  502 -7.37619585831E+01  3.19184451012E+02 -1.34295665353E+02  3.54057186990E+02  1.27500000000E+00  0.00000000000E+00  1.
        5    1    4    4  501    0  2.63672737497E+02 -1.58458949540E+03  6.52216439456E+02  1.73373396613E+03  0.00000000000E+00  0.00000000000E+00  1.
       -5    1    4    4    0  501  6.86552821087E+01 -8.73762048125E+02  4.13427168455E+02  9.69069496023E+02  0.00000000000E+00  0.00000000000E+00  1.
</event>
<event>
 8  50   1.0000000E+00   1.2500000E+02   7.8125000E-03   1.2380861E-01
        2   -1    0    0  503    0  0.00000000000E+00  0.00000000000E+00  1.76384496204E+03  1.76384496204E+03  0.00000000000E+00  0.00000000000E+00  1.
       -2   -1    0    0    0  503  0.00000000000E+00  0.00000000000E+00 -2.36111252470E+03  2.36111252470E+03  0.00000000000E+00  0.00000000000E+00  1.
       23    2    1    2    0    0  1.12631482784E+02  5.61405405209E+02 -2.27504980694E+03  2.34775719698E+03  9.08314481699E+01  0.00000000000E+00  1.
       25    2    1    2    0    0 -1.12631482784E+02 -5.61405405209E+02  1.67778224428E+03  1.77720028977E+03  1.25002923255E+02  0.00000000000E+00  1.
        3    1    3    3  502    0  1.07431059363E+02  5.59278883171E+02 -2.20068051154E+03  2.27317597550E+03  5.33120149970E-05  0.00000000000E+00  1.
       -3    1    3    3    0  502  5.20042342116E+00  2.12652203784E+00 -7.43692953962E+01  7.45812214801E+01  3.49463206516E-06  0.00000000000E+00  1.
        5    1    4    4  501    0  9.26425979157E+00 -4.21705771475E+00  8.82275774719E+00  1.34703800808E+01  0.00000000000E+00  0.00000000000E+00  1.
       -5    1    4    4    0  501 -1.21895742576E+02 -5.57188347494E+02  1.66895948653E+03  1.76372990969E+03  0.00000000000E+00  0.00000000000E+00  1.
</event>
<event>
 8  50   1.0000000E+00   1.2500000E+02   7.8125000E-03   1.2380861E-01
        2   -1    0    0  503    0  0.00000000000E+00  0.00000000000E+00  4.30747576836E+03  4.30747576836E+03  0.00000000000E+00  0.00000000000E+00  1.
       -2   -1    0    0    0  503  0.00000000000E+00  0.00000000000E+00 -5.98982060548E+02  5.98982060548E+02  0.00000000000E+00  0.00000000000E+00  1.
       23    2    1    2    0    0 -1.66073605133E+02 -5.24868987031E+02  4.15145455180E+03  4.18888714545E+03  9.55652958785E+01  0.00000000000E+00  1.
       25    2    1    2    0    0  1.66073605133E+02  5.24868987031E+02 -4.42960843990E+02  7.17570683458E+02  1.25001922312E+02  0.00000000000E+00  1.
       11    1    3    3    0    0 -9.27675453981E+01 -1.60721213761E+02  1.54234308616E+03  1.55346687170E+03  5.11350884188E-04  0.00000000000E+00  1.
      -11    1    3    3    0    0 -7.33060597347E+01 -3.64147773270E+02  2.60911146564E+03  2.63542027375E+03  5.11350884188E-04  0.00000000000E+00  1.
        5    1    4    4  501    0  4.34136459887E+01  2.81208347450E+02 -1.68936429920E+02  3.30911463518E+02  0.00000000000E+00  0.00000000000E+00  1.
       -5    1    4    4    0  501  1.22659959144E+02  2.43660639581E+02 -2.74024414070E+02  3.86659219940E+02  0.00000000000E+00  0.00000000000E+00  1.
</event>
<event>
 8  50   1.0000000E+00   1.2500000E+02   7.8125000E-03   1.2380861E-01
       -2   -1    0    0    0  503  0.00000000000E+00  0.00000000000E+00  3.08618906700E+03  3.08618906700E+03  0.00000000000E+00  0.00000000000E+00  1.
        2   -1    0    0  503    0  0.00000000000E+00  0.00000000000E+00 -1.64203035475E+03  1.64203035475E+03  0.00000000000E+00  0.00000000000E+00  1.
       23    2    1    2    0    0  1.10785179459E+03  2.23748493078E+02  2.76312515246E+03  2.98675551810E+03  9.19180604026E+01  0.00000000000E+00  1.
       25    2    1    2    0    0 -1.10785179459E+03 -2.23748493078E+02 -1.31896644021E+03  1.74146390364E+03  1.25000281393E+02  0.00000000000E+00  1.
       15    1    3    3    0    0  5.77166620598E+01  2.58800387821E+01  1.17316641477E+02  1.33294189192E+02  1.77680000000E+00  0.00000000000E+00  1.
      -15    1    3    3    0    0  1.05013513254E+03  1.97868454296E+02  2.64580851098E+03  2.85346132891E+03  1.77680000026E+00  0.00000000000E+00  1.
        5    1    4    4  501    0 -2.11609561656E+02  6.27406635795E+00 -2.55529005047E+02  3.31832853879E+02  0.00000000000E+00  0.00000000000E+00  1.
       -5    1    4    4    0  501 -8.96242232939E+02 -2.30022559436E+02 -1.06343743516E+03  1.40963104977E+03  0.00000000000E+00  0.00000000000E+00  1.
</event>
<event>
 8  50   1.0000000E+00   1.2500000E+02   7.8125000E-03   1.2380861E-01
       -1   -1    0    0    0  503  0.00000000000E+00  0.00000000000E+00  4.96131778973E+03  4.96131778973E+03  0.00000000000E+00  0.00000000000E+00  1.
        1   -1    0    0  503    0  0.00000000000E+00  0.00000000000E+00 -2.90495399153E+03  2.90495399153E+03  0.00000000000E+00  0.00000000000E+00  1.
       23    2    1    2    0    0  1.62888925892E+03  1.60526419209E+03 -2.10929584711E+03  3.11248342944E+03  9.09438492425E+01  0.00000000000E+00  1.
       25    2    1    2    0    0 -1.62888925892E+03 -1.60526419209E+03  4.16565964530E+03  4.75378835182E+03  1.25020275014E+02  0.00000000000E+00  1.
        4    1    3    3  502    0  2.20840001052E+02  2.37804394186E+02 -3.38685554219E+02  4.69074371737E+02  1.27500000015E+00  0.00000000000E+00  1.
       -4    1    3    3    0  502  1.40804925786E+03  1.36745979791E+03 -1.77061029289E+03  2.64340905771E+03  1.27500000137E+00  0.00000000000E+00  1.
        5    1    4    4  501    0 -3.30613698008E+02 -3.47296704388E+02  7.75756839953E+02  9.11986344702E+02  0.00000000000E+00  0.00000000000E+00  1.
       -5    1    4    4    0  501 -1.29827556091E+03 -1.25796748770E+03  3.38990280535E+03  3.84180200712E+03  0.00000000000E+00  0.00000000000E+00  1.
</event>
<event>
 8  50   1.0000000E+00   1.2500000E+02   7.8125000E-03   1.2380861E-01
        3   -1    0    0  503    0  0.00000000000E+00  0.00000000000E+00  4.53580169960E+03  4.53580169960E+03  0.00000000000E+00  0.00000000000E+00  1.
       -3   -1    0    0    0  503  0.00000000000E+00  0.00000000000E+00 -1.25002677846E+03  1.25002677846E+03  0.00000000000E+00  0.00000000000E+00  1.
       23    2    1    2    0    0 -8.59675789832E+02  2.01560506424E+03  2.76653444641E+03  3.53040284529E+03  9.12423601882E+01  0.00000000000E+00  1.
       25    2    1    2    0    0  8.59675789832E+02 -2.01560506424E+03  5.19240474737E+02  2.25542563276E+03  1.25011502300E+02  0.00000000000E+00  1.
       12    1    3    3    0    0 -4.28909350028E+02  9.73326496982E+02  1.41335527450E+03  1.76886993084E+03  1.68587394044E-05  0.00000000000E+00  1.
      -12    1    3    3    0    0 -4.30766439804E+02  1.04227856726E+03  1.35317917190E+03  1.76153291445E+03  3.37174788087E-05  0.00000000000E+00  1.
        5    1    4    4  501    0  1.97830847575E+02 -5.28512788252E+02  8.42288353509E+01  5.70576294900E+02  0.00000000000E+00  0.00000000000E+00  1.
       -5    1    4    4    0  501  6.61844942257E+02 -1.48709227599E+03  4.35011639386E+02  1.68484933786E+03  0.00000000000E+00  0.00000000000E+00  1.
</event>
<event>
 8  50   1.0000000E+00   1.2500000E+02   7.8125000E-03   1.2380861E-01
       -2   -1    0    0    0  503  0.00000000000E+00  0.00000000000E+00  5.27723450968E+03  5.27723450968E+03  0.00000000000E+00  0.00000000000E+00  1.
        2   -1    0    0  503    0  0.00000000000E+00  0.00000000000E+00 -3.97037570289E+03  3.97037570289E+03  0.00000000000E+00  0.00000000000E+00  1.
       23    2    1    2    0    0 -3.00114288742E+03  3.24408950168E+03 -5.45032013417E+02  4.45427111764E+03  1.11785366477E+02  0.00000000000E+00  1.
       25    2    1    2    0    0  3.00114288742E+03 -3.24408950168E+03  1.85189082021E+03  4.79333909493E+03  1.24998973707E+02  0.00000000000E+00  1.
        2    1    3    3  502    0 -5.85078087415E+02  6.87939778644E+02 -1.36281416313E+02  9.13318198574E+02  2.12308866512E-05  0.00000000000E+00  1.
       -2    1    3    3    0  502 -2.41606480000E+03  2.55614972303E+03 -4.08750597104E+02  3.54095291906E+03  2.23020159410E-05  0.00000000000E+00  1.
        5    1    4    4  501    0  1.30944238851E+03 -1.37202411059E+03  8.53725300759E+02  2.07988855904E+03  0.00000000000E+00  0.00000000000E+00  1.
       -5    1    4    4    0  501  1.69170049891E+03 -1.87206539108E+03  9.98165519450E+02  2.71345053589E+03  0.00000000000E+00  0.00000000000E+00  1.
</event>
<event>
 8  50   1.0000000E+00   1.2500000E+02   7.8125000E-03   1.2380861E-01
        2   -1    0    0  503    0  0.00000000000E+00  0.00000000000E+00  3.10473264211E+03  3.10473264211E+03  0.00000000000E+00  0.00000000000E+00  1.
       -2   -1    0    0    0  503  0.00000000000E+00  0.00000000000E+00 -5.74873982099E+03  5.74873982099E+03  0.00000000000E+00  0.00000000000E+00  1.
       23    2    1    2    0    0  2.49449825481E+03 -2.11142284731E+03  1.48103701078E+03  3.58923057090E+03  9.20732337078E+01  0.00000000000E+00  1.
       25    2    1    2    0    0 -2.49449825481E+03  2.11142284731E+03 -4.12504418966E+03  5.26424189220E+03  1.25000598223E+02  0.00000000000E+00  1.
       11    1    3    3    0    0  2.35465806798E+03 -2.01150023625E+03  1.38644558171E+03  3.39304865402E+03  5.04355330498E-04  0.00000000000E+00  1.
      -11    1    3    3    0    0  1.39840186832E+02 -9.99226110635E+01  9.45914290717E+01  1.96181916876E+02  5.10893651229E-04  0.00000000000E+00  1.
        5    1    4    4  501    0 -7.08020493810E+01  8.61046469309E+01 -1.58314138683E+02  1.93624138285E+02  0.00000000000E+00  0.00000000000E+00  1.
       -5    1    4    4    0  501 -2.42369620543E+03  2.02531820038E+03 -3.96673005097E+03  5.07061775391E+03  0.00000000000E+00  0.00000000000E+00  1.
</event>
<event>
 8  50   1.0000000E+00   1.2500000E+02   7.8125000E-03   1.2380861E-01
        1   -1    0    0  503    0  0.00000000000E+00  0.00000000000E+00  4.80631019944E+03  4.80631019944E+03  0.00000000000E+00  0.00000000000E+00  1.
       -1   -1    0    0    0  503  0.00000000000E+00  0.00000000000E+00 -4.59671512811E+03  4.59671512811E+03  0.00000000000E+00  0.00000000000E+00  1.
       23    2    1    2    0    0 -2.70339805417E+03  3.16453833940E+03  2.28672324342E+03  4.74977381211E+03  9.26505982343E+01  0.00000000000E+00  1.
       25    2    1    2    0    0  2.70339805417E+03 -3.16453833940E+03 -2.07712817209E+03  4.65325151545E+03  1.24997127471E+02  0.00000000000E+00  1.
        4    1    3    3  502    0 -1.29387324399E+03  1.51172680773E+03  1.14602227628E+03  2.29625664856E+03  1.27500000093E+00  0.00000000000E+00  1.
       -4    1    3    3    0  502 -1.40952481018E+03  1.65281153167E+03  1.14070096714E+03  2.45351716354E+03  1.27500000104E+00  0.00000000000E+00  1.
        5    1    4    4  501    0  1.67751898963E+02 -2.28498775707E+02 -1.68246910198E+02  3.29635272532E+02  0.00000000000E+00  0.00000000000E+00  1.
       -5    1    4    4    0  501  2.53564615521E+03 -2.93603956369E+03 -1.90888126189E+03  4.32361624291E+03  0.00000000000E+00  0.00000000000E+00  1.
</event>
<event>
 8  50   1.0000000E+00   1.2500000E+02   7.8125000E-03   1.2380861E-01
        1   -1    0    0  503    0  0.00000000000E+00  0.00000000000E+00  5.47316348054E+03  5.47316348054E+03  0.00000000000E+00  0.00000000000E+00  1.
       -1   -1    0    0    0  503  0.00000000000E+00  0.00000000000E+00 -3.23614495923E+03  3.23614495923E+03  0.00000000000E+00  0.00000000000E+00  1.
       23    2    1    2    0    0 -1.18480567286E+02 -1.77403249209E+03 -2.82696060611E+03  3.34081343590E+03  8.99956511333E+01  0.00000000000E+00  1.
       25    2    1    2    0    0  1.18480567286E+02  1.77403249209E+03  5.06397912742E+03  5.36849500386E+03  1.25000302800E+02  0.00000000000E+00  1.
       15    1    3    3    0    0 -9.97469640357E+01 -1.21805475482E+03 -2.01184154126E+03  2.35395760087E+03  1.77679999946E+00  0.00000000000E+00  1.
      -15    1    3    3    0    0 -1.87336032508E+01 -5.55977737269E+02 -8.15119064854E+02  9.86855835031E+02  1.77679999994E+00  0.00000000000E+00  1.
        5    1    4    4  501    0  8.90798518107E+01  7.05667167797E+02  1.89020908963E+03  2.01960188508E+03  0.00000000000E+00  0.00000000000E+00  1.
       -5    1    4    4    0  501  2.94007154758E+01  1.06836532429E+03  3.17377003779E+03  3.34889311878E+03  0.00000000000E+00  0.00000000000E+00  1.
</event>
<event>
 8  50   1.0000000E+00   1.2500000E+02   7.8125000E-03   1.2380861E-01
       -2   -1    0    0    0  503  0.00000000000E+00  0.00000000000E+00  1.11558003848E+03  1.11558003848E+03  0.00000000000E+00  0.00000000000E+00  1.
        2   -1    0    0  503    0  0.00000000000E+00  0.00000000000E+00 -3.91392882472E+03  3.91392882472E+03  0.00000000000E+00  0.00000000000E+00  1.
       23    2    1    2    0    0  3.57953314020E+02  1.63420603836E+03 -2.89961355870E+03  3.34884245342E+03  9.07030162636E+01  0.00000000000E+00  1.
       25    2    1    2    0    0 -3.57953314020E+02 -1.63420603836E+03  1.01264772460E+02  1.68066640978E+03  1.25000304011E+02  0.00000000000E+00  1.
        2    1    3    3  502    0  4.33844160551E+00  1.31028126703E+02 -2.17432967531E+02  2.53898183200E+02  7.88495335300E-06  0.00000000000E+00  1.
       -2    1    3    3    0  502  3.53614872414E+02  1.50317791166E+03 -2.68218059117E+03  3.09494427022E+03  3.37174788087E-05  0.00000000000E+00  1.
        5    1    4    4  501    0 -3.09522958367E+02 -1.15015397541E+03  6.49546323976E+01  1.19284438766E+03  0.00000000000E+00  0.00000000000E+00  1.
       -5    1    4    4    0  501 -4.84303556528E+01 -4.84052062954E+02  3.63101400623E+01  4.87822022125E+02  0.00000000000E+00  0.00000000000E+00  1.
</event>
<event>
 8  50   1.0000000E+00   1.2500000E+02   7.8125000E-03   1.2380861E-01
       -2   -1    0    0    0  503  0.00000000000E+00  0.00000000000E+00  5.88775907022E+03  5.88775907022E+03  0.00000000000E+00  0.00000000000E+00  1.
        2   -1    0    0  503    0  0.00000000000E+00  0.00000000000E+00 -2.21027471706E+03  2.21027471706E+03  0.00000000000E+00  0.00000000000E+00  1.
       23    2    1    2    0    0 -2.41155785933E+03 -3.41231674280E+02 -1.14592706026E+03  2.69313106108E+03  8.80665673596E+01  0.00000000000E+00  1.
       25    2    1    2    0    0  2.41155785933E+03  3.41231674280E+02  4.82341141343E+03  5.40490272620E+03  1.25001808310E+02  0.00000000000E+00  1.
        4    1    3    3  502    0 -6.14819811762E+02 -9.91810306244E+01 -2.53031421130E+02  6.72210386319E+02  1.27500000002E+00  0.00000000000E+00  1.
       -4    1    3    3    0  502 -1.79673804757E+03 -2.42050643656E+02 -8.92895639132E+02  2.02092067476E+03  1.27499999920E+00  0.00000000000E+00  1.
        5    1    4    4  501    0  1.58112586210E+01  2.51561885333E+00  1.45061224282E+01  2.16044399441E+01  0.00000000000E+00  0.00000000000E+00  1.
       -5    1    4    4    0  501  2.39574660071E+03  3.38716055427E+02  4.80890529100E+03  5.38329828626E+03  0.00000000000E+00  0.00000000000E+00  1.
</event>
<event>
 8  50   1.0000000E+00   1.2500000E+02   7.8125000E-03   1.2380861E-01
        2   -1    0    0  503    0  0.00000000000E+00  0.00000000000E+00  1.96692847303E+03  1.96692847303E+03  0.00000000000E+00  0.00000000000E+00  1.
       -2   -1    0    0    0  503  0.00000000000E+00  0.00000000000E+00 -2.97131681237E+03  2.97131681237E+03  0.00000000000E+00  0.00000000000E+00  1.
       23    2    1    2    0    0  2.38510639802E+03  3.45436221367E+02 -3.42410093134E+02  2.43586661857E+03  9.02374572450E+01  0.00000000000E+00  1.
       25    2    1    2    0    0 -2.38510639802E+03 -3.45436221367E+02 -6.61978246214E+02  2.50237866683E+03  1.25000323300E+02  0.00000000000E+00  1.
        4    1    3    3  502    0  4.51412641701E+02  8.21977294693E+01 -9.68653651161E+01  4.68950279243E+02  1.27500000006E+00  0.00000000000E+00  1.
       -4    1    3    3    0  502  1.93369375632E+03  2.63238491898E+02 -2.45544728018E+02  1.96691633933E+03  1.27500000075E+00  0.00000000000E+00  1.
        5    1    4    4  501    0 -1.34398326520E+03 -2.45000248346E+02 -4.13042701116E+02  1.42720720702E+03  0.00000000000E+00  0.00000000000E+00  1.
       -5    1    4    4    0  501 -1.04112313282E+03 -1.00435973021E+02 -2.48935545097E+02  1.07517145981E+03  0.00000000000E+00  0.00000000000E+00  1.
</event>
<event>
 8  50   1.0000000E+00   1.2500000E+02   7.8125000E-03   1.2380861E-01
        2   -1    0    0  503    0  0.00000000000E+00  0.00000000000E+00  1.29400073976E+03  1.29400073976E+03  0.00000000000E+00  0.00000000000E+00  1.
       -2   -1    0    0    0  503  0.00000000000E+00  0.00000000000E+00 -1.92328535367E+03  1.92328535367E+03  0.00000000000E+00  0.00000000000E+00  1.
       23    2    1    2    0    0 -4.11262067102E+02  1.42514424603E+03 -8.50565345263E+02  1.71236365291E+03  9.24946669416E+01  0.00000000000E+00  1.
       25    2    1    2    0    0  4.11262067102E+02 -1.42514424603E+03  2.21280731359E+02  1.50492244052E+03  1.25115067377E+02  0.00000000000E+00  1.
        5    1    3    3  502    0 -2.44225423105E+02  8.32135487692E+02 -4.44976186767E+02  9.74741964038E+02  4.74999999999E+00  0.00000000000E+00  1.
       -5    1    3    3    0  502 -1.67036643997E+02  5.93008758336E+02 -4.05589158496E+02  7.37621688869E+02  4.75000000000E+00  0.00000000000E+00  1.
        5    1    4    4  501    0  2.47582302561E+00 -9.35385577392E+01 -5.08655673135E+00  9.37094688010E+01  0.00000000000E+00  0.00000000000E+00  1.
       -5    1    4    4    0  501  4.08786244076E+02 -1.33160568829E+03  2.26367288090E+02  1.41121297172E+03  0.00000000000E+00  0.00000000000E+00  1.
</event>
<event>
 8  50   1.0000000E+00   1.2500000E+02   7.8125000E-03   1.2380861E-01
        1   -1    0    0  503    0  0.00000000000E+00  0.00000000000E+00  2.40383713594E+03  2.40383713594E+03  0.00000000000E+00  0.00000000000E+00  1.
       -1   -1    0    0    0  503  0.00000000000E+00  0.00000000000E+00 -1.47020436599E+03  1.47020436599E+03  0.00000000000E+00  0.00000000000E+00  1.
       23    2    1    2    0    0  1.43828473327E+03  2.54572672773E+02  1.68086400549E+03  2.22860869338E+03  8.90094578769E+01  0.00000000000E+00  1.
       25    2    1    2    0    0 -1.43828473327E+03 -2.54572672773E+02 -7.47231235534E+02  1.64543280855E+03  1.24997553670E+02  0.00000000000E+00  1.
        3    1    3    3  502    0  1.42588049287E+03  2.49282940536E+02  1.67528864982E+03  2.21401653666E+03  3.37174788087E-05  0.00000000000E+00  1.
       -3    1    3    3    0  502  1.24042403919E+01  5.28973223747E+00  5.57535567108E+00  1.45921567187E+01  1.45328105747E-06  0.00000000000E+00  1.
        5    1    4    4  501    0 -5.61253782242E+02 -1.58975342244E+02 -2.78206299074E+02  6.46279902494E+02  0.00000000000E+00  0.00000000000E+00  1.
       -5    1    4    4    0  501 -8.77030951024E+02 -9.55973305295E+01 -4.69024936460E+02  9.99152906056E+02  0.00000000000E+00  0.00000000000E+00  1.
</event>
<event>
 8  50   1.0000000E+00   1.2500000E+02   7.8125000E-03   1.2380861E-01
        2   -1    0    0  503    0  0.00000000000E+00  0.00000000000E+00  4.87628072500E+03  4.87628072500E+03  0.00000000000E+00  0.00000000000E+00  1.
       -2   -1    0    0    0  503  0.00000000000E+00  0.00000000000E+00 -5.51729859216E+03  5.51729859216E+03  0.00000000000E+00  0.00000000000E+00  1.
       23    2    1    2    0    0 -1.73565343483E+03 -4.15679116538E-01  4.57550117380E+03  4.89447128624E+03  9.02505497350E+01  0.00000000000E+00  1.
       25    2    1    2    0    0  1.73565343483E+03  4.15679116538E-01 -5.21651904096E+03  5.49910803092E+03  1.25000849668E+02  0.00000000000E+00  1.
        5    1    3    3  502    0 -1.42525044303E+03 -3.18319152821E+01  3.79149896938E+03  4.05065909372E+03  4.74999999960E+00  0.00000000000E+00  1.
       -5    1    3    3    0  502 -3.10402991798E+02  3.14162361656E+01  7.84002204420E+02  8.43812192521E+02  4.74999999997E+00  0.00000000000E+00  1.
        5    1    4    4  501    0  5.00788983466E+02 -3.08249118442E+01 -1.36077842881E+03  1.45033020842E+03  0.00000000000E+00  0.00000000000E+00  1.
       -5    1    4    4    0  501  1.23486445136E+03  3.12405909607E+01 -3.85574061215E+03  4.04877782250E+03  0.00000000000E+00  0.00000000000E+00  1.
</event>
<event>
 8  50   1.0000000E+00   1.2500000E+02   7.8125000E-03   1.2380861E-01
       -1   -1    0    0    0  503  0.00000000000E+00  0.00000000000E+00  5.06111506123E+03  5.06111506123E+03  0.00000000000E+00  0.00000000000E+00  1.
        1   -1    0    0  503    0  0.00000000000E+00  0.00000000000E+00 -1.50002988271E+03  1.50002988271E+03  0.00000000000E+00  0.00000000000E+00  1.
       23    2    1    2    0    0  2.27067567191E+03  8.30091292091E+02  2.12024345763E+02  2.42873010487E+03  9.35737083739E+01  0.00000000000E+00  1.
       25    2    1    2    0    0 -2.27067567191E+03 -8.30091292091E+02  3.34906083276E+03  4.13241483907E+03  1.24997521676E+02  0.00000000000E+00  1.
       12    1    3    3    0    0  2.25469201774E+03  8.32123845940E+02  2.10479703423E+02  2.41254386394E+03  6.17994110385E-05  0.00000000000E+00  1.
      -12    1    3    3    0    0  1.59836541628E+01 -2.03255384907E+00  1.54464233980E+00  1.61862409318E+01  2.18953669898E-06  0.00000000000E+00  1.
        5    1    4    4  501    0 -4.23303353588E+02 -1.32911981559E+02  5.41928821887E+02  7.00384303074E+02  0.00000000000E+00  0.00000000000E+00  1.
       -5    1    4    4    0  501 -1.84737231832E+03 -6.97179310533E+02  2.80713201087E+03  3.43203053599E+03  0.00000000000E+00  0.00000000000E+00  1.
</event>
<event>
 8  50   1.0000000E+00   1.2500000E+02   7.8125000E-03   1.2380861E-01
        2   -1    0    0  503    0  0.00000000000E+00  0.00000000000E+00  3.29055538932E+03  3.29055538932E+03  0.00000000000E+00  0.00000000000E+00  1.
       -2   -1    0    0    0  503  0.00000000000E+00  0.00000000000E+00 -2.50931607071E+03  2.50931607071E+03  0.00000000000E+00  0.00000000000E+00  1.
       23    2    1    2    0    0  2.79517965389E+03  4.29835120974E+02  8.92381783379E+02  2.96689348794E+03  9.12370139698E+01  0.00000000000E+00  1.
       25    2    1    2    0    0 -2.79517965389E+03 -4.29835120974E+02 -1.11142464767E+02  2.83297797208E+03  1.24996056283E+02  0.00000000000E+00  1.
        1    1    3    3  502    0  2.18903068897E+01 -4.14485792978E+00  1.01167680018E+01  2.44686407017E+01  2.41426404506E-06  0.00000000000E+00  1.
       -1    1    3    3    0  502  2.77328934700E+03  4.33979978904E+02  8.82265015378E+02  2.94242484724E+03  5.19621246283E-05  0.00000000000E+00  1.
        5    1    4    4  501    0 -2.40826279654E+03 -3.53102062143E+02 -1.35452283992E+02  2.43777728366E+03  0.00000000000E+00  0.00000000000E+00  1.
       -5    1    4    4    0  501 -3.86916857352E+02 -7.67330588308E+01  2.43098192241E+01  3.95200688425E+02  0.00000000000E+00  0.00000000000E+00  1.
</event>
<event>
 8  50   1.0000000E+00   1.2500000E+02   7.8125000E-03   1.2380861E-01
        3   -1    0    0  503    0  0.00000000000E+00  0.00000000000E+00  5.71031428759E+03  5.71031428759E+03  0.00000000000E+00  0.00000000000E+00  1.
       -3   -1    0    0    0  503  0.00000000000E+00  0.00000000000E+00 -5.04260881399E+03  5.04260881399E+03  0.00000000000E+00  0.00000000000E+00  1.
       23    2    1    2    0    0  4.63508598091E+03 -1.10231215576E+03 -2.13753846994E+03  5.22263092570E+03  8.76865803142E+01  0.00000000000E+00  1.
       25    2    1    2    0    0 -4.63508598091E+03  1.10231215576E+03  2.80524394354E+03  5.53029217588E+03  1.24995314394E+02  0.00000000000E+00  1.
       13    1    3    3    0    0  3.27515907705E+02 -9.76112184034E+01 -1.66528441127E+02  3.80166217103E+02  1.05660000055E-01  0.00000000000E+00  1.
      -13    1    3    3    0    0  4.30757007321E+03 -1.00470093736E+03 -1.97101002881E+03  4.84246470859E+03  1.05660018485E-01  0.00000000000E+00  1.
        5    1    4    4  501    0 -2.61644642134E+03  6.01650180070E+02  1.51252227278E+03  3.08147666559E+03  0.00000000000E+00  0.00000000000E+00  1.
       -5    1    4    4    0  501 -2.01863955958E+03  5.00661975695E+02  1.29272167076E+03  2.44881551029E+03  0.00000000000E+00  0.00000000000E+00  1.
</event>
<event>
 8  50   1.0000000E+00   1.2500000E+02   7.8125000E-03   1.2380861E-01
       -2   -1    0    0    0  503  0.00000000000E+00  0.00000000000E+00  1.92330130401E+03  1.92330130401E+03  0.00000000000E+00  0.00000000000E+00  1.
        2   -1    0    0  503    0  0.00000000000E+00  0.00000000000E+00 -1.56665324346E+03  1.56665324346E+03  0.00000000000E+00  0.00000000000E+00  1.
       23    2    1    2    0    0 -6.96603377482E+02  5.42763561761E+02  1.67645924773E+03  1.89704194078E+03  9.16731492014E+01  0.00000000000E+00  1.
       25    2    1    2    0    0  6.96603377482E+02 -5.42763561761E+02 -1.31981118718E+03  1.59291260669E+03  1.24981811726E+02  0.00000000000E+00  1.
       11    1    3    3    0    0 -6.51274012097E+02  5.32723056175E+02  1.58685590435E+03  1.79612453761E+03  5.11628716800E-04  0.00000000000E+00  1.
      -11    1    3    3    0    0 -4.53293653849E+01  1.00405055861E+01  8.96033433781E+01  1.00917403174E+02  5.10994690391E-04  0.00000000000E+00  1.
        5    1    4    4  501    0  3.60042590544E+01 -7.59912734774E+00 -9.56936431606E+01  1.02524761633E+02  0.00000000000E+00  0.00000000000E+00  1.
       -5    1    4    4    0  501  6.60599118428E+02 -5.35164434413E+02 -1.22411754402E+03  1.49038784506E+03  0.00000000000E+00  0.00000000000E+00  1.
</event>
<event>
 8  50   1.0000000E+00   1.2500000E+02   7.8125000E-03   1.2380861E-01
        2   -1    0    0  503    0  0.00000000000E+00  0.00000000000E+00  2.39109088003E+03  2.39109088003E+03  0.00000000000E+00  0.00000000000E+00  1.
       -2   -1    0    0    0  503  0.00000000000E+00  0.00000000000E+00 -5.22227287219E+03  5.22227287219E+03  0.00000000000E+00  0.00000000000E+00  1.
       23    2    1    2    0    0 -1.18654861774E+03 -2.93021394307E+03  2.81141377391E+02  3.17531990407E+03  9.77990014693E+01  0.00000000000E+00  1.
       25    2    1    2    0    0  1.18654861774E+03  2.93021394307E+03 -3.11232336955E+03  4.43804384815E+03  1.25000268084E+02  0.00000000000E+00  1.
        3    1    3    3  502    0 -1.05592017710E+03 -2.65231468344E+03  2.30054827498E+02  2.86402964790E+03  6.99561512131E-05  0.00000000000E+00  1.
       -3    1    3    3    0  502 -1.30628440639E+02 -2.77899259625E+02  5.10865498926E+01  3.11290256166E+02  8.26309361041E-06  0.00000000000E+00  1.
        5    1    4    4  501    0  7.83588906337E+02  2.08645266704E+03 -2.19946328709E+03  3.13128329239E+03  0.00000000000E+00  0.00000000000E+00  1.
       -5    1    4    4    0  501  4.02959711407E+02  8.43761276021E+02 -9.12860082456E+02  1.30676055575E+03  0.00000000000E+00  0.00000000000E+00  1.
</event>
<event>
 8  50   1.0000000E+00   1.2500000E+02   7.8125000E-03   1.2380861E-01
       -2   -1    0    0    0  503  0.00000000000E+00  0.00000000000E+00  1.19217161975E+03  1.19217161975E+03  0.00000000000E+00  0.00000000000E+00  1.
        2   -1    0    0  503    0  0.00000000000E+00  0.00000000000E+00 -2.16004384066E+03  2.16004384066E+03  0.00000000000E+00  0.00000000000E+00  1.
       23    2    1    2    0    0 -1.35372914477E+03  7.53636825601E+02 -9.04878489207E+02  1.79653413142E+03  9.04364021222E+01  0.00000000000E+00  1.
       25    2    1    2    0    0  1.35372914477E+03 -7.53636825601E+02 -6.29937317041E+01  1.55568132899E+03  1.25000499379E+02  0.00000000000E+00  1.
        5    1    3    3  502    0 -1.24234275732E+03  7.11286285861E+02 -8.15952911138E+02  1.64776983308E+03  4.75000000008E+00  0.00000000000E+00  1.
       -5    1    3    3    0  502 -1.11386387447E+02  4.23505397398E+01 -8.89255780690E+01  1.48764298337E+02  4.75000000000E+00  0.00000000000E+00  1.
        5    1    4    4  501    0  1.14905497566E+03 -6.81554156846E+02 -3.10069837620E+01  1.33634009101E+03  0.00000000000E+00  0.00000000000E+00  1.
       -5    1    4    4    0  501  2.04674169109E+02 -7.20826687546E+01 -3.19867479421E+01  2.19341237982E+02  0.00000000000E+00  0.00000000000E+00  1.
</event>
<event>
 8  50   1.0000000E+00   1.2500000E+02   7.8125000E-03   1.2380861E-01
       -2   -1    0    0    0  503  0.00000000000E+00  0.00000000000E+00  3.14262647266E+03  3.14262647266E+03  0.00000000000E+00  0.00000000000E+00  1.
        2   -1    0    0  503    0  0.00000000000E+00  0.00000000000E+00 -5.34265643272E+03  5.34265643272E+03  0.00000000000E+00  0.00000000000E+00  1.
       23    2    1    2    0    0  2.87914342538E+03 -6.45008886960E+02  1.84195864296E+03  3.47940580157E+03  8.91614347351E+01  0.00000000000E+00  1.
       25    2    1    2    0    0 -2.87914342538E+03  6.45008886960E+02 -4.04198860301E+03  5.00587710381E+03  1.25021531470E+02  0.00000000000E+00  1.
       16    1    3    3    0    0  2.15293865926E+03 -4.53329787302E+02  1.40435863383E+03  2.61014864309E+03  3.37174788087E-05  0.00000000000E+00  1.
      -16    1    3    3    0    0  7.26204766124E+02 -1.91679099658E+02  4.37600009125E+02  8.69257158482E+02  1.33280037493E-05  0.00000000000E+00  1.
        5    1    4    4  501    0 -2.06406664058E+02  3.50475604838E+01 -2.38254403612E+02  3.17170621754E+02  0.00000000000E+00  0.00000000000E+00  1.
       -5    1    4    4    0  501 -2.67273676132E+03  6.09961326476E+02 -3.80373419940E+03  4.68870648205E+03  0.00000000000E+00  0.00000000000E+00  1.
</event>
<event>
 8  50   1.0000000E+00   1.2500000E+02   7.8125000E-03   1.2380861E-01
       -1   -1    0    0    0  503  0.00000000000E+00  0.00000000000E+00  3.43795020418E+03  3.43795020418E+03  0.00000000000E+00  0.00000000000E+00  1.
        1   -1    0    0  503    0  0.00000000000E+00  0.00000000000E+00 -2.13960172982E+03  2.13960172982E+03  0.00000000000E+00  0.00000000000E+00  1.
       23    2    1    2    0    0 -7.54634119337E+02  2.41289713826E+03 -3.54330527479E+02  2.55455380922E+03  9.30042344869E+01  0.00000000000E+00  1.
       25    2    1    2    0    0  7.54634119337E+02 -2.41289713826E+03  1.65267900184E+03  3.02299812477E+03  1.24998101362E+02  0.00000000000E+00  1.
        5    1    3    3  502    0 -7.31806375093E+02  2.36352044638E+03 -3.57182125920E+02  2.49987421776E+03  4.75000000002E+00  0.00000000000E+00  1.
       -5    1    3    3    0  502 -2.28277442448E+01  4.93766918820E+01  2.85159844106E+00  5.46795914595E+01  4.75000000000E+00  0.00000000000E+00  1.
        5    1    4    4  501    0  7.14856068676E+02 -2.17535596111E+03  1.47594712770E+03  2.72426369506E+03  0.00000000000E+00  0.00000000000E+00  1.
       -5    1    4    4    0  501  3.97780506618E+01 -2.37541177149E+02  1.76731874143E+02  2.98734429709E+02  0.00000000000E+00  0.00000000000E+00  1.
</event>
<event>
 8  50   1.0000000E+00   1.2500000E+02   7.8125000E-03   1.2380861E-01
       -2   -1    0    0    0  503  0.00000000000E+00  0.00000000000E+00  3.61569799344E+03  3.61569799344E+03  0.00000000000E+00  0.00000000000E+00  1.
        2   -1    0    0  503    0  0.00000000000E+00  0.00000000000E+00 -2.72929058424E+03  2.72929058424E+03  0.00000000000E+00  0.00000000000E+00  1.
       23    2    1    2    0    0  7.53836804839E+02  1.11931537085E+03 -2.41963743835E+03  2.77193748308E+03  8.86298442089E+01  0.00000000000E+00  1.
       25    2    1    2    0    0 -7.53836804839E+02 -1.11931537085E+03  3.30604484755E+03  3.57305109459E+03  1.24999051228E+02  0.00000000000E+00  1.
        3    1    3    3  502    0  6.46607233892E+02  1.01006755581E+03 -2.14145797339E+03  2.45442042731E+03  4.76837158203E-05  0.00000000000E+00  1.
       -3    1    3    3    0  502  1.07229570947E+02  1.09247815044E+02 -2.78179464969E+02  3.17517055775E+02  7.88495335300E-06  0.00000000000E+00  1.
        5    1    4    4  501    0 -4.86557061441E+02 -7.78106018286E+02  2.11167078357E+03  2.30246395149E+03  0.00000000000E+00  0.00000000000E+00  1.
       -5    1    4    4    0  501 -2.67279743398E+02 -3.41209352562E+02  1.19437406398E+03  1.27058714310E+03  0.00000000000E+00  0.00000000000E+00  1.
</event>
<event>
 8  50   1.0000000E+00   1.2500000E+02   7.8125000E-03   1.2380861E-01
        1   -1    0    0  503    0  0.00000000000E+00  0.00000000000E+00  1.92806942511E+03  1.92806942511E+03  0.00000000000E+00  0.00000000000E+00  1.
       -1   -1    0    0    0  503  0.00000000000E+00  0.00000000000E+00 -4.75219292354E+03  4.75219292354E+03  0.00000000000E+00  0.00000000000E+00  1.
       23    2    1    2    0    0  2.77272081424E+02 -3.53370683463E+02 -4.71221847896E+03  4.73545435400E+03  1.33320284681E+02  0.00000000000E+00  1.
       25    2    1    2    0    0 -2.77272081424E+02  3.53370683463E+02  1.88809498053E+03  1.94480799464E+03  1.24999333853E+02  0.00000000000E+00  1.
        4    1    3    3  502    0  1.87288445213E+02 -2.64091545834E+02 -3.89850934602E+03  3.91193022087E+03  1.27500000182E+00  0.00000000000E+00  1.
       -4    1    3    3    0  502  8.99836362112E+01 -8.92791376295E+01 -8.13709132940E+02  8.23524133136E+02  1.27499999998E+00  0.00000000000E+00  1.
        5    1    4    4  501    0 -1.73544331824E+01 -2.40853139993E-01  2.32158554473E+01  2.89863813793E+01  0.00000000000E+00  0.00000000000E+00  1.
       -5    1    4    4    0  501 -2.59917648241E+02  3.53611536603E+02  1.86487912508E+03  1.91582161327E+03  0.00000000000E+00  0.00000000000E+00  1.
</event>
<event>
 8  50   1.0000000E+00   1.2500000E+02   7.8125000E-03   1.2380861E-01
       -2   -1    0    0    0  503  0.00000000000E+00  0.00000000000E+00  2.88895818176E+03  2.88895818176E+03  0.00000000000E+00  0.00000000000E+00  1.
        2   -1    0    0  503    0  0.00000000000E+00  0.00000000000E+00 -1.69727835015E+03  1.69727835015E+03  0.00000000000E+00  0.00000000000E+00  1.
       23    2    1    2    0    0  1.20988093946E+03  3.58923194366E+02  2.47650661414E+03  2.78095474731E+03  8.93674972868E+01  0.00000000000E+00  1.
       25    2    1    2    0    0 -1.20988093946E+03 -3.58923194366E+02 -1.28482678252E+03  1.80528178460E+03  1.24998854392E+02  0.00000000000E+00  1.
        1    1    3    3  502    0  9.27410542582E+02  2.37138220305E+02  1.84778254660E+03  2.08101542271E+03  0.00000000000E+00  0.00000000000E+00  1.
       -1    1    3    3    0  502  2.82470396878E+02  1.21784974061E+02  6.28724067538E+02  6.99939324600E+02  1.19209289551E-05  0.00000000000E+00  1.
        5    1    4    4  501    0 -1.09233261267E+03 -3.01267391936E+02 -1.10383370328E+03  1.58189804433E+03  0.00000000000E+00  0.00000000000E+00  1.
       -5    1    4    4    0  501 -1.17548326785E+02 -5.76558024296E+01 -1.80993079238E+02  2.23383740267E+02  0.00000000000E+00  0.00000000000E+00  1.
</event>
<event>
 8  50   1.0000000E+00   1.2500000E+02   7.8125000E-03   1.2380861E-01
        2   -1    0    0  503    0  0.00000000000E+00  0.00000000000E+00  4.48147664670E+03  4.48147664670E+03  0.00000000000E+00  0.00000000000E+00  1.
       -2   -1    0    0    0  503  0.00000000000E+00  0.00000000000E+00 -2.62386322194E+03  2.62386322194E+03  0.00000000000E+00  0.00000000000E+00  1.
       23    2    1    2    0    0 -9.04022978707E+02 -2.86114053540E+03  2.64467067248E+03  4.00075177012E+03  9.13731411266E+01  0.00000000000E+00  1.
       25    2    1    2    0    0  9.04022978707E+02  2.86114053540E+03 -7.87057247714E+02  3.10458809852E+03  1.25001763863E+02  0.00000000000E+00  1.
       13    1    3    3    0    0 -1.88317137128E+02 -4.82157343113E+02  4.61031065431E+02  6.93172923670E+02  1.05660001168E-01  0.00000000000E+00  1.
      -13    1    3    3    0    0 -7.15705841579E+02 -2.37898319229E+03  2.18363960705E+03  3.30757884645E+03  1.05660002345E-01  0.00000000000E+00  1.
        5    1    4    4  501    0  7.66030002512E+02  2.55218954779E+03 -7.07384629409E+02  2.75696689616E+03  0.00000000000E+00  0.00000000000E+00  1.
       -5    1    4    4    0  501  1.37992976196E+02  3.08950987607E+02 -7.96726183048E+01  3.47621202360E+02  0.00000000000E+00  0.00000000000E+00  1.
</event>
<event>
 8  50   1.0000000E+00   1.2500000E+02   7.8125000E-03   1.2380861E-01
        2   -1    0    0  503    0  0.00000000000E+00  0.00000000000E+00  2.99030276614E+03  2.99030276614E+03  0.00000000000E+00  0.00000000000E+00  1.
       -2   -1    0    0    0  503  0.00000000000E+00  0.00000000000E+00 -2.11999407359E+03  2.11999407359E+03  0.00000000000E+00  0.00000000000E+00  1.
       23    2    1    2    0    0  1.81118276149E+03 -5.92097377010E+02 -1.23198914754E+03  2.27018312664E+03  7.05114843147E+01  0.00000000000E+00  1.
       25    2    1    2    0    0 -1.81118276149E+03  5.92097377010E+02  2.10229784009E+03  2.84011371310E+03  1.25009581520E+02  0.00000000000E+00  1.
        4    1    3    3  502    0  4.06772751304E+02 -1.60498166915E+02 -2.99204741902E+02  5.29857373251E+02  1.27499999999E+00  0.00000000000E+00  1.
       -4    1    3    3    0  502  1.40441001019E+03 -4.31599210094E+02 -9.32784405639E+02  1.74032575339E+03  1.27500000054E+00  0.00000000000E+00  1.
        5    1    4    4  501    0 -1.29936844401E+03  4.43850278970E+02  1.43376824886E+03  1.98520850665E+03  0.00000000000E+00  0.00000000000E+00  1.
       -5    1    4    4    0  501 -5.11814317478E+02  1.48247098040E+02  6.68529591239E+02  8.54905206450E+02  0.00000000000E+00  0.00000000000E+00  1.
</event>
<event>
 8  50   1.0000000E+00   1.2500000E+02   7.8125000E-03   1.2380861E-01
       -1   -1    0    0    0  503  0.00000000000E+00  0.00000000000E+00  1.21360240673E+03  1.21360240673E+03  0.00000000000E+00  0.00000000000E+00  1.
        1   -1    0    0  503    0  0.00000000000E+00  0.00000000000E+00 -9.14507652303E+02  9.14507652303E+02  0.00000000000E+00  0.00000000000E+00  1.
       23    2    1    2    0    0  8.90283368018E+02 -5.12091299534E+02  3.54017604240E+02  1.09201974200E+03  1.11070600845E+02  0.00000000000E+00  1.
       25    2    1    2    0    0 -8.90283368018E+02  5.12091299534E+02 -5.49228498131E+01  1.03609031704E+03  1.24998604769E+02  0.00000000000E+00  1.
        1    1    3    3  502    0  2.85102992731E+01 -1.91286007149E+01  3.54609113872E+01  4.93580466222E+01  2.23517417908E-06  0.00000000000E+00  1.
       -1    1    3    3    0  502  8.61773068745E+02 -4.92962698819E+02  3.18556692853E+02  1.04266169538E+03  4.21468485109E-06  0.00000000000E+00  1.
        5    1    4    4  501    0 -2.67705723987E+02  2.14854606659E+02  7.80930156360E+00  3.43350901919E+02  0.00000000000E+00  0.00000000000E+00  1.
       -5    1    4    4    0  501 -6.22577644031E+02  2.97236692875E+02 -6.27321513767E+01  6.92739415116E+02  0.00000000000E+00  0.00000000000E+00  1.
</event>
<event>
 8  50   1.0000000E+00   1.2500000E+02   7.8125000E-03   1.2380861E-01
       -2   -1    0    0    0  503  0.00000000000E+00  0.00000000000E+00  2.51378159362E+03  2.51378159362E+03  0.00000000000E+00  0.00000000000E+00  1.
        2   -1    0    0  503    0  0.00000000000E+00  0.00000000000E+00 -3.79719414699E+03  3.79719414699E+03  0.00000000000E+00  0.00000000000E+00  1.
       23    2    1    2    0    0 -8.86450274595E+02  1.23610593416E+03 -3.38590831075E+03  3.71292497653E+03  8.76631208546E+01  0.00000000000E+00  1.
       25    2    1    2    0    0  8.86450274595E+02 -1.23610593416E+03  2.10249575738E+03  2.59805076407E+03  1.25009571915E+02  0.00000000000E+00  1.
       12    1    3    3    0    0 -6.01466633540E+02  7.67071688219E+02 -2.15342868971E+03  2.36377160652E+03  2.38418579102E-05  0.00000000000E+00  1.
      -12    1    3    3    0    0 -2.84983641055E+02  4.69034245940E+02 -1.23247962104E+03  1.34915337001E+03  1.68587394044E-05  0.00000000000E+00  1.
        5    1    4    4  501    0  3.99244643045E+02 -4.99696731005E+02  7.95509430000E+02  1.02074892172E+03  0.00000000000E+00  0.00000000000E+00  1.
       -5    1    4    4    0  501  4.87205631550E+02 -7.36409203153E+02  1.30698632738E+03  1.57730184235E+03  0.00000000000E+00  0.00000000000E+00  1.
</event>
</LesHouchesEvents>
