<LesHouchesEvents version="1.0">
<!--
Output from the generator given in http://arxiv.org/abs/1001.3396
-->
<init>
2212 2212   7000.0000000000000000   7000.0000000000000000 0 0 10042 10042 3  1
0.43538820803E-02  0.72559367904E-05  0.87076000000E-07 100
</init>
<event>
9 100 1.0000000E+00 1.0000000E+03 7.8125000E-03 0.0000000E+00
 21 -1  0  0 501 502  0.0000000E+00  0.0000000E+00  4.2946291E+02  4.2946291E+02  0.0000000E+00  0.0000000E+00  1.0000000E+00
 21 -1  0  0 502 501  0.0000000E+00  0.0000000E+00 -5.8224380E+02  5.8224380E+02  0.0000000E+00  0.0000000E+00  1.0000000E+00
 39  2  1  2   0   0  7.9580786E-13 -2.9842795E-13 -1.5278089E+02  1.0117067E+03  1.0001042E+03  0.0000000E+00  1.0000000E+00
 23  2  3  3   0   0  2.3516370E+02 -8.8299532E+01 -5.0397804E+02  5.7027876E+02  9.0139996E+01  0.0000000E+00  1.0000000E+00
 23  2  3  3   0   0 -2.3516370E+02  8.8299532E+01  3.5119715E+02  4.4142796E+02  9.1762884E+01  0.0000000E+00  1.0000000E+00
-11  1  4  4   0   0  6.2445091E+01 -2.0642167E+01 -2.3143624E+02  2.4059972E+02  3.8146973E-06  0.0000000E+00  1.0000000E+00
 11  1  4  4   0   0  1.7271861E+02 -6.7657365E+01 -2.7254180E+02  3.2967904E+02  3.8146973E-06  0.0000000E+00  1.0000000E+00
-13  1  5  5   0   0 -2.2285090E+02  9.8176142E+01  3.4889737E+02  4.2547673E+02  1.1107114E-06  0.0000000E+00  1.0000000E+00
 13  1  5  5   0   0 -1.2312806E+01 -9.8766093E+00  2.2997873E+00  1.5951226E+01  8.5299224E-06  0.0000000E+00  1.0000000E+00
</event>
<event>
9 100 1.0000000E+00 1.0000000E+03 7.8125000E-03 0.0000000E+00
 21 -1  0  0 501 502  0.0000000E+00  0.0000000E+00  7.0543852E+02  7.0543852E+02  0.0000000E+00  0.0000000E+00  1.0000000E+00
 21 -1  0  0 502 501  0.0000000E+00  0.0000000E+00 -5.5104178E+02  5.5104178E+02  0.0000000E+00  0.0000000E+00  1.0000000E+00
 39  2  1  2   0   0 -1.9895197E-13  6.2527761E-13  1.5439675E+02  1.2564803E+03  1.2469581E+03  0.0000000E+00  1.0000000E+00
 23  2  3  3   0   0 -1.6467946E+02  4.9577941E+02  4.0747510E+02  6.6894442E+02  9.2380387E+01  0.0000000E+00  1.0000000E+00
 23  2  3  3   0   0  1.6467946E+02 -4.9577941E+02 -2.5307835E+02  5.8753588E+02  9.0737055E+01  0.0000000E+00  1.0000000E+00
-11  1  4  4   0   0 -1.7009812E+02  4.9463131E+02  4.0801738E+02  6.6337899E+02  2.1402368E-06  0.0000000E+00  1.0000000E+00
 11  1  4  4   0   0  5.4186580E+00  1.1481005E+00 -5.4227825E-01  5.5654340E+00  3.0517578E-05  0.0000000E+00  1.0000000E+00
-13  1  5  5   0   0  6.5912565E+01 -1.9966133E+02 -1.5191326E+02  2.5939690E+02  1.3621194E-05  0.0000000E+00  1.0000000E+00
 13  1  5  5   0   0  9.8766894E+01 -2.9611808E+02 -1.0116509E+02  3.2813898E+02  1.2063132E-05  0.0000000E+00  1.0000000E+00
</event>
<event>
9 100 1.0000000E+00 1.0000000E+03 7.8125000E-03 0.0000000E+00
 21 -1  0  0 501 502  0.0000000E+00  0.0000000E+00  5.2974218E+02  5.2974218E+02  0.0000000E+00  0.0000000E+00  1.0000000E+00
 21 -1  0  0 502 501  0.0000000E+00  0.0000000E+00 -4.6806779E+02  4.6806779E+02  0.0000000E+00  0.0000000E+00  1.0000000E+00
 39  2  1  2   0   0  1.1937118E-12 -1.3073986E-12  6.1674382E+01  9.9780997E+02  9.9590211E+02  0.0000000E+00  1.0000000E+00
 23  2  3  3   0   0 -2.9481163E+02  3.3940014E+02 -1.6317423E+02  4.8694938E+02  9.1583422E+01  0.0000000E+00  1.0000000E+00
 23  2  3  3   0   0  2.9481163E+02 -3.3940014E+02  2.2484861E+02  5.1086059E+02  9.1188265E+01  0.0000000E+00  1.0000000E+00
-11  1  4  4   0   0 -1.4209323E+01  1.5901223E+01 -3.3129702E+01  3.9399631E+01  1.4016093E-05  0.0000000E+00  1.0000000E+00
 11  1  4  4   0   0 -2.8060230E+02  3.2349891E+02 -1.3004452E+02  4.4754975E+02  3.0532476E-06  0.0000000E+00  1.0000000E+00
-13  1  5  5   0   0  2.2172219E+02 -2.9386521E+02  1.5278919E+02  3.9857500E+02  2.1324806E-06  0.0000000E+00  1.0000000E+00
 13  1  5  5   0   0  7.3089433E+01 -4.5534926E+01  7.2059416E+01  1.1228559E+02  1.0446979E-05  0.0000000E+00  1.0000000E+00
</event>
<event>
9 100 1.0000000E+00 1.0000000E+03 7.8125000E-03 0.0000000E+00
 21 -1  0  0 501 502  0.0000000E+00  0.0000000E+00  4.3704116E+02  4.3704116E+02  0.0000000E+00  0.0000000E+00  1.0000000E+00
 21 -1  0  0 502 501  0.0000000E+00  0.0000000E+00 -5.8163511E+02  5.8163511E+02  0.0000000E+00  0.0000000E+00  1.0000000E+00
 39  2  1  2   0   0 -1.5631940E-13  7.9580786E-13 -1.4459395E+02  1.0186763E+03  1.0083620E+03  0.0000000E+00  1.0000000E+00
 23  2  3  3   0   0 -4.9000671E+01  2.5914407E+02  3.5262629E+02  4.4852315E+02  8.5270190E+01  0.0000000E+00  1.0000000E+00
 23  2  3  3   0   0  4.9000671E+01 -2.5914407E+02 -4.9722024E+02  5.7015312E+02  9.1048892E+01  0.0000000E+00  1.0000000E+00
-11  1  4  4   0   0  1.9144167E+01  6.2775427E+01  5.5735666E+01  8.6102949E+01  6.6072495E-06  0.0000000E+00  1.0000000E+00
 11  1  4  4   0   0 -6.8144838E+01  1.9636864E+02  2.9689062E+02  3.6242020E+02  9.5367432E-07  0.0000000E+00  1.0000000E+00
-13  1  5  5   0   0  4.0859643E+01 -2.5609997E+02 -4.2837395E+02  5.0076036E+02  4.1569700E-06  0.0000000E+00  1.0000000E+00
 13  1  5  5   0   0  8.1410276E+00 -3.0441037E+00 -6.8846291E+01  6.9392757E+01  1.7892516E-05  0.0000000E+00  1.0000000E+00
</event>
<event>
9 100 1.0000000E+00 1.0000000E+03 7.8125000E-03 0.0000000E+00
 21 -1  0  0 501 502  0.0000000E+00  0.0000000E+00  2.5220715E+02  2.5220715E+02  0.0000000E+00  0.0000000E+00  1.0000000E+00
 21 -1  0  0 502 501  0.0000000E+00  0.0000000E+00 -9.8746582E+02  9.8746582E+02  0.0000000E+00  0.0000000E+00  1.0000000E+00
 39  2  1  2   0   0  2.3021585E-12 -1.5809576E-13 -7.3525867E+02  1.2396730E+03  9.9809006E+02  0.0000000E+00  1.0000000E+00
 23  2  3  3   0   0  1.9336327E+02 -1.3033226E+01 -9.2724132E+02  9.5159122E+02  9.0499537E+01  0.0000000E+00  1.0000000E+00
 23  2  3  3   0   0 -1.9336327E+02  1.3033226E+01  1.9198266E+02  2.8808175E+02  9.2598797E+01  0.0000000E+00  1.0000000E+00
-11  1  4  4   0   0  1.5900886E+02  1.0359233E+01 -8.3968780E+02  8.5467347E+02  9.5367432E-07  0.0000000E+00  1.0000000E+00
 11  1  4  4   0   0  3.4354403E+01 -2.3392459E+01 -8.7553524E+01  9.6917758E+01  1.5258789E-05  0.0000000E+00  1.0000000E+00
-13  1  5  5   0   0 -2.0078283E+02  8.8840234E+00  1.9400929E+02  2.7934258E+02  1.1234329E-06  0.0000000E+00  1.0000000E+00
 13  1  5  5   0   0  7.4195677E+00  4.1492023E+00 -2.0266340E+00  8.7391710E+00  9.7256079E-06  0.0000000E+00  1.0000000E+00
</event>
<event>
9 100 1.0000000E+00 1.0000000E+03 7.8125000E-03 0.0000000E+00
 21 -1  0  0 501 502  0.0000000E+00  0.0000000E+00  3.7968074E+02  3.7968074E+02  0.0000000E+00  0.0000000E+00  1.0000000E+00
 21 -1  0  0 502 501  0.0000000E+00  0.0000000E+00 -6.4823040E+02  6.4823040E+02  0.0000000E+00  0.0000000E+00  1.0000000E+00
 39  2  1  2   0   0  2.4868996E-14  1.6484591E-12 -2.6854966E+02  1.0279111E+03  9.9221087E+02  0.0000000E+00  1.0000000E+00
 23  2  3  3   0   0  4.9371040E+00  4.4927492E+02 -3.3071150E+02  5.6538817E+02  9.1767930E+01  0.0000000E+00  1.0000000E+00
 23  2  3  3   0   0 -4.9371040E+00 -4.4927492E+02  6.2161843E+01  4.6252298E+02  9.0504579E+01  0.0000000E+00  1.0000000E+00
-11  1  4  4   0   0  4.7190330E+01  1.9774921E+02 -1.3788945E+02  2.4565255E+02  1.0092740E-05  0.0000000E+00  1.0000000E+00
 11  1  4  4   0   0 -4.2253226E+01  2.5152572E+02 -1.9282206E+02  3.1973562E+02  9.9108742E-06  0.0000000E+00  1.0000000E+00
-13  1  5  5   0   0  2.9694042E+01 -2.3758240E+02  8.7280587E-01  2.3943245E+02  1.0555240E-05  0.0000000E+00  1.0000000E+00
 13  1  5  5   0   0 -3.4631146E+01 -2.1169252E+02  6.1289037E+01  2.2309053E+02  1.1896676E-05  0.0000000E+00  1.0000000E+00
</event>
<event>
9 100 1.0000000E+00 1.0000000E+03 7.8125000E-03 0.0000000E+00
 21 -1  0  0 501 502  0.0000000E+00  0.0000000E+00  4.3939732E+02  4.3939732E+02  0.0000000E+00  0.0000000E+00  1.0000000E+00
 21 -1  0  0 502 501  0.0000000E+00  0.0000000E+00 -5.1754519E+02  5.1754519E+02  0.0000000E+00  0.0000000E+00  1.0000000E+00
 39  2  1  2   0   0  1.0231815E-12 -4.8316906E-13 -7.8147867E+01  9.5694251E+02  9.5374623E+02  0.0000000E+00  1.0000000E+00
 23  2  3  3   0   0  3.1758523E+02 -1.5599528E+02  2.6864326E+02  4.5311870E+02  8.9176534E+01  0.0000000E+00  1.0000000E+00
 23  2  3  3   0   0 -3.1758523E+02  1.5599528E+02 -3.4679113E+02  5.0382380E+02  9.1539271E+01  0.0000000E+00  1.0000000E+00
-11  1  4  4   0   0  1.8794173E+02 -7.6745176E+01  2.0460667E+02  2.8822874E+02  2.5231851E-06  0.0000000E+00  1.0000000E+00
 11  1  4  4   0   0  1.2964350E+02 -7.9250103E+01  6.4036586E+01  1.6488996E+02  9.7256079E-06  0.0000000E+00  1.0000000E+00
-13  1  5  5   0   0 -2.8085737E+02  1.6020974E+02 -3.3357230E+02  4.6456270E+02  3.1987209E-06  0.0000000E+00  1.0000000E+00
 13  1  5  5   0   0 -3.6727855E+01 -4.2144587E+00 -1.3218827E+01  3.9261105E+01  1.0789593E-05  0.0000000E+00  1.0000000E+00
</event>
<event>
9 100 1.0000000E+00 1.0000000E+03 7.8125000E-03 0.0000000E+00
 21 -1  0  0 501 502  0.0000000E+00  0.0000000E+00  3.3532622E+02  3.3532622E+02  0.0000000E+00  0.0000000E+00  1.0000000E+00
 21 -1  0  0 502 501  0.0000000E+00  0.0000000E+00 -7.6574624E+02  7.6574624E+02  0.0000000E+00  0.0000000E+00  1.0000000E+00
 39  2  1  2   0   0  0.0000000E+00  0.0000000E+00 -4.3042002E+02  1.1010725E+03  1.0134590E+03  0.0000000E+00  1.0000000E+00
 23  2  3  3   0   0 -3.6106147E+01  2.4988216E+02 -6.8179433E+02  7.3254622E+02  8.9642159E+01  0.0000000E+00  1.0000000E+00
 23  2  3  3   0   0  3.6106147E+01 -2.4988216E+02  2.5137430E+02  3.6852623E+02  9.4222067E+01  0.0000000E+00  1.0000000E+00
-11  1  4  4   0   0 -4.7007536E+01  1.9778073E+02 -6.1127483E+02  6.4419240E+02  2.8610229E-06  0.0000000E+00  1.0000000E+00
 11  1  4  4   0   0  1.0901389E+01  5.2101427E+01 -7.0519493E+01  8.8353822E+01  7.6293945E-06  0.0000000E+00  1.0000000E+00
-13  1  5  5   0   0  8.1349403E+00 -7.8899566E+01  1.4484374E+02  1.6513942E+02  7.9790118E-06  0.0000000E+00  1.0000000E+00
 13  1  5  5   0   0  2.7971207E+01 -1.7098259E+02  1.0653056E+02  2.0338681E+02  4.2649612E-06  0.0000000E+00  1.0000000E+00
</event>
<event>
9 100 1.0000000E+00 1.0000000E+03 7.8125000E-03 0.0000000E+00
 21 -1  0  0 501 502  0.0000000E+00  0.0000000E+00  2.5579559E+02  2.5579559E+02  0.0000000E+00  0.0000000E+00  1.0000000E+00
 21 -1  0  0 502 501  0.0000000E+00  0.0000000E+00 -9.7355757E+02  9.7355757E+02  0.0000000E+00  0.0000000E+00  1.0000000E+00
 39  2  1  2   0   0  9.9475983E-14 -6.2527761E-13 -7.1776198E+02  1.2293532E+03  9.9806159E+02  0.0000000E+00  1.0000000E+00
 23  2  3  3   0   0  4.6569739E+01 -3.5189395E+02 -7.7622616E+02  8.5841287E+02  9.1364638E+01  0.0000000E+00  1.0000000E+00
 23  2  3  3   0   0 -4.6569739E+01  3.5189395E+02  5.8464182E+01  3.7094030E+02  9.0446404E+01  0.0000000E+00  1.0000000E+00
-11  1  4  4   0   0  6.2204197E+01 -2.7514633E+02 -6.6518736E+02  7.2252964E+02  5.0463701E-06  0.0000000E+00  1.0000000E+00
 11  1  4  4   0   0 -1.5634458E+01 -7.6747620E+01 -1.1103881E+02  1.3588322E+02  1.0789593E-05  0.0000000E+00  1.0000000E+00
-13  1  5  5   0   0  1.3775777E+01  7.1279573E+00 -2.3539891E+00  1.5688246E+01  1.2741460E-05  0.0000000E+00  1.0000000E+00
 13  1  5  5   0   0 -6.0345516E+01  3.4476599E+02  6.0818171E+01  3.5525205E+02  1.5614256E-06  0.0000000E+00  1.0000000E+00
</event>
<event>
9 100 1.0000000E+00 1.0000000E+03 7.8125000E-03 0.0000000E+00
 21 -1  0  0 501 502  0.0000000E+00  0.0000000E+00  1.6917913E+02  1.6917913E+02  0.0000000E+00  0.0000000E+00  1.0000000E+00
 21 -1  0  0 502 501  0.0000000E+00  0.0000000E+00 -1.9941313E+03  1.9941313E+03  0.0000000E+00  0.0000000E+00  1.0000000E+00
 39  2  1  2   0   0  5.1016968E-12  1.5347723E-11 -1.8249522E+03  2.1633104E+03  1.1616633E+03  0.0000000E+00  1.0000000E+00
 23  2  3  3   0   0 -9.7482099E+01 -2.9301686E+02 -1.8127862E+03  1.8410382E+03  8.8692139E+01  0.0000000E+00  1.0000000E+00
 23  2  3  3   0   0  9.7482099E+01  2.9301686E+02 -1.2165971E+01  3.2227222E+02  9.1376859E+01  0.0000000E+00  1.0000000E+00
-11  1  4  4   0   0  9.1479801E+00 -1.0107944E+02 -5.4108363E+02  5.5051996E+02  2.1579186E-05  0.0000000E+00  1.0000000E+00
 11  1  4  4   0   0 -1.0663008E+02 -1.9193742E+02 -1.2717026E+03  1.2905183E+03  1.7059845E-05  0.0000000E+00  1.0000000E+00
-13  1  5  5   0   0  4.6510978E+01  3.3087240E+01 -4.9568585E+00  5.7294040E+01  1.2301682E-05  0.0000000E+00  1.0000000E+00
 13  1  5  5   0   0  5.0971121E+01  2.5992962E+02 -7.2091128E+00  2.6497818E+02  4.3666250E-06  0.0000000E+00  1.0000000E+00
</event>
<event>
9 100 1.0000000E+00 1.0000000E+03 7.8125000E-03 0.0000000E+00
 21 -1  0  0 501 502  0.0000000E+00  0.0000000E+00  4.9814145E+02  4.9814145E+02  0.0000000E+00  0.0000000E+00  1.0000000E+00
 21 -1  0  0 502 501  0.0000000E+00  0.0000000E+00 -4.9925954E+02  4.9925954E+02  0.0000000E+00  0.0000000E+00  1.0000000E+00
 39  2  1  2   0   0 -1.7763568E-14 -1.5347723E-12 -1.1180838E+00  9.9740099E+02  9.9740036E+02  0.0000000E+00  1.0000000E+00
 23  2  3  3   0   0  5.9394865E+00  4.8362566E+02 -8.2518978E+01  4.9878715E+02  8.9722808E+01  0.0000000E+00  1.0000000E+00
 23  2  3  3   0   0 -5.9394865E+00 -4.8362566E+02  8.1400894E+01  4.9861384E+02  8.9780793E+01  0.0000000E+00  1.0000000E+00
-11  1  4  4   0   0 -2.6996787E+01  1.1709845E+02  5.8827390E+00  1.2031409E+02  2.1684298E-05  0.0000000E+00  1.0000000E+00
 11  1  4  4   0   0  3.2936273E+01  3.6652722E+02 -8.8401717E+01  3.7847307E+02  7.5238913E-06  0.0000000E+00  1.0000000E+00
-13  1  5  5   0   0 -1.5319558E+01 -8.8934376E+01  4.8477726E+01  1.0244072E+02  1.7435556E-05  0.0000000E+00  1.0000000E+00
 13  1  5  5   0   0  9.3800719E+00 -3.9469129E+02  3.2923168E+01  3.9617311E+02  6.6072495E-06  0.0000000E+00  1.0000000E+00
</event>
<event>
9 100 1.0000000E+00 1.0000000E+03 7.8125000E-03 0.0000000E+00
 21 -1  0  0 501 502  0.0000000E+00  0.0000000E+00  1.0452089E+03  1.0452089E+03  0.0000000E+00  0.0000000E+00  1.0000000E+00
 21 -1  0  0 502 501  0.0000000E+00  0.0000000E+00 -3.4274866E+02  3.4274866E+02  0.0000000E+00  0.0000000E+00  1.0000000E+00
 39  2  1  2   0   0 -1.1084467E-12  1.5063506E-12  7.0246020E+02  1.3879575E+03  1.1970696E+03  0.0000000E+00  1.0000000E+00
 23  2  3  3   0   0  1.6799794E+02 -2.2623840E+02 -2.5180890E+02  3.8879844E+02  9.1374954E+01  0.0000000E+00  1.0000000E+00
 23  2  3  3   0   0 -1.6799794E+02  2.2623840E+02  9.5426909E+02  9.9915908E+02  9.1006860E+01  0.0000000E+00  1.0000000E+00
-11  1  4  4   0   0  1.5159384E+02 -2.0050103E+02 -2.5506402E+02  3.5810474E+02  1.2679128E-06  0.0000000E+00  1.0000000E+00
 11  1  4  4   0   0  1.6404104E+01 -2.5737373E+01  3.2551226E+00  3.0693694E+01  4.6720309E-06  0.0000000E+00  1.0000000E+00
-13  1  5  5   0   0 -9.0507580E+01  1.4929737E+02  7.1726733E+02  7.3820982E+02  0.0000000E+00  0.0000000E+00  1.0000000E+00
 13  1  5  5   0   0 -7.7490362E+01  7.6941028E+01  2.3700177E+02  2.6094926E+02  1.5258789E-05  0.0000000E+00  1.0000000E+00
</event>
<event>
9 100 1.0000000E+00 1.0000000E+03 7.8125000E-03 0.0000000E+00
 21 -1  0  0 501 502  0.0000000E+00  0.0000000E+00  4.1692496E+02  4.1692496E+02  0.0000000E+00  0.0000000E+00  1.0000000E+00
 21 -1  0  0 502 501  0.0000000E+00  0.0000000E+00 -5.9166020E+02  5.9166020E+02  0.0000000E+00  0.0000000E+00  1.0000000E+00
 39  2  1  2   0   0  1.1368684E-13 -2.5579538E-13 -1.7473524E+02  1.0085852E+03  9.9333359E+02  0.0000000E+00  1.0000000E+00
 23  2  3  3   0   0 -1.4484595E+02  2.0863228E+02 -5.1120011E+02  5.7794287E+02  9.0468948E+01  0.0000000E+00  1.0000000E+00
 23  2  3  3   0   0  1.4484595E+02 -2.0863228E+02  3.3646488E+02  4.3064228E+02  8.7956729E+01  0.0000000E+00  1.0000000E+00
-11  1  4  4   0   0 -2.2771410E+01  3.4461301E+01 -2.7712700E+01  4.9740447E+01  7.6293945E-06  0.0000000E+00  1.0000000E+00
 11  1  4  4   0   0 -1.2207454E+02  1.7417098E+02 -4.8348741E+02  5.2820243E+02  1.3486992E-06  0.0000000E+00  1.0000000E+00
-13  1  5  5   0   0  9.1109645E+01 -1.8308085E+02  2.9142121E+02  3.5601388E+02  5.0011103E-06  0.0000000E+00  1.0000000E+00
 13  1  5  5   0   0  5.3736306E+01 -2.5551433E+01  4.5043669E+01  7.4628403E+01  1.4273290E-05  0.0000000E+00  1.0000000E+00
</event>
<event>
9 100 1.0000000E+00 1.0000000E+03 7.8125000E-03 0.0000000E+00
 21 -1  0  0 501 502  0.0000000E+00  0.0000000E+00  1.1971365E+03  1.1971365E+03  0.0000000E+00  0.0000000E+00  1.0000000E+00
 21 -1  0  0 502 501  0.0000000E+00  0.0000000E+00 -2.1307718E+02  2.1307718E+02  0.0000000E+00  0.0000000E+00  1.0000000E+00
 39  2  1  2   0   0  1.4210855E-12 -4.9737992E-13  9.8405934E+02  1.4102137E+03  1.0101138E+03  0.0000000E+00  1.0000000E+00
 23  2  3  3   0   0 -3.0940633E+02  1.0700882E+02  1.0136801E+03  1.0692323E+03  9.2343375E+01  0.0000000E+00  1.0000000E+00
 23  2  3  3   0   0  3.0940633E+02 -1.0700882E+02 -2.9620732E+01  3.4098138E+02  9.0596623E+01  0.0000000E+00  1.0000000E+00
-11  1  4  4   0   0 -4.9532711E+01  2.1530296E+01  8.1765295E+01  9.7992890E+01  0.0000000E+00  0.0000000E+00  1.0000000E+00
 11  1  4  4   0   0 -2.5987362E+02  8.5478523E+01  9.3191477E+02  9.7123942E+02  5.9556942E-06  0.0000000E+00  1.0000000E+00
-13  1  5  5   0   0  2.5349993E+02 -4.8063749E+01 -2.9877818E+01  2.5974030E+02  3.2976395E-06  0.0000000E+00  1.0000000E+00
 13  1  5  5   0   0  5.5906396E+01 -5.8945070E+01  2.5708632E-01  8.1241077E+01  5.5197892E-06  0.0000000E+00  1.0000000E+00
</event>
<event>
9 100 1.0000000E+00 1.0000000E+03 7.8125000E-03 0.0000000E+00
 21 -1  0  0 501 502  0.0000000E+00  0.0000000E+00  1.4230491E+03  1.4230491E+03  0.0000000E+00  0.0000000E+00  1.0000000E+00
 21 -1  0  0 502 501  0.0000000E+00  0.0000000E+00 -1.7571784E+02  1.7571784E+02  0.0000000E+00  0.0000000E+00  1.0000000E+00
 39  2  1  2   0   0 -5.6843419E-13 -1.3642421E-12  1.2473313E+03  1.5987669E+03  1.0001102E+03  0.0000000E+00  1.0000000E+00
 23  2  3  3   0   0  1.7022008E+02  4.3701110E+02  8.5544675E+02  9.7982328E+02  9.1164359E+01  0.0000000E+00  1.0000000E+00
 23  2  3  3   0   0 -1.7022008E+02 -4.3701110E+02  3.9188451E+02  6.1894366E+02  9.7796727E+01  0.0000000E+00  1.0000000E+00
-11  1  4  4   0   0  1.3009887E+01  1.2988929E+02  2.7866624E+02  3.0772611E+02  2.1579186E-05  0.0000000E+00  1.0000000E+00
 11  1  4  4   0   0  1.5721019E+02  3.0712181E+02  5.7678051E+02  6.7209717E+02  6.6072495E-06  0.0000000E+00  1.0000000E+00
-13  1  5  5   0   0 -1.4793751E+02 -3.8773709E+02  2.9911054E+02  5.1155906E+02  3.0157830E-06  0.0000000E+00  1.0000000E+00
 13  1  5  5   0   0 -2.2282561E+01 -4.9274011E+01  9.2773971E+01  1.0738459E+02  2.2243316E-05  0.0000000E+00  1.0000000E+00
</event>
<event>
9 100 1.0000000E+00 1.0000000E+03 7.8125000E-03 0.0000000E+00
 21 -1  0  0 501 502  0.0000000E+00  0.0000000E+00  6.5974105E+02  6.5974105E+02  0.0000000E+00  0.0000000E+00  1.0000000E+00
 21 -1  0  0 502 501  0.0000000E+00  0.0000000E+00 -3.7935596E+02  3.7935596E+02  0.0000000E+00  0.0000000E+00  1.0000000E+00
 39  2  1  2   0   0 -2.7000624E-13  8.5265128E-13  2.8038509E+02  1.0390970E+03  1.0005533E+03  0.0000000E+00  1.0000000E+00
 23  2  3  3   0   0  8.6863348E+01 -2.8126820E+02 -2.6919562E+02  4.0911094E+02  9.0820902E+01  0.0000000E+00  1.0000000E+00
 23  2  3  3   0   0 -8.6863348E+01  2.8126820E+02  5.4958071E+02  6.2998608E+02  9.0479105E+01  0.0000000E+00  1.0000000E+00
-11  1  4  4   0   0  4.4502131E+01 -1.6658008E+02 -2.1440397E+02  2.7513347E+02  3.4385216E-06  0.0000000E+00  1.0000000E+00
 11  1  4  4   0   0  4.2361217E+01 -1.1468812E+02 -5.4791649E+01  1.3397747E+02  2.6973983E-06  0.0000000E+00  1.0000000E+00
-13  1  5  5   0   0 -5.0242533E+01  5.1705060E+01  1.7316080E+02  1.8756969E+02  7.6293945E-06  0.0000000E+00  1.0000000E+00
 13  1  5  5   0   0 -3.6620815E+01  2.2956314E+02  3.7641991E+02  4.4241640E+02  5.0463701E-06  0.0000000E+00  1.0000000E+00
</event>
<event>
9 100 1.0000000E+00 1.0000000E+03 7.8125000E-03 0.0000000E+00
 21 -1  0  0 501 502  0.0000000E+00  0.0000000E+00  2.4273466E+02  2.4273466E+02  0.0000000E+00  0.0000000E+00  1.0000000E+00
 21 -1  0  0 502 501  0.0000000E+00  0.0000000E+00 -1.0471311E+03  1.0471311E+03  0.0000000E+00  0.0000000E+00  1.0000000E+00
 39  2  1  2   0   0 -2.1316282E-12 -2.1671553E-13 -8.0439642E+02  1.2898657E+03  1.0083154E+03  0.0000000E+00  1.0000000E+00
 23  2  3  3   0   0 -1.8214895E+02 -1.8319352E+01 -9.9172029E+02  1.0123900E+03  8.8940828E+01  0.0000000E+00  1.0000000E+00
 23  2  3  3   0   0  1.8214895E+02  1.8319352E+01  1.8732386E+02  2.7747577E+02  9.1590046E+01  0.0000000E+00  1.0000000E+00
-11  1  4  4   0   0  6.1887019E+00 -1.2035271E+01 -4.1057592E+01  4.3230472E+01  1.5258789E-05  0.0000000E+00  1.0000000E+00
 11  1  4  4   0   0 -1.8833765E+02 -6.2840812E+00 -9.5066269E+02  9.6915949E+02  1.4305115E-06  0.0000000E+00  1.0000000E+00
-13  1  5  5   0   0  3.5473624E+01 -1.8127852E+01  4.2289713E+00  4.0060969E+01  7.6293945E-06  0.0000000E+00  1.0000000E+00
 13  1  5  5   0   0  1.4667532E+02  3.6447205E+01  1.8309489E+02  2.3741480E+02  2.6394832E-06  0.0000000E+00  1.0000000E+00
</event>
<event>
9 100 1.0000000E+00 1.0000000E+03 7.8125000E-03 0.0000000E+00
 21 -1  0  0 501 502  0.0000000E+00  0.0000000E+00  3.4107618E+02  3.4107618E+02  0.0000000E+00  0.0000000E+00  1.0000000E+00
 21 -1  0  0 502 501  0.0000000E+00  0.0000000E+00 -7.3960272E+02  7.3960272E+02  0.0000000E+00  0.0000000E+00  1.0000000E+00
 39  2  1  2   0   0  5.5422333E-13  9.6633812E-13 -3.9852654E+02  1.0806789E+03  1.0045116E+03  0.0000000E+00  1.0000000E+00
 23  2  3  3   0   0  8.9013837E+01  1.5806792E+02 -6.9473802E+02  7.2410140E+02  9.3557398E+01  0.0000000E+00  1.0000000E+00
 23  2  3  3   0   0 -8.9013837E+01 -1.5806792E+02  2.9621148E+02  3.5657750E+02  8.0606095E+01  0.0000000E+00  1.0000000E+00
-11  1  4  4   0   0  9.2797779E+01  7.2271325E+01 -4.2890060E+02  4.4473621E+02  1.0092740E-05  0.0000000E+00  1.0000000E+00
 11  1  4  4   0   0 -3.7839422E+00  8.5796592E+01 -2.6583742E+02  2.7936519E+02  9.3440618E-06  0.0000000E+00  1.0000000E+00
-13  1  5  5   0   0 -4.0602141E+01 -1.2785581E+02  1.5936545E+02  2.0830984E+02  7.6293945E-06  0.0000000E+00  1.0000000E+00
 13  1  5  5   0   0 -4.8411695E+01 -3.0212109E+01  1.3684603E+02  1.4826766E+02  7.6293945E-06  0.0000000E+00  1.0000000E+00
</event>
<event>
9 100 1.0000000E+00 1.0000000E+03 7.8125000E-03 0.0000000E+00
 21 -1  0  0 501 502  0.0000000E+00  0.0000000E+00  6.2958220E+02  6.2958220E+02  0.0000000E+00  0.0000000E+00  1.0000000E+00
 21 -1  0  0 502 501  0.0000000E+00  0.0000000E+00 -4.0551218E+02  4.0551218E+02  0.0000000E+00  0.0000000E+00  1.0000000E+00
 39  2  1  2   0   0 -1.0231815E-12  1.9895197E-13  2.2407002E+02  1.0350944E+03  1.0105508E+03  0.0000000E+00  1.0000000E+00
 23  2  3  3   0   0 -4.6717520E+02  1.1067402E+02 -1.7987116E+01  4.8991130E+02  9.5854786E+01  0.0000000E+00  1.0000000E+00
 23  2  3  3   0   0  4.6717520E+02 -1.1067402E+02  2.4205713E+02  5.4518308E+02  9.0175017E+01  0.0000000E+00  1.0000000E+00
-11  1  4  4   0   0 -2.0491085E+02  6.0542594E+01 -5.4251017E+01  2.2044736E+02  1.0348575E-05  0.0000000E+00  1.0000000E+00
 11  1  4  4   0   0 -2.6226435E+02  5.0131422E+01  3.6263901E+01  2.6946394E+02  9.1969020E-06  0.0000000E+00  1.0000000E+00
-13  1  5  5   0   0  3.0055398E+02 -3.9797462E+01  1.1626179E+02  3.2470500E+02  6.0315660E-06  0.0000000E+00  1.0000000E+00
 13  1  5  5   0   0  1.6662121E+02 -7.0876554E+01  1.2579534E+02  2.2047808E+02  8.4226235E-06  0.0000000E+00  1.0000000E+00
</event>
<event>
9 100 1.0000000E+00 1.0000000E+03 7.8125000E-03 0.0000000E+00
 21 -1  0  0 501 502  0.0000000E+00  0.0000000E+00  7.4714246E+02  7.4714246E+02  0.0000000E+00  0.0000000E+00  1.0000000E+00
 21 -1  0  0 502 501  0.0000000E+00  0.0000000E+00 -3.3818569E+02  3.3818569E+02  0.0000000E+00  0.0000000E+00  1.0000000E+00
 39  2  1  2   0   0 -1.2505552E-12  1.9539925E-14  4.0895677E+02  1.0853282E+03  1.0053316E+03  0.0000000E+00  1.0000000E+00
 23  2  3  3   0   0 -3.0340801E+02  4.4084202E+00 -2.1672261E+02  3.8412872E+02  9.2251421E+01  0.0000000E+00  1.0000000E+00
 23  2  3  3   0   0  3.0340801E+02 -4.4084202E+00  6.2567938E+02  7.0119943E+02  9.0167092E+01  0.0000000E+00  1.0000000E+00
-11  1  4  4   0   0  9.1902842E-01  7.6516589E-01 -2.3703523E+01  2.3733670E+01  9.7256079E-06  0.0000000E+00  1.0000000E+00
 11  1  4  4   0   0 -3.0432704E+02  3.6432543E+00 -1.9301909E+02  3.6039505E+02  1.7520116E-06  0.0000000E+00  1.0000000E+00
-13  1  5  5   0   0 -2.2664134E+00 -1.5287540E+00  4.4023819E+01  4.4108620E+01  7.6293945E-06  0.0000000E+00  1.0000000E+00
 13  1  5  5   0   0  3.0567443E+02 -2.8796663E+00  5.8165556E+02  6.5709081E+02  1.6518124E-06  0.0000000E+00  1.0000000E+00
</event>
<event>
9 100 1.0000000E+00 1.0000000E+03 7.8125000E-03 0.0000000E+00
 21 -1  0  0 501 502  0.0000000E+00  0.0000000E+00  2.8996075E+02  2.8996075E+02  0.0000000E+00  0.0000000E+00  1.0000000E+00
 21 -1  0  0 502 501  0.0000000E+00  0.0000000E+00 -8.3855817E+02  8.3855817E+02  0.0000000E+00  0.0000000E+00  1.0000000E+00
 39  2  1  2   0   0 -7.9580786E-13  2.6645353E-15 -5.4859742E+02  1.1285189E+03  9.8620273E+02  0.0000000E+00  1.0000000E+00
 23  2  3  3   0   0 -1.6094022E+02 -5.2512362E-02 -7.9750526E+02  8.1842603E+02  8.8908807E+01  0.0000000E+00  1.0000000E+00
 23  2  3  3   0   0  1.6094022E+02  5.2512362E-02  2.4890783E+02  3.1009289E+02  9.1108345E+01  0.0000000E+00  1.0000000E+00
-11  1  4  4   0   0 -1.5883748E+02  6.3408363E+00 -7.9574746E+02  8.1147000E+02  1.3500156E-06  0.0000000E+00  1.0000000E+00
 11  1  4  4   0   0 -2.1027464E+00 -6.3933487E+00 -1.7577976E+00  6.9560263E+00  2.8546580E-05  0.0000000E+00  1.0000000E+00
-13  1  5  5   0   0  1.5244491E+02  2.6519142E+01  2.2690091E+02  2.7463929E+02  1.4105033E-06  0.0000000E+00  1.0000000E+00
 13  1  5  5   0   0  8.4953079E+00 -2.6466630E+01  2.2006923E+01  3.5453595E+01  2.6973983E-06  0.0000000E+00  1.0000000E+00
</event>
<event>
9 100 1.0000000E+00 1.0000000E+03 7.8125000E-03 0.0000000E+00
 21 -1  0  0 501 502  0.0000000E+00  0.0000000E+00  2.9520355E+02  2.9520355E+02  0.0000000E+00  0.0000000E+00  1.0000000E+00
 21 -1  0  0 502 501  0.0000000E+00  0.0000000E+00 -8.4038107E+02  8.4038107E+02  0.0000000E+00  0.0000000E+00  1.0000000E+00
 39  2  1  2   0   0 -1.0231815E-12 -7.9580786E-13 -5.4517752E+02  1.1355846E+03  9.9615958E+02  0.0000000E+00  1.0000000E+00
 23  2  3  3   0   0 -3.4437063E+02 -2.2605352E+02 -5.7402019E+02  7.1234608E+02  9.0809911E+01  0.0000000E+00  1.0000000E+00
 23  2  3  3   0   0  3.4437063E+02  2.2605352E+02  2.8842666E+01  4.2323854E+02  9.2777389E+01  0.0000000E+00  1.0000000E+00
-11  1  4  4   0   0 -5.0688696E+01 -1.5537166E+01 -3.5398501E+01  6.3747951E+01  1.7059845E-05  0.0000000E+00  1.0000000E+00
 11  1  4  4   0   0 -2.9368193E+02 -2.1051635E+02 -5.3862169E+02  6.4859813E+02  1.4305115E-06  0.0000000E+00  1.0000000E+00
-13  1  5  5   0   0  4.8296310E+01 -2.1211315E+00  6.4619136E+00  4.8772831E+01  8.1272414E-06  0.0000000E+00  1.0000000E+00
 13  1  5  5   0   0  2.9607432E+02  2.2817465E+02  2.2380753E+01  3.7446571E+02  1.3434205E-06  0.0000000E+00  1.0000000E+00
</event>
<event>
9 100 1.0000000E+00 1.0000000E+03 7.8125000E-03 0.0000000E+00
 21 -1  0  0 501 502  0.0000000E+00  0.0000000E+00  2.1632810E+03  2.1632810E+03  0.0000000E+00  0.0000000E+00  1.0000000E+00
 21 -1  0  0 502 501  0.0000000E+00  0.0000000E+00 -1.1712189E+02  1.1712189E+02  0.0000000E+00  0.0000000E+00  1.0000000E+00
 39  2  1  2   0   0  1.6768809E-12 -6.0822458E-12  2.0461591E+03  2.2804029E+03  1.0067126E+03  0.0000000E+00  1.0000000E+00
 23  2  3  3   0   0 -6.7643271E+01  2.4407384E+02  5.1332097E+01  2.6733708E+02  6.8457853E+01  0.0000000E+00  1.0000000E+00
 23  2  3  3   0   0  6.7643271E+01 -2.4407384E+02  1.9948270E+03  2.0130658E+03  9.4612596E+01  0.0000000E+00  1.0000000E+00
-11  1  4  4   0   0 -2.9111225E+01  2.3925450E+01 -1.3923840E+00  3.7707152E+01  7.5092391E-06  0.0000000E+00  1.0000000E+00
 11  1  4  4   0   0 -3.8532046E+01  2.2014839E+02  5.2724481E+01  2.2962992E+02  2.3503246E-06  0.0000000E+00  1.0000000E+00
-13  1  5  5   0   0  8.9872270E+01 -1.6176689E+02  1.3462596E+03  1.3589189E+03  7.6293945E-06  0.0000000E+00  1.0000000E+00
 13  1  5  5   0   0 -2.2229000E+01 -8.2306948E+01  6.4856735E+02  6.5414690E+02  2.6428998E-05  0.0000000E+00  1.0000000E+00
</event>
<event>
9 100 1.0000000E+00 1.0000000E+03 7.8125000E-03 0.0000000E+00
 21 -1  0  0 501 502  0.0000000E+00  0.0000000E+00  5.9861936E+02  5.9861936E+02  0.0000000E+00  0.0000000E+00  1.0000000E+00
 21 -1  0  0 502 501  0.0000000E+00  0.0000000E+00 -4.1166643E+02  4.1166643E+02  0.0000000E+00  0.0000000E+00  1.0000000E+00
 39  2  1  2   0   0  9.0949470E-13 -1.7621460E-12  1.8695293E+02  1.0102858E+03  9.9283733E+02  0.0000000E+00  1.0000000E+00
 23  2  3  3   0   0  2.1545819E+02 -4.3793666E+02  7.2614195E+01  5.0061168E+02  8.4430391E+01  0.0000000E+00  1.0000000E+00
 23  2  3  3   0   0 -2.1545819E+02  4.3793666E+02  1.1433874E+02  5.0967410E+02  9.2106430E+01  0.0000000E+00  1.0000000E+00
-11  1  4  4   0   0  8.3578741E+01 -1.9792561E+02  7.2511115E+01  2.2675497E+02  3.1494273E-06  0.0000000E+00  1.0000000E+00
 11  1  4  4   0   0  1.3187945E+02 -2.4001105E+02  1.0308030E-01  2.7385672E+02  9.5367432E-07  0.0000000E+00  1.0000000E+00
-13  1  5  5   0   0 -1.9410950E+02  4.3132041E+02  1.1678431E+02  4.8719028E+02  2.2431074E-06  0.0000000E+00  1.0000000E+00
 13  1  5  5   0   0 -2.1348693E+01  6.6162470E+00 -2.4455708E+00  2.2483822E+01  1.2138292E-05  0.0000000E+00  1.0000000E+00
</event>
<event>
9 100 1.0000000E+00 1.0000000E+03 7.8125000E-03 0.0000000E+00
 21 -1  0  0 501 502  0.0000000E+00  0.0000000E+00  3.0291398E+02  3.0291398E+02  0.0000000E+00  0.0000000E+00  1.0000000E+00
 21 -1  0  0 502 501  0.0000000E+00  0.0000000E+00 -8.2423253E+02  8.2423253E+02  0.0000000E+00  0.0000000E+00  1.0000000E+00
 39  2  1  2   0   0  8.5265128E-14  2.8421709E-14 -5.2131855E+02  1.1271465E+03  9.9934290E+02  0.0000000E+00  1.0000000E+00
 23  2  3  3   0   0 -2.0066140E+02 -4.8438133E+01  2.4225139E+02  3.3108066E+02  9.1199906E+01  0.0000000E+00  1.0000000E+00
 23  2  3  3   0   0  2.0066140E+02  4.8438133E+01 -7.6356994E+02  7.9606585E+02  8.9836146E+01  0.0000000E+00  1.0000000E+00
-11  1  4  4   0   0 -2.3656561E+01 -5.8199673E+00  9.1555651E+01  9.4741449E+01  5.3947966E-06  0.0000000E+00  1.0000000E+00
 11  1  4  4   0   0 -1.7700483E+02 -4.2618165E+01  1.5069574E+02  2.3633921E+02  1.3486992E-06  0.0000000E+00  1.0000000E+00
-13  1  5  5   0   0  1.4237279E+02  2.6333639E+01 -3.6531130E+02  3.9295778E+02  7.6293945E-06  0.0000000E+00  1.0000000E+00
 13  1  5  5   0   0  5.8288610E+01  2.2104494E+01 -3.9825864E+02  4.0310807E+02  7.6293945E-06  0.0000000E+00  1.0000000E+00
</event>
<event>
9 100 1.0000000E+00 1.0000000E+03 7.8125000E-03 0.0000000E+00
 21 -1  0  0 501 502  0.0000000E+00  0.0000000E+00  1.4839748E+02  1.4839748E+02  0.0000000E+00  0.0000000E+00  1.0000000E+00
 21 -1  0  0 502 501  0.0000000E+00  0.0000000E+00 -1.6931079E+03  1.6931079E+03  0.0000000E+00  0.0000000E+00  1.0000000E+00
 39  2  1  2   0   0 -5.1159077E-12 -4.1922021E-13 -1.5447105E+03  1.8415054E+03  1.0025028E+03  0.0000000E+00  1.0000000E+00
 23  2  3  3   0   0  4.8938662E+02  4.0127270E+01 -6.8922036E+02  8.5093075E+02  8.9157041E+01  0.0000000E+00  1.0000000E+00
 23  2  3  3   0   0 -4.8938662E+02 -4.0127270E+01 -8.5549009E+02  9.9057465E+02  9.0914154E+01  0.0000000E+00  1.0000000E+00
-11  1  4  4   0   0  4.8504100E+02  3.6992395E+01 -6.9120179E+02  8.4521779E+02  1.3366267E-06  0.0000000E+00  1.0000000E+00
 11  1  4  4   0   0  4.3456176E+00  3.1348757E+00  1.9814255E+00  5.7129576E+00  2.1579186E-05  0.0000000E+00  1.0000000E+00
-13  1  5  5   0   0 -2.9737731E+02 -5.6547973E+00 -5.9431090E+02  6.6458309E+02  5.3947966E-06  0.0000000E+00  1.0000000E+00
 13  1  5  5   0   0 -1.9200931E+02 -3.4472473E+01 -2.6117919E+02  3.2599156E+02  2.0185481E-05  0.0000000E+00  1.0000000E+00
</event>
<event>
9 100 1.0000000E+00 1.0000000E+03 7.8125000E-03 0.0000000E+00
 21 -1  0  0 501 502  0.0000000E+00  0.0000000E+00  1.2258803E+03  1.2258803E+03  0.0000000E+00  0.0000000E+00  1.0000000E+00
 21 -1  0  0 502 501  0.0000000E+00  0.0000000E+00 -1.9622334E+02  1.9622334E+02  0.0000000E+00  0.0000000E+00  1.0000000E+00
 39  2  1  2   0   0  2.8421709E-14 -8.5265128E-13  1.0296570E+03  1.4221037E+03  9.8091046E+02  0.0000000E+00  1.0000000E+00
 23  2  3  3   0   0 -6.2898550E+00  2.3990261E+02 -9.1398073E+01  2.7215647E+02  9.0126083E+01  0.0000000E+00  1.0000000E+00
 23  2  3  3   0   0  6.2898550E+00 -2.3990261E+02  1.1210550E+03  1.1499472E+03  8.9561726E+01  0.0000000E+00  1.0000000E+00
-11  1  4  4   0   0  1.1826677E+01  1.3189017E+02 -9.4352434E+01  1.6259541E+02  5.8877503E-06  0.0000000E+00  1.0000000E+00
 11  1  4  4   0   0 -1.8116532E+01  1.0801244E+02  2.9543609E+00  1.0956106E+02  8.9462581E-06  0.0000000E+00  1.0000000E+00
-13  1  5  5   0   0 -2.7154328E+01 -2.2332086E+01  1.8987200E+02  1.9309960E+02  2.4126264E-05  0.0000000E+00  1.0000000E+00
 13  1  5  5   0   0  3.3444183E+01 -2.1757052E+02  9.3118304E+02  9.5684759E+02  6.0315660E-06  0.0000000E+00  1.0000000E+00
</event>
<event>
9 100 1.0000000E+00 1.0000000E+03 7.8125000E-03 0.0000000E+00
 21 -1  0  0 501 502  0.0000000E+00  0.0000000E+00  1.8214570E+02  1.8214570E+02  0.0000000E+00  0.0000000E+00  1.0000000E+00
 21 -1  0  0 502 501  0.0000000E+00  0.0000000E+00 -1.0455638E+03  1.0455638E+03  0.0000000E+00  0.0000000E+00  1.0000000E+00
 39  2  1  2   0   0  1.6342483E-13  9.6633812E-13 -8.6341813E+02  1.2277095E+03  8.7279998E+02  0.0000000E+00  1.0000000E+00
 23  2  3  3   0   0 -4.3846410E+01 -2.7745300E+02 -8.8398557E+02  9.3173381E+02  8.8287747E+01  0.0000000E+00  1.0000000E+00
 23  2  3  3   0   0  4.3846410E+01  2.7745300E+02  2.0567440E+01  2.9597571E+02  9.0972132E+01  0.0000000E+00  1.0000000E+00
-11  1  4  4   0   0 -4.5080268E+01 -2.8373845E+02 -8.7248912E+02  9.1857336E+02  7.9074497E-07  0.0000000E+00  1.0000000E+00
 11  1  4  4   0   0  1.2338580E+00  6.2854477E+00 -1.1496450E+01  1.3160457E+01  3.7376247E-05  0.0000000E+00  1.0000000E+00
-13  1  5  5   0   0  4.4290539E+00  9.4424483E+01 -3.4807990E+01  1.0073329E+02  1.1543005E-05  0.0000000E+00  1.0000000E+00
 13  1  5  5   0   0  3.9417357E+01  1.8302852E+02  5.5375430E+01  1.9524242E+02  7.1525574E-06  0.0000000E+00  1.0000000E+00
</event>
<event>
9 100 1.0000000E+00 1.0000000E+03 7.8125000E-03 0.0000000E+00
 21 -1  0  0 501 502  0.0000000E+00  0.0000000E+00  5.8976021E+02  5.8976021E+02  0.0000000E+00  0.0000000E+00  1.0000000E+00
 21 -1  0  0 502 501  0.0000000E+00  0.0000000E+00 -4.3284432E+02  4.3284432E+02  0.0000000E+00  0.0000000E+00  1.0000000E+00
 39  2  1  2   0   0  5.6843419E-13  5.6843419E-13  1.5691590E+02  1.0226045E+03  1.0104937E+03  0.0000000E+00  1.0000000E+00
 23  2  3  3   0   0 -3.1875466E+02 -2.8747801E+02 -1.7440847E+02  4.7262980E+02  9.3340652E+01  0.0000000E+00  1.0000000E+00
 23  2  3  3   0   0  3.1875466E+02  2.8747801E+02  3.3132436E+02  5.4997473E+02  9.1914217E+01  0.0000000E+00  1.0000000E+00
-11  1  4  4   0   0 -2.6449005E+01 -6.9277851E+01 -2.2463488E+01  7.7482764E+01  6.0315660E-06  0.0000000E+00  1.0000000E+00
 11  1  4  4   0   0 -2.9230566E+02 -2.1820016E+02 -1.5194498E+02  3.9514704E+02  3.2690309E-06  0.0000000E+00  1.0000000E+00
-13  1  5  5   0   0  1.4889254E-02  2.2266899E+01  6.3525342E+00  2.3155338E+01  6.6072495E-06  0.0000000E+00  1.0000000E+00
 13  1  5  5   0   0  3.1873977E+02  2.6521111E+02  3.2497183E+02  5.2681939E+02  5.2641397E-07  0.0000000E+00  1.0000000E+00
</event>
<event>
9 100 1.0000000E+00 1.0000000E+03 7.8125000E-03 0.0000000E+00
 21 -1  0  0 501 502  0.0000000E+00  0.0000000E+00  2.4073846E+03  2.4073846E+03  0.0000000E+00  0.0000000E+00  1.0000000E+00
 21 -1  0  0 502 501  0.0000000E+00  0.0000000E+00 -1.0553955E+02  1.0553955E+02  0.0000000E+00  0.0000000E+00  1.0000000E+00
 39  2  1  2   0   0 -1.2221335E-11  1.7280399E-11  2.3018451E+03  2.5129242E+03  1.0081157E+03  0.0000000E+00  1.0000000E+00
 23  2  3  3   0   0  2.3595787E+02 -3.3729182E+02  5.0572851E+02  6.6787008E+02  1.4438570E+02  0.0000000E+00  1.0000000E+00
 23  2  3  3   0   0 -2.3595787E+02  3.3729182E+02  1.7961166E+03  1.8450541E+03  9.3530992E+01  0.0000000E+00  1.0000000E+00
-11  1  4  4   0   0 -1.6924023E+01 -3.3093404E+01  7.0711503E+01  7.9885621E+01  4.8553169E-05  0.0000000E+00  1.0000000E+00
 11  1  4  4   0   0  2.5288189E+02 -3.0419841E+02  4.3501701E+02  5.8798446E+02  1.0576760E-05  0.0000000E+00  1.0000000E+00
-13  1  5  5   0   0 -2.1836766E+02  3.1844654E+02  1.7512182E+03  1.7932813E+03  3.4714269E-06  0.0000000E+00  1.0000000E+00
 13  1  5  5   0   0 -1.7590214E+01  1.8845278E+01  4.4898355E+01  5.1772796E+01  8.8973265E-05  0.0000000E+00  1.0000000E+00
</event>
<event>
9 100 1.0000000E+00 1.0000000E+03 7.8125000E-03 0.0000000E+00
 21 -1  0  0 501 502  0.0000000E+00  0.0000000E+00  1.0531703E+03  1.0531703E+03  0.0000000E+00  0.0000000E+00  1.0000000E+00
 21 -1  0  0 502 501  0.0000000E+00  0.0000000E+00 -2.3249900E+02  2.3249900E+02  0.0000000E+00  0.0000000E+00  1.0000000E+00
 39  2  1  2   0   0 -2.5579538E-12  7.5317530E-13  8.2067128E+02  1.2856693E+03  9.8966870E+02  0.0000000E+00  1.0000000E+00
 23  2  3  3   0   0  4.2344901E+02 -1.2521879E+02  1.4521033E+02  4.7412564E+02  9.3382415E+01  0.0000000E+00  1.0000000E+00
 23  2  3  3   0   0 -4.2344901E+02  1.2521879E+02  6.7546095E+02  8.1154364E+02  8.5829859E+01  0.0000000E+00  1.0000000E+00
-11  1  4  4   0   0  3.7031400E+02 -1.0964798E+02  1.5803704E+02  4.1728988E+02  1.7761784E-06  0.0000000E+00  1.0000000E+00
 11  1  4  4   0   0  5.3135011E+01 -1.5570808E+01 -1.2826710E+01  5.6835763E+01  1.4400166E-05  0.0000000E+00  1.0000000E+00
-13  1  5  5   0   0 -5.7703108E+00  4.5061734E+00  4.5693439E+01  4.6276262E+01  0.0000000E+00  0.0000000E+00  1.0000000E+00
 13  1  5  5   0   0 -4.1767870E+02  1.2071262E+02  6.2976751E+02  7.6526737E+02  2.6973983E-06  0.0000000E+00  1.0000000E+00
</event>
<event>
9 100 1.0000000E+00 1.0000000E+03 7.8125000E-03 0.0000000E+00
 21 -1  0  0 501 502  0.0000000E+00  0.0000000E+00  2.2108453E+02  2.2108453E+02  0.0000000E+00  0.0000000E+00  1.0000000E+00
 21 -1  0  0 502 501  0.0000000E+00  0.0000000E+00 -1.1324492E+03  1.1324492E+03  0.0000000E+00  0.0000000E+00  1.0000000E+00
 39  2  1  2   0   0 -6.8212103E-13 -3.9790393E-13 -9.1136462E+02  1.3535337E+03  1.0007337E+03  0.0000000E+00  1.0000000E+00
 23  2  3  3   0   0 -1.9803597E+02 -1.2932467E+02 -1.0383966E+03  1.0684965E+03  8.6452514E+01  0.0000000E+00  1.0000000E+00
 23  2  3  3   0   0  1.9803597E+02  1.2932467E+02  1.2703199E+02  2.8503723E+02  9.5739147E+01  0.0000000E+00  1.0000000E+00
-11  1  4  4   0   0 -3.8839061E+01 -9.6076717E+00 -7.8016871E+01  8.7677889E+01  2.4126264E-05  0.0000000E+00  1.0000000E+00
 11  1  4  4   0   0 -1.5919691E+02 -1.1971700E+02 -9.6037973E+02  9.8081856E+02  1.6518124E-06  0.0000000E+00  1.0000000E+00
-13  1  5  5   0   0  6.8634891E+00  3.5921192E+01 -1.2406854E+00  3.6592059E+01  7.1366451E-06  0.0000000E+00  1.0000000E+00
 13  1  5  5   0   0  1.9117248E+02  9.3403477E+01  1.2827267E+02  2.4844518E+02  2.6802215E-06  0.0000000E+00  1.0000000E+00
</event>
<event>
9 100 1.0000000E+00 1.0000000E+03 7.8125000E-03 0.0000000E+00
 21 -1  0  0 501 502  0.0000000E+00  0.0000000E+00  3.2858520E+02  3.2858520E+02  0.0000000E+00  0.0000000E+00  1.0000000E+00
 21 -1  0  0 502 501  0.0000000E+00  0.0000000E+00 -7.5675894E+02  7.5675894E+02  0.0000000E+00  0.0000000E+00  1.0000000E+00
 39  2  1  2   0   0  3.9790393E-13 -5.4001248E-13 -4.2817374E+02  1.0853441E+03  9.9731597E+02  0.0000000E+00  1.0000000E+00
 23  2  3  3   0   0 -1.5532691E+02  2.1435390E+02  2.3490365E+02  3.6549609E+02  9.1288682E+01  0.0000000E+00  1.0000000E+00
 23  2  3  3   0   0  1.5532691E+02 -2.1435390E+02 -6.6307739E+02  7.1984805E+02  9.1845234E+01  0.0000000E+00  1.0000000E+00
-11  1  4  4   0   0 -4.3118388E+01  1.1860690E+02  7.0264433E+01  1.4444335E+02  9.3440618E-06  0.0000000E+00  1.0000000E+00
 11  1  4  4   0   0 -1.1220852E+02  9.5747000E+01  1.6463922E+02  2.2105274E+02  7.2629672E-06  0.0000000E+00  1.0000000E+00
-13  1  5  5   0   0  1.2611826E+02 -1.0421108E+02 -4.3827637E+02  4.6781614E+02  9.3440618E-06  0.0000000E+00  1.0000000E+00
 13  1  5  5   0   0  2.9208653E+01 -1.1014281E+02 -2.2480102E+02  2.5203191E+02  1.5258789E-05  0.0000000E+00  1.0000000E+00
</event>
<event>
9 100 1.0000000E+00 1.0000000E+03 7.8125000E-03 0.0000000E+00
 21 -1  0  0 501 502  0.0000000E+00  0.0000000E+00  9.5249089E+02  9.5249089E+02  0.0000000E+00  0.0000000E+00  1.0000000E+00
 21 -1  0  0 502 501  0.0000000E+00  0.0000000E+00 -2.6216110E+02  2.6216110E+02  0.0000000E+00  0.0000000E+00  1.0000000E+00
 39  2  1  2   0   0  1.3073986E-12 -8.2422957E-13  6.9032979E+02  1.2146520E+03  9.9941195E+02  0.0000000E+00  1.0000000E+00
 23  2  3  3   0   0 -4.2702029E+02  2.4163078E+02  3.6314605E+02  6.1738944E+02  9.2535969E+01  0.0000000E+00  1.0000000E+00
 23  2  3  3   0   0  4.2702029E+02 -2.4163078E+02  3.2718373E+02  5.9726255E+02  9.4560029E+01  0.0000000E+00  1.0000000E+00
-11  1  4  4   0   0 -3.3655383E+02  2.2760275E+02  3.1398962E+02  5.1347929E+02  6.5031918E-06  0.0000000E+00  1.0000000E+00
 11  1  4  4   0   0 -9.0466459E+01  1.4028024E+01  4.9156432E+01  1.0391016E+02  2.0185481E-05  0.0000000E+00  1.0000000E+00
-13  1  5  5   0   0  1.6802126E+02 -4.5839919E+01  1.3085247E+02  2.1784125E+02  1.4273290E-05  0.0000000E+00  1.0000000E+00
 13  1  5  5   0   0  2.5899903E+02 -1.9579086E+02  1.9633126E+02  3.7942130E+02  6.8770433E-06  0.0000000E+00  1.0000000E+00
</event>
<event>
9 100 1.0000000E+00 1.0000000E+03 7.8125000E-03 0.0000000E+00
 21 -1  0  0 501 502  0.0000000E+00  0.0000000E+00  2.6920921E+02  2.6920921E+02  0.0000000E+00  0.0000000E+00  1.0000000E+00
 21 -1  0  0 502 501  0.0000000E+00  0.0000000E+00 -3.1493434E+02  3.1493434E+02  0.0000000E+00  0.0000000E+00  1.0000000E+00
 39  2  1  2   0   0 -1.4210855E-13 -7.1054274E-15 -4.5725128E+01  5.8414355E+02  5.8235119E+02  0.0000000E+00  1.0000000E+00
 23  2  3  3   0   0  2.1808956E+02  2.7950762E+01  1.4455570E+02  2.7936680E+02  9.3835814E+01  0.0000000E+00  1.0000000E+00
 23  2  3  3   0   0 -2.1808956E+02 -2.7950762E+01 -1.9028083E+02  3.0477675E+02  9.1311407E+01  0.0000000E+00  1.0000000E+00
-11  1  4  4   0   0  2.0228517E+02  4.2801322E+01  1.5179745E+02  2.5650284E+02  1.5993604E-06  0.0000000E+00  1.0000000E+00
 11  1  4  4   0   0  1.5804385E+01 -1.4850560E+01 -7.2417466E+00  2.2863959E+01  4.6720309E-06  0.0000000E+00  1.0000000E+00
-13  1  5  5   0   0 -2.0126781E+02 -3.2496180E+01 -1.2945034E+02  2.4149974E+02  4.1569700E-06  0.0000000E+00  1.0000000E+00
 13  1  5  5   0   0 -1.6821749E+01  4.5454189E+00 -6.0830485E+01  6.3277010E+01  1.3486992E-05  0.0000000E+00  1.0000000E+00
</event>
<event>
9 100 1.0000000E+00 1.0000000E+03 7.8125000E-03 0.0000000E+00
 21 -1  0  0 501 502  0.0000000E+00  0.0000000E+00  4.1658004E+02  4.1658004E+02  0.0000000E+00  0.0000000E+00  1.0000000E+00
 21 -1  0  0 502 501  0.0000000E+00  0.0000000E+00 -5.9982655E+02  5.9982655E+02  0.0000000E+00  0.0000000E+00  1.0000000E+00
 39  2  1  2   0   0  7.3896445E-13  4.5474735E-13 -1.8324651E+02  1.0164066E+03  9.9975151E+02  0.0000000E+00  1.0000000E+00
 23  2  3  3   0   0  3.1007259E+02  2.0242692E+02 -4.2062809E+02  5.6746466E+02  8.9255141E+01  0.0000000E+00  1.0000000E+00
 23  2  3  3   0   0 -3.1007259E+02 -2.0242692E+02  2.3738158E+02  4.4894193E+02  8.9873114E+01  0.0000000E+00  1.0000000E+00
-11  1  4  4   0   0  8.0990847E+01  2.5994010E+01 -1.4432964E+02  1.6752985E+02  1.9073486E-05  0.0000000E+00  1.0000000E+00
 11  1  4  4   0   0  2.2908174E+02  1.7643291E+02 -2.7629844E+02  3.9993481E+02  8.0921949E-06  0.0000000E+00  1.0000000E+00
-13  1  5  5   0   0 -1.9806756E+02 -9.3139288E+01  1.7594668E+02  2.8082543E+02  6.5727466E-06  0.0000000E+00  1.0000000E+00
 13  1  5  5   0   0 -1.1200503E+02 -1.0928764E+02  6.1434899E+01  1.6811651E+02  7.1366451E-06  0.0000000E+00  1.0000000E+00
</event>
<event>
9 100 1.0000000E+00 1.0000000E+03 7.8125000E-03 0.0000000E+00
 21 -1  0  0 501 502  0.0000000E+00  0.0000000E+00  1.2690658E+03  1.2690658E+03  0.0000000E+00  0.0000000E+00  1.0000000E+00
 21 -1  0  0 502 501  0.0000000E+00  0.0000000E+00 -1.9818840E+02  1.9818840E+02  0.0000000E+00  0.0000000E+00  1.0000000E+00
 39  2  1  2   0   0  1.1368684E-12  7.9580786E-13  1.0708774E+03  1.4672542E+03  1.0030237E+03  0.0000000E+00  1.0000000E+00
 23  2  3  3   0   0  4.0471965E+02  2.8506824E+02  5.2219549E+02  7.2528081E+02  9.1006787E+01  0.0000000E+00  1.0000000E+00
 23  2  3  3   0   0 -4.0471965E+02 -2.8506824E+02  5.4868188E+02  7.4197336E+02  6.6413562E+01  0.0000000E+00  1.0000000E+00
-11  1  4  4   0   0  3.6222444E+02  2.1466635E+02  4.4038705E+02  6.0928560E+02  3.0157830E-06  0.0000000E+00  1.0000000E+00
 11  1  4  4   0   0  4.2495204E+01  7.0401894E+01  8.1808437E+01  1.1599521E+02  1.0789593E-05  0.0000000E+00  1.0000000E+00
-13  1  5  5   0   0 -1.8356100E+02 -1.6985128E+02  2.7207910E+02  3.6955533E+02  7.6293945E-06  0.0000000E+00  1.0000000E+00
 13  1  5  5   0   0 -2.2115865E+02 -1.1521696E+02  2.7660278E+02  3.7241803E+02  1.0789593E-05  0.0000000E+00  1.0000000E+00
</event>
<event>
9 100 1.0000000E+00 1.0000000E+03 7.8125000E-03 0.0000000E+00
 21 -1  0  0 501 502  0.0000000E+00  0.0000000E+00  1.0165641E+03  1.0165641E+03  0.0000000E+00  0.0000000E+00  1.0000000E+00
 21 -1  0  0 502 501  0.0000000E+00  0.0000000E+00 -2.5044778E+02  2.5044778E+02  0.0000000E+00  0.0000000E+00  1.0000000E+00
 39  2  1  2   0   0  1.0800250E-12  3.7658765E-13  7.6611632E+02  1.2670119E+03  1.0091506E+03  0.0000000E+00  1.0000000E+00
 23  2  3  3   0   0 -1.5446812E+02 -5.3801177E+01 -2.0564452E+02  2.7747231E+02  8.9141738E+01  0.0000000E+00  1.0000000E+00
 23  2  3  3   0   0  1.5446812E+02  5.3801177E+01  9.7176085E+02  9.8953957E+02  9.0080251E+01  0.0000000E+00  1.0000000E+00
-11  1  4  4   0   0 -5.8900657E+01 -6.5526410E+01 -1.1805227E+02  1.4730694E+02  5.2234894E-06  0.0000000E+00  1.0000000E+00
 11  1  4  4   0   0 -9.5567459E+01  1.1725232E+01 -8.7592254E+01  1.3016537E+02  6.0315660E-06  0.0000000E+00  1.0000000E+00
-13  1  5  5   0   0  7.1177866E+01  7.0630151E+01  5.8746086E+02  5.9595736E+02  9.3440618E-06  0.0000000E+00  1.0000000E+00
 13  1  5  5   0   0  8.3290250E+01 -1.6828974E+01  3.8429998E+02  3.9358221E+02  7.6293945E-06  0.0000000E+00  1.0000000E+00
</event>
<event>
9 100 1.0000000E+00 1.0000000E+03 7.8125000E-03 0.0000000E+00
 21 -1  0  0 501 502  0.0000000E+00  0.0000000E+00  2.9639319E+02  2.9639319E+02  0.0000000E+00  0.0000000E+00  1.0000000E+00
 21 -1  0  0 502 501  0.0000000E+00  0.0000000E+00 -1.0778110E+03  1.0778110E+03  0.0000000E+00  0.0000000E+00  1.0000000E+00
 39  2  1  2   0   0  9.0949470E-13  2.8421709E-12 -7.8141782E+02  1.3742042E+03  1.1304085E+03  0.0000000E+00  1.0000000E+00
 23  2  3  3   0   0 -1.7250124E+02 -4.9861004E+02 -1.7081567E+02  5.6198575E+02  9.1001825E+01  0.0000000E+00  1.0000000E+00
 23  2  3  3   0   0  1.7250124E+02  4.9861004E+02 -6.1060215E+02  8.1221845E+02  9.2169209E+01  0.0000000E+00  1.0000000E+00
-11  1  4  4   0   0 -1.4112328E+02 -2.8434859E+02 -1.2145681E+02  3.3988477E+02  5.2668386E-06  0.0000000E+00  1.0000000E+00
 11  1  4  4   0   0 -3.1377967E+01 -2.1426145E+02 -4.9358859E+01  2.2210097E+02  9.4408941E-06  0.0000000E+00  1.0000000E+00
-13  1  5  5   0   0  9.3159290E+01  2.2640086E+02 -3.4991154E+02  4.2705280E+02  1.3754087E-05  0.0000000E+00  1.0000000E+00
 13  1  5  5   0   0  7.9341953E+01  2.7220918E+02 -2.6069061E+02  3.8516565E+02  1.5258789E-05  0.0000000E+00  1.0000000E+00
</event>
<event>
9 100 1.0000000E+00 1.0000000E+03 7.8125000E-03 0.0000000E+00
 21 -1  0  0 501 502  0.0000000E+00  0.0000000E+00  1.1734856E+03  1.1734856E+03  0.0000000E+00  0.0000000E+00  1.0000000E+00
 21 -1  0  0 502 501  0.0000000E+00  0.0000000E+00 -2.2172025E+02  2.2172025E+02  0.0000000E+00  0.0000000E+00  1.0000000E+00
 39  2  1  2   0   0  2.6716407E-12  1.1937118E-12  9.5176539E+02  1.3952059E+03  1.0201677E+03  0.0000000E+00  1.0000000E+00
 23  2  3  3   0   0 -3.8789328E+02 -1.8158309E+02  1.0800319E+02  4.4846849E+02  7.7625286E+01  0.0000000E+00  1.0000000E+00
 23  2  3  3   0   0  3.8789328E+02  1.8158309E+02  8.4376220E+02  9.4673740E+02  3.0715447E+01  0.0000000E+00  1.0000000E+00
-11  1  4  4   0   0 -5.7987504E+00 -6.3453728E+00  1.5989320E+01  1.8153446E+01  1.9867579E-05  0.0000000E+00  1.0000000E+00
 11  1  4  4   0   0 -3.8209453E+02 -1.7523772E+02  9.2013866E+01  4.3031504E+02  2.0578714E-06  0.0000000E+00  1.0000000E+00
-13  1  5  5   0   0  1.8418327E+02  8.3198210E+01  3.6497563E+02  4.1719616E+02  1.8688124E-05  0.0000000E+00  1.0000000E+00
 13  1  5  5   0   0  2.0371000E+02  9.8384879E+01  4.7878657E+02  5.2954124E+02  1.3214499E-05  0.0000000E+00  1.0000000E+00
</event>
<event>
9 100 1.0000000E+00 1.0000000E+03 7.8125000E-03 0.0000000E+00
 21 -1  0  0 501 502  0.0000000E+00  0.0000000E+00  9.8478961E+02  9.8478961E+02  0.0000000E+00  0.0000000E+00  1.0000000E+00
 21 -1  0  0 502 501  0.0000000E+00  0.0000000E+00 -2.5261547E+02  2.5261547E+02  0.0000000E+00  0.0000000E+00  1.0000000E+00
 39  2  1  2   0   0  1.1368684E-12 -3.2400749E-12  7.3217414E+02  1.2374051E+03  9.9754317E+02  0.0000000E+00  1.0000000E+00
 23  2  3  3   0   0  1.5615661E+02 -4.4244996E+02  5.4443429E+02  7.2366332E+02  8.4457405E+01  0.0000000E+00  1.0000000E+00
 23  2  3  3   0   0 -1.5615661E+02  4.4244996E+02  1.8773985E+02  5.1374176E+02  9.2398509E+01  0.0000000E+00  1.0000000E+00
-11  1  4  4   0   0  9.3644337E+01 -3.3118354E+02  3.4826702E+02  4.8963426E+02  6.0315660E-06  0.0000000E+00  1.0000000E+00
 11  1  4  4   0   0  6.2512274E+01 -1.1126643E+02  1.9616727E+02  2.3402906E+02  1.0092740E-05  0.0000000E+00  1.0000000E+00
-13  1  5  5   0   0 -1.1822546E+02  1.9629368E+02  9.0380490E+01  2.4632722E+02  5.2234894E-06  0.0000000E+00  1.0000000E+00
 13  1  5  5   0   0 -3.7931153E+01  2.4615628E+02  9.7359355E+01  2.6741453E+02  9.3440618E-06  0.0000000E+00  1.0000000E+00
</event>
<event>
9 100 1.0000000E+00 1.0000000E+03 7.8125000E-03 0.0000000E+00
 21 -1  0  0 501 502  0.0000000E+00  0.0000000E+00  5.6410527E+02  5.6410527E+02  0.0000000E+00  0.0000000E+00  1.0000000E+00
 21 -1  0  0 502 501  0.0000000E+00  0.0000000E+00 -4.3404089E+02  4.3404089E+02  0.0000000E+00  0.0000000E+00  1.0000000E+00
 39  2  1  2   0   0  1.6484591E-12  6.5369932E-13  1.3006438E+02  9.9814617E+02  9.8963581E+02  0.0000000E+00  1.0000000E+00
 23  2  3  3   0   0  4.4818938E+02  1.8903174E+02  6.9145600E+01  4.9973202E+02  9.1346897E+01  0.0000000E+00  1.0000000E+00
 23  2  3  3   0   0 -4.4818938E+02 -1.8903174E+02  6.0918779E+01  4.9841415E+02  8.9993624E+01  0.0000000E+00  1.0000000E+00
-11  1  4  4   0   0  1.4103356E+02  8.0184678E+01 -1.5710152E+01  1.6299342E+02  6.6757202E-06  0.0000000E+00  1.0000000E+00
 11  1  4  4   0   0  3.0715582E+02  1.0884706E+02  8.4855751E+01  3.3673859E+02  5.7616453E-06  0.0000000E+00  1.0000000E+00
-13  1  5  5   0   0 -1.9674122E+02 -1.3173211E+02  3.0902518E+01  2.3877903E+02  1.7222339E-05  0.0000000E+00  1.0000000E+00
 13  1  5  5   0   0 -2.5144816E+02 -5.7299625E+01  3.0016261E+01  2.5963513E+02  1.6872221E-05  0.0000000E+00  1.0000000E+00
</event>
<event>
9 100 1.0000000E+00 1.0000000E+03 7.8125000E-03 0.0000000E+00
 21 -1  0  0 501 502  0.0000000E+00  0.0000000E+00  3.8012828E+02  3.8012828E+02  0.0000000E+00  0.0000000E+00  1.0000000E+00
 21 -1  0  0 502 501  0.0000000E+00  0.0000000E+00 -6.6367433E+02  6.6367433E+02  0.0000000E+00  0.0000000E+00  1.0000000E+00
 39  2  1  2   0   0  4.8316906E-13  4.2632564E-13 -2.8354605E+02  1.0438026E+03  1.0045524E+03  0.0000000E+00  1.0000000E+00
 23  2  3  3   0   0  1.3962971E+02  1.4493007E+02  3.2699136E+02  3.9460702E+02  9.1050385E+01  0.0000000E+00  1.0000000E+00
 23  2  3  3   0   0 -1.3962971E+02 -1.4493007E+02 -6.1053741E+02  6.4919559E+02  9.0541739E+01  0.0000000E+00  1.0000000E+00
-11  1  4  4   0   0  8.1979463E+01  1.3942659E+02  2.5829709E+02  3.0475858E+02  3.9320999E-06  0.0000000E+00  1.0000000E+00
 11  1  4  4   0   0  5.7650249E+01  5.5034730E+00  6.8694268E+01  8.9848438E+01  1.3214499E-05  0.0000000E+00  1.0000000E+00
-13  1  5  5   0   0 -8.8823068E+01 -1.0135106E+02 -5.1634467E+02  5.3364164E+02  2.6973983E-06  0.0000000E+00  1.0000000E+00
 13  1  5  5   0   0 -5.0806644E+01 -4.3579001E+01 -9.4192731E+01  1.1555395E+02  1.0789593E-05  0.0000000E+00  1.0000000E+00
</event>
<event>
9 100 1.0000000E+00 1.0000000E+03 7.8125000E-03 0.0000000E+00
 21 -1  0  0 501 502  0.0000000E+00  0.0000000E+00  1.3321037E+02  1.3321037E+02  0.0000000E+00  0.0000000E+00  1.0000000E+00
 21 -1  0  0 502 501  0.0000000E+00  0.0000000E+00 -1.8838479E+03  1.8838479E+03  0.0000000E+00  0.0000000E+00  1.0000000E+00
 39  2  1  2   0   0  8.9528385E-13 -4.4906301E-12 -1.7506375E+03  2.0170583E+03  1.0018944E+03  0.0000000E+00  1.0000000E+00
 23  2  3  3   0   0  6.5865345E+01 -3.2227708E+02 -1.6124048E+03  1.6482251E+03  9.2715221E+01  0.0000000E+00  1.0000000E+00
 23  2  3  3   0   0 -6.5865345E+01  3.2227708E+02 -1.3823278E+02  3.6883318E+02  9.3428324E+01  0.0000000E+00  1.0000000E+00
-11  1  4  4   0   0 -2.2738866E+01 -7.7700226E+01 -3.4060915E+02  3.5009852E+02  5.0607678E-05  0.0000000E+00  1.0000000E+00
 11  1  4  4   0   0  8.8604211E+01 -2.4457685E+02 -1.2717956E+03  1.2981266E+03  1.5258789E-05  0.0000000E+00  1.0000000E+00
-13  1  5  5   0   0  2.2098051E-02  1.9161398E+02 -1.0604020E+02  2.1899872E+02  9.3926027E-06  0.0000000E+00  1.0000000E+00
 13  1  5  5   0   0 -6.5887443E+01  1.3066310E+02 -3.2192578E+01  1.4983445E+02  1.2361032E-05  0.0000000E+00  1.0000000E+00
</event>
<event>
9 100 1.0000000E+00 1.0000000E+03 7.8125000E-03 0.0000000E+00
 21 -1  0  0 501 502  0.0000000E+00  0.0000000E+00  8.1148893E+02  8.1148893E+02  0.0000000E+00  0.0000000E+00  1.0000000E+00
 21 -1  0  0 502 501  0.0000000E+00  0.0000000E+00 -3.2215849E+02  3.2215849E+02  0.0000000E+00  0.0000000E+00  1.0000000E+00
 39  2  1  2   0   0 -1.4779289E-12 -4.5474735E-13  4.8933044E+02  1.1336474E+03  1.0226007E+03  0.0000000E+00  1.0000000E+00
 23  2  3  3   0   0 -4.7417026E+02 -1.5716978E+02  3.1337620E+02  5.9620299E+02  8.7827014E+01  0.0000000E+00  1.0000000E+00
 23  2  3  3   0   0  4.7417026E+02  1.5716978E+02  1.7595424E+02  5.3744444E+02  9.1361130E+01  0.0000000E+00  1.0000000E+00
-11  1  4  4   0   0 -9.4230432E+00  3.7655552E+00 -3.9557597E+00  1.0891335E+01  2.2888184E-05  0.0000000E+00  1.0000000E+00
 11  1  4  4   0   0 -4.6474722E+02 -1.6093534E+02  3.1733196E+02  5.8531165E+02  2.0335581E-06  0.0000000E+00  1.0000000E+00
-13  1  5  5   0   0  5.2878561E+01  2.2463599E+01 -8.7673094E+00  5.8117306E+01  1.5958024E-05  0.0000000E+00  1.0000000E+00
 13  1  5  5   0   0  4.2129170E+02  1.3470618E+02  1.8472155E+02  4.7932713E+02  3.9085379E-06  0.0000000E+00  1.0000000E+00
</event>
<event>
9 100 1.0000000E+00 1.0000000E+03 7.8125000E-03 0.0000000E+00
 21 -1  0  0 501 502  0.0000000E+00  0.0000000E+00  3.6970043E+02  3.6970043E+02  0.0000000E+00  0.0000000E+00  1.0000000E+00
 21 -1  0  0 502 501  0.0000000E+00  0.0000000E+00 -6.7396219E+02  6.7396219E+02  0.0000000E+00  0.0000000E+00  1.0000000E+00
 39  2  1  2   0   0 -7.8159701E-14  7.3896445E-13 -3.0426177E+02  1.0436626E+03  9.9832682E+02  0.0000000E+00  1.0000000E+00
 23  2  3  3   0   0  3.1254412E+01 -3.4365001E+02  2.1294566E+02  4.1518000E+02  8.9198723E+01  0.0000000E+00  1.0000000E+00
 23  2  3  3   0   0 -3.1254412E+01  3.4365001E+02 -5.1720743E+02  6.2848262E+02  9.1731725E+01  0.0000000E+00  1.0000000E+00
-11  1  4  4   0   0 -1.4707440E+01 -8.3829606E+01  9.0710761E+01  1.2438711E+02  9.6316385E-06  0.0000000E+00  1.0000000E+00
 11  1  4  4   0   0  4.5961852E+01 -2.5982040E+02  1.2223490E+02  2.9079289E+02  6.3259598E-06  0.0000000E+00  1.0000000E+00
-13  1  5  5   0   0  1.7162194E+01  1.0879416E+02 -2.2474584E+02  2.5028264E+02  1.5258789E-05  0.0000000E+00  1.0000000E+00
 13  1  5  5   0   0 -4.8416606E+01  2.3485585E+02 -2.9246159E+02  3.7819997E+02  1.1757687E-05  0.0000000E+00  1.0000000E+00
</event>
<event>
9 100 1.0000000E+00 1.0000000E+03 7.8125000E-03 0.0000000E+00
 21 -1  0  0 501 502  0.0000000E+00  0.0000000E+00  5.5738481E+02  5.5738481E+02  0.0000000E+00  0.0000000E+00  1.0000000E+00
 21 -1  0  0 502 501  0.0000000E+00  0.0000000E+00 -4.4826499E+02  4.4826499E+02  0.0000000E+00  0.0000000E+00  1.0000000E+00
 39  2  1  2   0   0  1.4921397E-13 -7.1054274E-13  1.0911982E+02  1.0056498E+03  9.9971215E+02  0.0000000E+00  1.0000000E+00
 23  2  3  3   0   0 -5.3432293E+01  2.4041257E+02  4.8241796E+02  5.4876006E+02  8.8075589E+01  0.0000000E+00  1.0000000E+00
 23  2  3  3   0   0  5.3432293E+01 -2.4041257E+02 -3.7329813E+02  4.5688974E+02  9.3506811E+01  0.0000000E+00  1.0000000E+00
-11  1  4  4   0   0  1.6933006E+00 -7.4142910E+00  1.2083052E+01  1.4277224E+01  1.2063132E-05  0.0000000E+00  1.0000000E+00
 11  1  4  4   0   0 -5.5125593E+01  2.4782686E+02  4.7033490E+02  5.3448284E+02  8.4293697E-07  0.0000000E+00  1.0000000E+00
-13  1  5  5   0   0  4.7665843E+01 -4.7917825E+01 -1.3073990E+02  1.4717701E+02  1.3754087E-05  0.0000000E+00  1.0000000E+00
 13  1  5  5   0   0  5.7664496E+00 -1.9249474E+02 -2.4255823E+02  3.0971273E+02  6.8770433E-06  0.0000000E+00  1.0000000E+00
</event>
<event>
9 100 1.0000000E+00 1.0000000E+03 7.8125000E-03 0.0000000E+00
 21 -1  0  0 501 502  0.0000000E+00  0.0000000E+00  1.0008998E+02  1.0008998E+02  0.0000000E+00  0.0000000E+00  1.0000000E+00
 21 -1  0  0 502 501  0.0000000E+00  0.0000000E+00 -2.6126013E+03  2.6126013E+03  0.0000000E+00  0.0000000E+00  1.0000000E+00
 39  2  1  2   0   0  1.0658141E-14  4.5474735E-13 -2.5125113E+03  2.7126912E+03  1.0227321E+03  0.0000000E+00  1.0000000E+00
 23  2  3  3   0   0 -3.4830816E+00 -9.6835852E+01 -2.5657447E+03  2.5692133E+03  9.1768199E+01  0.0000000E+00  1.0000000E+00
 23  2  3  3   0   0  3.4830816E+00  9.6835852E+01  5.3233455E+01  1.4347799E+02  9.1448445E+01  0.0000000E+00  1.0000000E+00
-11  1  4  4   0   0  1.7798122E+01 -1.0333470E+02 -2.3466478E+03  2.3489893E+03  3.8146973E-06  0.0000000E+00  1.0000000E+00
 11  1  4  4   0   0 -2.1281203E+01  6.4988464E+00 -2.1909696E+02  2.2022398E+02  5.2857996E-05  0.0000000E+00  1.0000000E+00
-13  1  5  5   0   0  4.2512029E+01  7.9919629E+01  3.9637125E+01  9.8820653E+01  1.9442447E-06  0.0000000E+00  1.0000000E+00
 13  1  5  5   0   0 -3.9028948E+01  1.6916223E+01  1.3596330E+01  4.4657335E+01  2.1324806E-06  0.0000000E+00  1.0000000E+00
</event>
<event>
9 100 1.0000000E+00 1.0000000E+03 7.8125000E-03 0.0000000E+00
 21 -1  0  0 501 502  0.0000000E+00  0.0000000E+00  8.7046906E+02  8.7046906E+02  0.0000000E+00  0.0000000E+00  1.0000000E+00
 21 -1  0  0 502 501  0.0000000E+00  0.0000000E+00 -2.8657632E+02  2.8657632E+02  0.0000000E+00  0.0000000E+00  1.0000000E+00
 39  2  1  2   0   0 -2.5579538E-13  9.6633812E-13  5.8389275E+02  1.1570454E+03  9.9891104E+02  0.0000000E+00  1.0000000E+00
 23  2  3  3   0   0 -9.6024278E+01  3.1594083E+02 -1.2949759E+02  3.6572308E+02  8.9131789E+01  0.0000000E+00  1.0000000E+00
 23  2  3  3   0   0  9.6024278E+01 -3.1594083E+02  7.1339033E+02  7.9132230E+02  9.0696953E+01  0.0000000E+00  1.0000000E+00
-11  1  4  4   0   0 -4.8507940E+01  1.0368010E+02 -3.8602302E+00  1.1453159E+02  7.2629672E-06  0.0000000E+00  1.0000000E+00
 11  1  4  4   0   0 -4.7516339E+01  2.1226073E+02 -1.2563736E+02  2.5119149E+02  3.2271939E-06  0.0000000E+00  1.0000000E+00
-13  1  5  5   0   0  8.4530613E+01 -1.3927654E+02  3.8959773E+02  4.2229110E+02  5.3947966E-06  0.0000000E+00  1.0000000E+00
 13  1  5  5   0   0  1.1493665E+01 -1.7666429E+02  3.2379260E+02  3.6903119E+02  9.3440618E-06  0.0000000E+00  1.0000000E+00
</event>
<event>
9 100 1.0000000E+00 1.0000000E+03 7.8125000E-03 0.0000000E+00
 21 -1  0  0 501 502  0.0000000E+00  0.0000000E+00  1.3748560E+02  1.3748560E+02  0.0000000E+00  0.0000000E+00  1.0000000E+00
 21 -1  0  0 502 501  0.0000000E+00  0.0000000E+00 -1.7803707E+03  1.7803707E+03  0.0000000E+00  0.0000000E+00  1.0000000E+00
 39  2  1  2   0   0 -1.4154011E-11  3.9364068E-12 -1.6428851E+03  1.9178563E+03  9.8949550E+02  0.0000000E+00  1.0000000E+00
 23  2  3  3   0   0  4.0413084E+02 -1.1225216E+02 -3.4638422E+02  5.5236524E+02  9.5932514E+01  0.0000000E+00  1.0000000E+00
 23  2  3  3   0   0 -4.0413084E+02  1.1225216E+02 -1.2965009E+03  1.3654910E+03  8.7914951E+01  0.0000000E+00  1.0000000E+00
-11  1  4  4   0   0  2.5085717E+02 -5.0754053E+01 -1.5351666E+02  2.9845042E+02  9.3440618E-06  0.0000000E+00  1.0000000E+00
 11  1  4  4   0   0  1.5327367E+02 -6.1498111E+01 -1.9286757E+02  2.5391482E+02  7.3871295E-06  0.0000000E+00  1.0000000E+00
-13  1  5  5   0   0 -3.2710754E+02  1.2488714E+02 -1.0380029E+03  1.0954661E+03  5.3947966E-06  0.0000000E+00  1.0000000E+00
 13  1  5  5   0   0 -7.7023300E+01 -1.2634979E+01 -2.5849799E+02  2.7002489E+02  2.6428998E-05  0.0000000E+00  1.0000000E+00
</event>
<event>
9 100 1.0000000E+00 1.0000000E+03 7.8125000E-03 0.0000000E+00
 21 -1  0  0 501 502  0.0000000E+00  0.0000000E+00  2.5551586E+02  2.5551586E+02  0.0000000E+00  0.0000000E+00  1.0000000E+00
 21 -1  0  0 502 501  0.0000000E+00  0.0000000E+00 -9.8307962E+02  9.8307962E+02  0.0000000E+00  0.0000000E+00  1.0000000E+00
 39  2  1  2   0   0  2.4868996E-13  1.7621460E-12 -7.2756376E+02  1.2385955E+03  1.0023820E+03  0.0000000E+00  1.0000000E+00
 23  2  3  3   0   0 -4.1816733E+01 -3.0240679E+02 -8.4068442E+02  8.9896450E+02  9.0489617E+01  0.0000000E+00  1.0000000E+00
 23  2  3  3   0   0  4.1816733E+01  3.0240679E+02  1.1312066E+02  3.3963098E+02  9.6718228E+01  0.0000000E+00  1.0000000E+00
-11  1  4  4   0   0 -3.9743726E+01 -3.0897739E+02 -8.2235398E+02  8.7938198E+02  4.1295309E-07  0.0000000E+00  1.0000000E+00
 11  1  4  4   0   0 -2.0730078E+00  6.5706013E+00 -1.8330432E+01  1.9582516E+01  2.4126264E-05  0.0000000E+00  1.0000000E+00
-13  1  5  5   0   0 -2.9273151E+01  1.1604701E+02  5.6126186E+01  1.3218916E+02  7.2315936E-06  0.0000000E+00  1.0000000E+00
 13  1  5  5   0   0  7.1089884E+01  1.8635978E+02  5.6994472E+01  2.0744182E+02  6.6072495E-06  0.0000000E+00  1.0000000E+00
</event>
<event>
9 100 1.0000000E+00 1.0000000E+03 7.8125000E-03 0.0000000E+00
 21 -1  0  0 501 502  0.0000000E+00  0.0000000E+00  2.1589934E+02  2.1589934E+02  0.0000000E+00  0.0000000E+00  1.0000000E+00
 21 -1  0  0 502 501  0.0000000E+00  0.0000000E+00 -1.1439400E+03  1.1439400E+03  0.0000000E+00  0.0000000E+00  1.0000000E+00
 39  2  1  2   0   0 -2.5579538E-13 -3.2684966E-13 -9.2804066E+02  1.3598393E+03  9.9393339E+02  0.0000000E+00  1.0000000E+00
 23  2  3  3   0   0  8.9161030E+01  1.1150090E+02  1.7514743E+02  2.4374724E+02  9.1399985E+01  0.0000000E+00  1.0000000E+00
 23  2  3  3   0   0 -8.9161030E+01 -1.1150090E+02 -1.1031881E+03  1.1160921E+03  9.0859708E+01  0.0000000E+00  1.0000000E+00
-11  1  4  4   0   0  1.0245397E+02  7.0312964E+01  1.1261839E+02  1.6770101E+02  4.7204470E-06  0.0000000E+00  1.0000000E+00
 11  1  4  4   0   0 -1.3292939E+01  4.1187933E+01  6.2529042E+01  7.6046230E+01  8.4226235E-06  0.0000000E+00  1.0000000E+00
-13  1  5  5   0   0  6.8360147E-01 -1.6593686E+01 -4.3086625E+02  4.3118620E+02  3.0517578E-05  0.0000000E+00  1.0000000E+00
 13  1  5  5   0   0 -8.9844632E+01 -9.4907210E+01 -6.7232184E+02  6.8490590E+02  2.0893957E-05  0.0000000E+00  1.0000000E+00
</event>
<event>
9 100 1.0000000E+00 1.0000000E+03 7.8125000E-03 0.0000000E+00
 21 -1  0  0 501 502  0.0000000E+00  0.0000000E+00  1.4224868E+03  1.4224868E+03  0.0000000E+00  0.0000000E+00  1.0000000E+00
 21 -1  0  0 502 501  0.0000000E+00  0.0000000E+00 -1.8969653E+02  1.8969653E+02  0.0000000E+00  0.0000000E+00  1.0000000E+00
 39  2  1  2   0   0  1.7621460E-12  1.2789769E-13  1.2327903E+03  1.6121833E+03  1.0389241E+03  0.0000000E+00  1.0000000E+00
 23  2  3  3   0   0  5.0751610E+02  4.1416915E+01  5.4270092E+02  7.4971404E+02  9.0878513E+01  0.0000000E+00  1.0000000E+00
 23  2  3  3   0   0 -5.0751610E+02 -4.1416915E+01  6.9008934E+02  8.6246928E+02  9.1334531E+01  0.0000000E+00  1.0000000E+00
-11  1  4  4   0   0  3.9341394E+02  6.8616046E+01  4.3424219E+02  5.8995675E+02  3.0157830E-06  0.0000000E+00  1.0000000E+00
 11  1  4  4   0   0  1.1410216E+02 -2.7199131E+01  1.0845873E+02  1.5975729E+02  1.5258789E-05  0.0000000E+00  1.0000000E+00
-13  1  5  5   0   0 -1.7075045E+02 -1.1003338E+00  3.0306660E+02  3.4785958E+02  1.7059845E-05  0.0000000E+00  1.0000000E+00
 13  1  5  5   0   0 -3.3676565E+02 -4.0316581E+01  3.8702275E+02  5.1460969E+02  1.0092740E-05  0.0000000E+00  1.0000000E+00
</event>
<event>
9 100 1.0000000E+00 1.0000000E+03 7.8125000E-03 0.0000000E+00
 21 -1  0  0 501 502  0.0000000E+00  0.0000000E+00  7.4426365E+02  7.4426365E+02  0.0000000E+00  0.0000000E+00  1.0000000E+00
 21 -1  0  0 502 501  0.0000000E+00  0.0000000E+00 -3.3744308E+02  3.3744308E+02  0.0000000E+00  0.0000000E+00  1.0000000E+00
 39  2  1  2   0   0  3.6948222E-12  1.9326762E-12  4.0682057E+02  1.0817067E+03  1.0022906E+03  0.0000000E+00  1.0000000E+00
 23  2  3  3   0   0  3.5204870E+02  1.8826435E+02 -1.0879993E+02  4.2323711E+02  8.8940822E+01  0.0000000E+00  1.0000000E+00
 23  2  3  3   0   0 -3.5204870E+02 -1.8826435E+02  5.1562050E+02  6.5846962E+02  9.1301633E+01  0.0000000E+00  1.0000000E+00
-11  1  4  4   0   0  1.2849250E+02  1.1736984E+02 -3.6472303E+01  1.7780954E+02  1.0533677E-05  0.0000000E+00  1.0000000E+00
 11  1  4  4   0   0  2.2355620E+02  7.0894506E+01 -7.2327629E+01  2.4542757E+02  7.6887681E-06  0.0000000E+00  1.0000000E+00
-13  1  5  5   0   0 -2.3018940E+02 -1.4447124E+02  4.0731308E+02  4.8965605E+02  7.3871295E-06  0.0000000E+00  1.0000000E+00
 13  1  5  5   0   0 -1.2185930E+02 -4.3793105E+01  1.0830742E+02  1.6881357E+02  1.6184390E-05  0.0000000E+00  1.0000000E+00
</event>
<event>
9 100 1.0000000E+00 1.0000000E+03 7.8125000E-03 0.0000000E+00
 21 -1  0  0 501 502  0.0000000E+00  0.0000000E+00  3.0964897E+02  3.0964897E+02  0.0000000E+00  0.0000000E+00  1.0000000E+00
 21 -1  0  0 502 501  0.0000000E+00  0.0000000E+00 -8.1667547E+02  8.1667547E+02  0.0000000E+00  0.0000000E+00  1.0000000E+00
 39  2  1  2   0   0 -4.2632564E-13  1.0800250E-12 -5.0702650E+02  1.1263244E+03  1.0057489E+03  0.0000000E+00  1.0000000E+00
 23  2  3  3   0   0 -1.8891930E+02  4.5306275E+02 -2.7557214E+02  5.7599049E+02  1.2193723E+02  0.0000000E+00  1.0000000E+00
 23  2  3  3   0   0  1.8891930E+02 -4.5306275E+02 -2.3145436E+02  5.5033395E+02  9.1323483E+01  0.0000000E+00  1.0000000E+00
-11  1  4  4   0   0 -1.6404409E+02  2.3751126E+02 -1.5027473E+02  3.2542980E+02  6.0315660E-06  0.0000000E+00  1.0000000E+00
 11  1  4  4   0   0 -2.4875219E+01  2.1555149E+02 -1.2529740E+02  2.5056069E+02  1.1284027E-05  0.0000000E+00  1.0000000E+00
-13  1  5  5   0   0  1.3520803E+02 -2.8788558E+02 -1.0304766E+02  3.3433238E+02  9.7256079E-06  0.0000000E+00  1.0000000E+00
 13  1  5  5   0   0  5.3711272E+01 -1.6517717E+02 -1.2840671E+02  2.1600157E+02  1.2723602E-05  0.0000000E+00  1.0000000E+00
</event>
<event>
9 100 1.0000000E+00 1.0000000E+03 7.8125000E-03 0.0000000E+00
 21 -1  0  0 501 502  0.0000000E+00  0.0000000E+00  5.9852444E+02  5.9852444E+02  0.0000000E+00  0.0000000E+00  1.0000000E+00
 21 -1  0  0 502 501  0.0000000E+00  0.0000000E+00 -4.2532041E+02  4.2532041E+02  0.0000000E+00  0.0000000E+00  1.0000000E+00
 39  2  1  2   0   0  5.6843419E-13  5.6843419E-13  1.7320403E+02  1.0238448E+03  1.0090880E+03  0.0000000E+00  1.0000000E+00
 23  2  3  3   0   0  3.1793614E+02  3.8277474E+02  1.0514783E+02  5.1283589E+02  6.5914254E+01  0.0000000E+00  1.0000000E+00
 23  2  3  3   0   0 -3.1793614E+02 -3.8277474E+02  6.8056201E+01  5.1100896E+02  9.4332504E+01  0.0000000E+00  1.0000000E+00
-11  1  4  4   0   0  2.7537681E+01  5.1933930E+01  3.0887135E+01  6.6403855E+01  7.8641999E-06  0.0000000E+00  1.0000000E+00
 11  1  4  4   0   0  2.9039846E+02  3.3084081E+02  7.4260696E+01  4.4643203E+02  1.5451290E-06  0.0000000E+00  1.0000000E+00
-13  1  5  5   0   0 -3.2439315E+02 -3.7152856E+02  6.8928841E+01  4.9801162E+02  1.6520476E-06  0.0000000E+00  1.0000000E+00
 13  1  5  5   0   0  6.4570069E+00 -1.1246173E+01 -8.7263989E-01  1.2997340E+01  1.1757687E-05  0.0000000E+00  1.0000000E+00
</event>
<event>
9 100 1.0000000E+00 1.0000000E+03 7.8125000E-03 0.0000000E+00
 21 -1  0  0 501 502  0.0000000E+00  0.0000000E+00  1.0047663E+03  1.0047663E+03  0.0000000E+00  0.0000000E+00  1.0000000E+00
 21 -1  0  0 502 501  0.0000000E+00  0.0000000E+00 -2.4487236E+02  2.4487236E+02  0.0000000E+00  0.0000000E+00  1.0000000E+00
 39  2  1  2   0   0 -5.1159077E-13 -2.5579538E-13  7.5989389E+02  1.2496386E+03  9.9204736E+02  0.0000000E+00  1.0000000E+00
 23  2  3  3   0   0 -3.1541859E+02 -1.9073768E+02  7.8172628E+02  8.6924594E+02  9.2858868E+01  0.0000000E+00  1.0000000E+00
 23  2  3  3   0   0  3.1541859E+02  1.9073768E+02 -2.1832389E+01  3.8039269E+02  9.1390356E+01  0.0000000E+00  1.0000000E+00
-11  1  4  4   0   0 -5.5279272E+01 -1.1498303E+01  6.5711515E+01  8.6637244E+01  1.0789593E-05  0.0000000E+00  1.0000000E+00
 11  1  4  4   0   0 -2.6013931E+02 -1.7923937E+02  7.1601477E+02  7.8260869E+02  5.0463701E-06  0.0000000E+00  1.0000000E+00
-13  1  5  5   0   0  1.9031772E+01  2.1254367E+01 -2.6498823E+01  3.8937695E+01  1.1546390E-05  0.0000000E+00  1.0000000E+00
 13  1  5  5   0   0  2.9638682E+02  1.6948331E+02  4.6664336E+00  3.4145499E+02  2.7392209E-06  0.0000000E+00  1.0000000E+00
</event>
<event>
9 100 1.0000000E+00 1.0000000E+03 7.8125000E-03 0.0000000E+00
 21 -1  0  0 501 502  0.0000000E+00  0.0000000E+00  3.0622707E+02  3.0622707E+02  0.0000000E+00  0.0000000E+00  1.0000000E+00
 21 -1  0  0 502 501  0.0000000E+00  0.0000000E+00 -8.4053220E+02  8.4053220E+02  0.0000000E+00  0.0000000E+00  1.0000000E+00
 39  2  1  2   0   0 -7.1054274E-13  4.2632564E-13 -5.3430514E+02  1.1467593E+03  1.0146797E+03  0.0000000E+00  1.0000000E+00
 23  2  3  3   0   0  8.6208793E+01 -5.0100944E+01  2.8631212E+02  3.1625350E+02  8.9997704E+01  0.0000000E+00  1.0000000E+00
 23  2  3  3   0   0 -8.6208793E+01  5.0100944E+01 -8.2061726E+02  8.3050577E+02  7.9906766E+01  0.0000000E+00  1.0000000E+00
-11  1  4  4   0   0  9.7069741E+01 -3.5455843E+01  2.7726816E+02  2.9590080E+02  1.5031719E-06  0.0000000E+00  1.0000000E+00
 11  1  4  4   0   0 -1.0860948E+01 -1.4645101E+01  9.0439581E+00  2.0352699E+01  6.6072495E-06  0.0000000E+00  1.0000000E+00
-13  1  5  5   0   0 -8.6902911E+01  6.6535514E+01 -6.5588666E+02  6.6495593E+02  1.9073486E-06  0.0000000E+00  1.0000000E+00
 13  1  5  5   0   0  6.9411853E-01 -1.6434570E+01 -1.6473060E+02  1.6554983E+02  1.3214499E-05  0.0000000E+00  1.0000000E+00
</event>
<event>
9 100 1.0000000E+00 1.0000000E+03 7.8125000E-03 0.0000000E+00
 21 -1  0  0 501 502  0.0000000E+00  0.0000000E+00  6.4760007E+02  6.4760007E+02  0.0000000E+00  0.0000000E+00  1.0000000E+00
 21 -1  0  0 502 501  0.0000000E+00  0.0000000E+00 -3.8719156E+02  3.8719156E+02  0.0000000E+00  0.0000000E+00  1.0000000E+00
 39  2  1  2   0   0 -3.9079850E-14  5.6843419E-13  2.6040851E+02  1.0347916E+03  1.0014895E+03  0.0000000E+00  1.0000000E+00
 23  2  3  3   0   0  2.0478471E+01 -2.6370320E+02  5.5884550E+02  6.2558677E+02  9.5350742E+01  0.0000000E+00  1.0000000E+00
 23  2  3  3   0   0 -2.0478471E+01  2.6370320E+02 -2.9843699E+02  4.0920486E+02  9.1789051E+01  0.0000000E+00  1.0000000E+00
-11  1  4  4   0   0 -2.3779976E+01 -4.7818157E+01  6.0559162E+01  8.0743270E+01  1.5258789E-05  0.0000000E+00  1.0000000E+00
 11  1  4  4   0   0  4.4258447E+01 -2.1588505E+02  4.9828634E+02  5.4484350E+02  1.5078915E-06  0.0000000E+00  1.0000000E+00
-13  1  5  5   0   0 -3.1806294E+01  1.8064563E+02 -1.4290637E+02  2.3252250E+02  6.3259598E-06  0.0000000E+00  1.0000000E+00
 13  1  5  5   0   0  1.1327823E+01  8.3057577E+01 -1.5553062E+02  1.7668236E+02  4.6720309E-06  0.0000000E+00  1.0000000E+00
</event>
<event>
9 100 1.0000000E+00 1.0000000E+03 7.8125000E-03 0.0000000E+00
 21 -1  0  0 501 502  0.0000000E+00  0.0000000E+00  2.1186269E+02  2.1186269E+02  0.0000000E+00  0.0000000E+00  1.0000000E+00
 21 -1  0  0 502 501  0.0000000E+00  0.0000000E+00 -1.1887043E+03  1.1887043E+03  0.0000000E+00  0.0000000E+00  1.0000000E+00
 39  2  1  2   0   0 -5.6843419E-14 -2.8421709E-14 -9.7684158E+02  1.4005670E+03  1.0036774E+03  0.0000000E+00  1.0000000E+00
 23  2  3  3   0   0  3.5904524E+02  2.3849901E+02 -8.1934156E+02  9.3010269E+02  8.9303820E+01  0.0000000E+00  1.0000000E+00
 23  2  3  3   0   0 -3.5904524E+02 -2.3849901E+02 -1.5750002E+02  4.7046427E+02  1.0361040E+02  0.0000000E+00  1.0000000E+00
-11  1  4  4   0   0  3.1340365E+00  2.0657414E+01 -6.1773356E+01  6.5211184E+01  2.1579186E-05  0.0000000E+00  1.0000000E+00
 11  1  4  4   0   0  3.5591121E+02  2.1784159E+02 -7.5756820E+02  8.6489151E+02  4.2649612E-06  0.0000000E+00  1.0000000E+00
-13  1  5  5   0   0 -1.2929163E+02 -1.4547020E+02 -8.3521747E+01  2.1178712E+02  3.9320999E-06  0.0000000E+00  1.0000000E+00
 13  1  5  5   0   0 -2.2975362E+02 -9.3028808E+01 -7.3978276E+01  2.5867715E+02  2.1324806E-06  0.0000000E+00  1.0000000E+00
</event>
<event>
9 100 1.0000000E+00 1.0000000E+03 7.8125000E-03 0.0000000E+00
 21 -1  0  0 501 502  0.0000000E+00  0.0000000E+00  1.4616141E+02  1.4616141E+02  0.0000000E+00  0.0000000E+00  1.0000000E+00
 21 -1  0  0 502 501  0.0000000E+00  0.0000000E+00 -1.7429507E+03  1.7429507E+03  0.0000000E+00  0.0000000E+00  1.0000000E+00
 39  2  1  2   0   0  6.9348971E-12 -4.9453774E-12 -1.5967893E+03  1.8891121E+03  1.0094595E+03  0.0000000E+00  1.0000000E+00
 23  2  3  3   0   0 -3.4780597E+02  2.4629047E+02 -3.2162141E+02  5.4154128E+02  9.0546365E+01  0.0000000E+00  1.0000000E+00
 23  2  3  3   0   0  3.4780597E+02 -2.4629047E+02 -1.2751679E+03  1.3475708E+03  9.0917485E+01  0.0000000E+00  1.0000000E+00
-11  1  4  4   0   0 -8.0892769E+01  4.9006094E+01 -1.2148728E+02  1.5396233E+02  9.7256079E-06  0.0000000E+00  1.0000000E+00
 11  1  4  4   0   0 -2.6691321E+02  1.9728437E+02 -2.0013412E+02  3.8757896E+02  0.0000000E+00  0.0000000E+00  1.0000000E+00
-13  1  5  5   0   0  3.3681533E+02 -2.1080415E+02 -1.1340774E+03  1.2016715E+03  1.9073486E-06  0.0000000E+00  1.0000000E+00
 13  1  5  5   0   0  1.0990647E+01 -3.5486320E+01 -1.4109050E+02  1.4589929E+02  2.6428998E-05  0.0000000E+00  1.0000000E+00
</event>
<event>
9 100 1.0000000E+00 1.0000000E+03 7.8125000E-03 0.0000000E+00
 21 -1  0  0 501 502  0.0000000E+00  0.0000000E+00  1.1237068E+03  1.1237068E+03  0.0000000E+00  0.0000000E+00  1.0000000E+00
 21 -1  0  0 502 501  0.0000000E+00  0.0000000E+00 -2.2449600E+02  2.2449600E+02  0.0000000E+00  0.0000000E+00  1.0000000E+00
 39  2  1  2   0   0  5.6843419E-14  1.1368684E-13  8.9921076E+02  1.3482028E+03  1.0045251E+03  0.0000000E+00  1.0000000E+00
 23  2  3  3   0   0  2.5842245E+02  3.8981316E+02  2.3708222E+02  5.3249293E+02  9.2759220E+01  0.0000000E+00  1.0000000E+00
 23  2  3  3   0   0 -2.5842245E+02 -3.8981316E+02  6.6212854E+02  8.1570983E+02  9.0729583E+01  0.0000000E+00  1.0000000E+00
-11  1  4  4   0   0  1.3145646E+02  1.6268394E+02  1.5262040E+02  2.5892055E+02  4.3702847E-06  0.0000000E+00  1.0000000E+00
 11  1  4  4   0   0  1.2696599E+02  2.2712922E+02  8.4461826E+01  2.7357238E+02  5.3947966E-06  0.0000000E+00  1.0000000E+00
-13  1  5  5   0   0 -2.1214110E+02 -3.6872620E+02  5.8480504E+02  7.2315959E+02  2.5231851E-06  0.0000000E+00  1.0000000E+00
 13  1  5  5   0   0 -4.6281342E+01 -2.1086960E+01  7.7323502E+01  9.2550238E+01  1.7059845E-05  0.0000000E+00  1.0000000E+00
</event>
<event>
9 100 1.0000000E+00 1.0000000E+03 7.8125000E-03 0.0000000E+00
 21 -1  0  0 501 502  0.0000000E+00  0.0000000E+00  3.0120092E+02  3.0120092E+02  0.0000000E+00  0.0000000E+00  1.0000000E+00
 21 -1  0  0 502 501  0.0000000E+00  0.0000000E+00 -8.1731427E+02  8.1731427E+02  0.0000000E+00  0.0000000E+00  1.0000000E+00
 39  2  1  2   0   0 -3.4106051E-13 -5.6843419E-13 -5.1611335E+02  1.1185152E+03  9.9232214E+02  0.0000000E+00  1.0000000E+00
 23  2  3  3   0   0  2.5023307E+02  4.1693069E+02 -3.0066663E+02  5.7884289E+02  9.0613933E+01  0.0000000E+00  1.0000000E+00
 23  2  3  3   0   0 -2.5023307E+02 -4.1693069E+02 -2.1544673E+02  5.3967230E+02  9.1548370E+01  0.0000000E+00  1.0000000E+00
-11  1  4  4   0   0  1.1435793E+02  2.6180795E+02 -1.4444241E+02  3.2013239E+02  4.2649612E-06  0.0000000E+00  1.0000000E+00
 11  1  4  4   0   0  1.3587514E+02  1.5512274E+02 -1.5622422E+02  2.5871050E+02  5.7220459E-06  0.0000000E+00  1.0000000E+00
-13  1  5  5   0   0 -3.9786162E+01 -1.4344745E+02 -5.0496999E+01  1.5719432E+02  9.1473227E-06  0.0000000E+00  1.0000000E+00
 13  1  5  5   0   0 -2.1044691E+02 -2.7348325E+02 -1.6494973E+02  3.8247797E+02  3.3036247E-06  0.0000000E+00  1.0000000E+00
</event>
<event>
9 100 1.0000000E+00 1.0000000E+03 7.8125000E-03 0.0000000E+00
 21 -1  0  0 501 502  0.0000000E+00  0.0000000E+00  3.4722722E+02  3.4722722E+02  0.0000000E+00  0.0000000E+00  1.0000000E+00
 21 -1  0  0 502 501  0.0000000E+00  0.0000000E+00 -7.4645622E+02  7.4645622E+02  0.0000000E+00  0.0000000E+00  1.0000000E+00
 39  2  1  2   0   0  1.7053026E-13 -2.2737368E-13 -3.9922900E+02  1.0936834E+03  1.0182140E+03  0.0000000E+00  1.0000000E+00
 23  2  3  3   0   0 -3.5551997E+02  3.4803475E+02 -2.6120356E+02  5.6920919E+02  9.0824914E+01  0.0000000E+00  1.0000000E+00
 23  2  3  3   0   0  3.5551997E+02 -3.4803475E+02 -1.3802545E+02  5.2447425E+02  9.2193167E+01  0.0000000E+00  1.0000000E+00
-11  1  4  4   0   0 -1.9900887E+00  9.4233779E+00  6.1514804E+00  1.1428089E+01  1.8294645E-05  0.0000000E+00  1.0000000E+00
 11  1  4  4   0   0 -3.5352988E+02  3.3861137E+02 -2.6735504E+02  5.5778110E+02  1.8544613E-06  0.0000000E+00  1.0000000E+00
-13  1  5  5   0   0  2.9899371E+02 -2.4035933E+02 -9.2501111E+01  3.9462172E+02  7.0404163E-06  0.0000000E+00  1.0000000E+00
 13  1  5  5   0   0  5.6526256E+01 -1.0767543E+02 -4.5524338E+01  1.2985253E+02  1.5377536E-05  0.0000000E+00  1.0000000E+00
</event>
<event>
9 100 1.0000000E+00 1.0000000E+03 7.8125000E-03 0.0000000E+00
 21 -1  0  0 501 502  0.0000000E+00  0.0000000E+00  9.8371599E+02  9.8371599E+02  0.0000000E+00  0.0000000E+00  1.0000000E+00
 21 -1  0  0 502 501  0.0000000E+00  0.0000000E+00 -2.6156019E+02  2.6156019E+02  0.0000000E+00  0.0000000E+00  1.0000000E+00
 39  2  1  2   0   0  7.3896445E-13 -3.6948222E-13  7.2215580E+02  1.2452762E+03  1.0144968E+03  0.0000000E+00  1.0000000E+00
 23  2  3  3   0   0 -3.8765969E+02  1.9140342E+02  6.6801744E+02  8.0087795E+02  9.0790309E+01  0.0000000E+00  1.0000000E+00
 23  2  3  3   0   0  3.8765969E+02 -1.9140342E+02  5.4138356E+01  4.4439824E+02  8.7427258E+01  0.0000000E+00  1.0000000E+00
-11  1  4  4   0   0 -2.4536016E+02  7.1194095E+01  3.8381680E+02  4.6107000E+02  7.6293945E-06  0.0000000E+00  1.0000000E+00
 11  1  4  4   0   0 -1.4229953E+02  1.2020932E+02  2.8420064E+02  3.3980795E+02  1.5258789E-05  0.0000000E+00  1.0000000E+00
-13  1  5  5   0   0  3.5149458E+02 -1.9232528E+02  6.6531523E+01  4.0615748E+02  2.1258062E-06  0.0000000E+00  1.0000000E+00
 13  1  5  5   0   0  3.6165109E+01  9.2185929E-01 -1.2393167E+01  3.8240757E+01  1.5612321E-05  0.0000000E+00  1.0000000E+00
</event>
<event>
9 100 1.0000000E+00 1.0000000E+03 7.8125000E-03 0.0000000E+00
 21 -1  0  0 501 502  0.0000000E+00  0.0000000E+00  5.9346708E+02  5.9346708E+02  0.0000000E+00  0.0000000E+00  1.0000000E+00
 21 -1  0  0 502 501  0.0000000E+00  0.0000000E+00 -4.3190129E+02  4.3190129E+02  0.0000000E+00  0.0000000E+00  1.0000000E+00
 39  2  1  2   0   0 -1.1937118E-12  1.5347723E-12  1.6156579E+02  1.0253684E+03  1.0125595E+03  0.0000000E+00  1.0000000E+00
 23  2  3  3   0   0 -2.2030278E+02  2.7756448E+02 -2.7324715E+02  4.5704886E+02  9.3028501E+01  0.0000000E+00  1.0000000E+00
 23  2  3  3   0   0  2.2030278E+02 -2.7756448E+02  4.3481294E+02  5.6831951E+02  9.1375125E+01  0.0000000E+00  1.0000000E+00
-11  1  4  4   0   0 -8.1272712E+01  1.4028066E+02 -7.4763789E+01  1.7853162E+02  5.3947966E-06  0.0000000E+00  1.0000000E+00
 11  1  4  4   0   0 -1.3903007E+02  1.3728382E+02 -1.9848336E+02  2.7851724E+02  2.5231851E-06  0.0000000E+00  1.0000000E+00
-13  1  5  5   0   0  7.8083259E+01 -1.6475057E+02  2.4833433E+02  3.0807416E+02  1.0092740E-05  0.0000000E+00  1.0000000E+00
 13  1  5  5   0   0  1.4221953E+02 -1.1281391E+02  1.8647861E+02  2.6024535E+02  1.0446979E-05  0.0000000E+00  1.0000000E+00
</event>
<event>
9 100 1.0000000E+00 1.0000000E+03 7.8125000E-03 0.0000000E+00
 21 -1  0  0 501 502  0.0000000E+00  0.0000000E+00  9.7903904E+02  9.7903904E+02  0.0000000E+00  0.0000000E+00  1.0000000E+00
 21 -1  0  0 502 501  0.0000000E+00  0.0000000E+00 -2.6156393E+02  2.6156393E+02  0.0000000E+00  0.0000000E+00  1.0000000E+00
 39  2  1  2   0   0  3.2969183E-12  7.1054274E-13  7.1747511E+02  1.2406030E+03  1.0120895E+03  0.0000000E+00  1.0000000E+00
 23  2  3  3   0   0  3.2314260E+02  6.9848597E+01  8.1487005E+02  8.8419248E+02  9.2104167E+01  0.0000000E+00  1.0000000E+00
 23  2  3  3   0   0 -3.2314260E+02 -6.9848597E+01 -9.7394943E+01  3.5641049E+02  9.0789275E+01  0.0000000E+00  1.0000000E+00
-11  1  4  4   0   0  2.9125013E+02  3.7254544E+01  7.4482270E+02  8.0060939E+02  3.6935647E-06  0.0000000E+00  1.0000000E+00
 11  1  4  4   0   0  3.1892466E+01  3.2594054E+01  7.0047351E+01  8.3583091E+01  1.0789593E-05  0.0000000E+00  1.0000000E+00
-13  1  5  5   0   0 -2.3040910E+02 -4.0458616E+01 -2.5239273E+01  2.3529189E+02  4.9554371E-06  0.0000000E+00  1.0000000E+00
 13  1  5  5   0   0 -9.2733496E+01 -2.9389981E+01 -7.2155670E+01  1.2111859E+02  6.6586685E-06  0.0000000E+00  1.0000000E+00
</event>
<event>
9 100 1.0000000E+00 1.0000000E+03 7.8125000E-03 0.0000000E+00
 21 -1  0  0 501 502  0.0000000E+00  0.0000000E+00  6.7878983E+02  6.7878983E+02  0.0000000E+00  0.0000000E+00  1.0000000E+00
 21 -1  0  0 502 501  0.0000000E+00  0.0000000E+00 -3.6632108E+02  3.6632108E+02  0.0000000E+00  0.0000000E+00  1.0000000E+00
 39  2  1  2   0   0  2.8421709E-13  4.2632564E-14  3.1246875E+02  1.0451109E+03  9.9730641E+02  0.0000000E+00  1.0000000E+00
 23  2  3  3   0   0 -3.4633511E+02 -7.3782969E+01 -1.9891874E+02  4.1651902E+02  9.2344433E+01  0.0000000E+00  1.0000000E+00
 23  2  3  3   0   0  3.4633511E+02  7.3782969E+01  5.1138749E+02  6.2859188E+02  9.0656755E+01  0.0000000E+00  1.0000000E+00
-11  1  4  4   0   0 -5.8849361E+01 -4.9856509E+01 -3.4732190E+01  8.4588674E+01  1.9073486E-06  0.0000000E+00  1.0000000E+00
 11  1  4  4   0   0 -2.8748575E+02 -2.3926460E+01 -1.6418655E+02  3.3193035E+02  1.7841613E-06  0.0000000E+00  1.0000000E+00
-13  1  5  5   0   0  1.2055948E+02  3.7300118E+01  2.5828473E+02  2.8746633E+02  4.6720309E-06  0.0000000E+00  1.0000000E+00
 13  1  5  5   0   0  2.2577563E+02  3.6482851E+01  2.5310276E+02  3.4112555E+02  6.6072495E-06  0.0000000E+00  1.0000000E+00
</event>
<event>
9 100 1.0000000E+00 1.0000000E+03 7.8125000E-03 0.0000000E+00
 21 -1  0  0 501 502  0.0000000E+00  0.0000000E+00  8.9516398E+02  8.9516398E+02  0.0000000E+00  0.0000000E+00  1.0000000E+00
 21 -1  0  0 502 501  0.0000000E+00  0.0000000E+00 -2.8037289E+02  2.8037289E+02  0.0000000E+00  0.0000000E+00  1.0000000E+00
 39  2  1  2   0   0  3.4106051E-12 -8.8107299E-13  6.1479109E+02  1.1755369E+03  1.0019575E+03  0.0000000E+00  1.0000000E+00
 23  2  3  3   0   0  2.5962474E+02 -6.6697200E+01  7.9137295E+02  8.4038560E+02  9.0129280E+01  0.0000000E+00  1.0000000E+00
 23  2  3  3   0   0 -2.5962474E+02  6.6697200E+01 -1.7658186E+02  3.3515128E+02  9.6393477E+01  0.0000000E+00  1.0000000E+00
-11  1  4  4   0   0  8.6636975E+01 -3.7276446E+01  4.0806237E+02  4.1882024E+02  0.0000000E+00  0.0000000E+00  1.0000000E+00
 11  1  4  4   0   0  1.7298777E+02 -2.9420754E+01  3.8331058E+02  4.2156535E+02  9.3440618E-06  0.0000000E+00  1.0000000E+00
-13  1  5  5   0   0 -6.2881585E+01  6.2185226E+00 -9.4238999E+01  1.1346256E+02  1.4712571E-05  0.0000000E+00  1.0000000E+00
 13  1  5  5   0   0 -1.9674316E+02  6.0478678E+01 -8.2342860E+01  2.2168872E+02  1.0002221E-05  0.0000000E+00  1.0000000E+00
</event>
<event>
9 100 1.0000000E+00 1.0000000E+03 7.8125000E-03 0.0000000E+00
 21 -1  0  0 501 502  0.0000000E+00  0.0000000E+00  2.7962590E+03  2.7962590E+03  0.0000000E+00  0.0000000E+00  1.0000000E+00
 21 -1  0  0 502 501  0.0000000E+00  0.0000000E+00 -9.1622620E+01  9.1622620E+01  0.0000000E+00  0.0000000E+00  1.0000000E+00
 39  2  1  2   0   0  1.0629719E-11  1.1652901E-11  2.7046363E+03  2.8878816E+03  1.0123252E+03  0.0000000E+00  1.0000000E+00
 23  2  3  3   0   0 -2.6743808E+02 -2.9781386E+02  5.0810451E+02  6.5314208E+02  9.0598915E+01  0.0000000E+00  1.0000000E+00
 23  2  3  3   0   0  2.6743808E+02  2.9781386E+02  2.1965318E+03  2.2347395E+03  9.5353550E+01  0.0000000E+00  1.0000000E+00
-11  1  4  4   0   0 -2.1778696E+02 -2.8560484E+02  4.4940453E+02  5.7529619E+02  5.8788433E-06  0.0000000E+00  1.0000000E+00
 11  1  4  4   0   0 -4.9651126E+01 -1.2209027E+01  5.8699978E+01  7.7845887E+01  2.9051869E-05  0.0000000E+00  1.0000000E+00
-13  1  5  5   0   0 -6.8034087E+00  7.6241082E+00  1.0047979E+02  1.0099803E+02  0.0000000E+00  0.0000000E+00  1.0000000E+00
 13  1  5  5   0   0  2.7424149E+02  2.9018976E+02  2.0960520E+03  2.1337415E+03  4.2649612E-06  0.0000000E+00  1.0000000E+00
</event>
<event>
9 100 1.0000000E+00 1.0000000E+03 7.8125000E-03 0.0000000E+00
 21 -1  0  0 501 502  0.0000000E+00  0.0000000E+00  2.4704372E+02  2.4704372E+02  0.0000000E+00  0.0000000E+00  1.0000000E+00
 21 -1  0  0 502 501  0.0000000E+00  0.0000000E+00 -1.0202081E+03  1.0202081E+03  0.0000000E+00  0.0000000E+00  1.0000000E+00
 39  2  1  2   0   0 -1.5063506E-12  3.3537617E-12 -7.7316437E+02  1.2672518E+03  1.0040637E+03  0.0000000E+00  1.0000000E+00
 23  2  3  3   0   0  1.2714171E+02 -2.9239177E+02  7.9801682E+01  3.4099244E+02  9.0827171E+01  0.0000000E+00  1.0000000E+00
 23  2  3  3   0   0 -1.2714171E+02  2.9239177E+02 -8.5296605E+02  9.2625936E+02  1.6955045E+02  0.0000000E+00  1.0000000E+00
-11  1  4  4   0   0  1.1748039E+02 -2.3338246E+02  2.9669604E+01  2.6296255E+02  3.4385216E-06  0.0000000E+00  1.0000000E+00
 11  1  4  4   0   0  9.6613277E+00 -5.9009307E+01  5.0132078E+01  7.8029897E+01  1.0836905E-05  0.0000000E+00  1.0000000E+00
-13  1  5  5   0   0 -1.4731365E+02  2.4692933E+02 -8.1333513E+02  8.6266416E+02  6.0691462E-06  0.0000000E+00  1.0000000E+00
 13  1  5  5   0   0  2.0171937E+01  4.5462441E+01 -3.9630919E+01  6.3595206E+01  2.4126264E-05  0.0000000E+00  1.0000000E+00
</event>
<event>
9 100 1.0000000E+00 1.0000000E+03 7.8125000E-03 0.0000000E+00
 21 -1  0  0 501 502  0.0000000E+00  0.0000000E+00  1.0561766E+03  1.0561766E+03  0.0000000E+00  0.0000000E+00  1.0000000E+00
 21 -1  0  0 502 501  0.0000000E+00  0.0000000E+00 -2.3526209E+02  2.3526209E+02  0.0000000E+00  0.0000000E+00  1.0000000E+00
 39  2  1  2   0   0  2.3590019E-12  2.1600499E-12  8.2091450E+02  1.2914387E+03  9.9695198E+02  0.0000000E+00  1.0000000E+00
 23  2  3  3   0   0 -2.0739354E+02 -1.9085298E+02 -1.1882027E+02  3.0627803E+02  1.5843984E+01  0.0000000E+00  1.0000000E+00
 23  2  3  3   0   0  2.0739354E+02  1.9085298E+02  9.3973477E+02  9.8516065E+02  8.9460249E+01  0.0000000E+00  1.0000000E+00
-11  1  4  4   0   0 -1.9821934E+02 -1.8457627E+02 -1.1113032E+02  2.9276143E+02  1.4600097E-06  0.0000000E+00  1.0000000E+00
 11  1  4  4   0   0 -9.1742066E+00 -6.2767035E+00 -7.6899472E+00  1.3516596E+01  1.8881788E-05  0.0000000E+00  1.0000000E+00
-13  1  5  5   0   0  5.1312403E+01  7.1539389E+01  1.7916794E+02  1.9962965E+02  3.4119690E-05  0.0000000E+00  1.0000000E+00
 13  1  5  5   0   0  1.5608114E+02  1.1931359E+02  7.6056682E+02  7.8553100E+02  1.0619668E-05  0.0000000E+00  1.0000000E+00
</event>
<event>
9 100 1.0000000E+00 1.0000000E+03 7.8125000E-03 0.0000000E+00
 21 -1  0  0 501 502  0.0000000E+00  0.0000000E+00  1.7142749E+03  1.7142749E+03  0.0000000E+00  0.0000000E+00  1.0000000E+00
 21 -1  0  0 502 501  0.0000000E+00  0.0000000E+00 -1.8979061E+02  1.8979061E+02  0.0000000E+00  0.0000000E+00  1.0000000E+00
 39  2  1  2   0   0  3.9790393E-12 -4.7748472E-12  1.5244843E+03  1.9040655E+03  1.1407949E+03  0.0000000E+00  1.0000000E+00
 23  2  3  3   0   0 -3.0562303E+02  3.7237517E+02  2.7545243E+02  5.6226002E+02  9.0518464E+01  0.0000000E+00  1.0000000E+00
 23  2  3  3   0   0  3.0562303E+02 -3.7237517E+02  1.2490319E+03  1.3418055E+03  9.1064033E+01  0.0000000E+00  1.0000000E+00
-11  1  4  4   0   0 -1.1444625E+02  9.1277283E+01  1.1598757E+02  1.8676884E+02  5.7220459E-06  0.0000000E+00  1.0000000E+00
 11  1  4  4   0   0 -1.9117678E+02  2.8109789E+02  1.5946486E+02  3.7549118E+02  5.0463701E-06  0.0000000E+00  1.0000000E+00
-13  1  5  5   0   0  2.6223562E+02 -3.0282129E+02  9.3394303E+02  1.0162273E+03  1.5258789E-05  0.0000000E+00  1.0000000E+00
 13  1  5  5   0   0  4.3387409E+01 -6.9553879E+01  3.1508882E+02  3.2557821E+02  4.1787915E-05  0.0000000E+00  1.0000000E+00
</event>
<event>
9 100 1.0000000E+00 1.0000000E+03 7.8125000E-03 0.0000000E+00
 21 -1  0  0 501 502  0.0000000E+00  0.0000000E+00  1.1589523E+03  1.1589523E+03  0.0000000E+00  0.0000000E+00  1.0000000E+00
 21 -1  0  0 502 501  0.0000000E+00  0.0000000E+00 -2.1587057E+02  2.1587057E+02  0.0000000E+00  0.0000000E+00  1.0000000E+00
 39  2  1  2   0   0 -2.8421709E-13 -8.5265128E-14  9.4308172E+02  1.3748229E+03  1.0003673E+03  0.0000000E+00  1.0000000E+00
 23  2  3  3   0   0 -3.1720340E+02 -8.9553533E+01 -3.0103294E+01  3.4338528E+02  9.1484463E+01  0.0000000E+00  1.0000000E+00
 23  2  3  3   0   0  3.1720340E+02  8.9553533E+01  9.7318501E+02  1.0314376E+03  9.0202982E+01  0.0000000E+00  1.0000000E+00
-11  1  4  4   0   0 -1.2081840E+02 -2.3947760E+01  3.1927054E+01  1.2723961E+02  5.4367801E-06  0.0000000E+00  1.0000000E+00
 11  1  4  4   0   0 -1.9638500E+02 -6.5605772E+01 -6.2030348E+01  2.1614567E+02  1.8467824E-06  0.0000000E+00  1.0000000E+00
-13  1  5  5   0   0  6.1171305E+01  5.4910168E+01  2.7291496E+02  2.8502566E+02  1.3214499E-05  0.0000000E+00  1.0000000E+00
 13  1  5  5   0   0  2.5603210E+02  3.4643365E+01  7.0027005E+02  7.4641192E+02  8.5299224E-06  0.0000000E+00  1.0000000E+00
</event>
<event>
9 100 1.0000000E+00 1.0000000E+03 7.8125000E-03 0.0000000E+00
 21 -1  0  0 501 502  0.0000000E+00  0.0000000E+00  1.9433256E+02  1.9433256E+02  0.0000000E+00  0.0000000E+00  1.0000000E+00
 21 -1  0  0 502 501  0.0000000E+00  0.0000000E+00 -1.2929797E+03  1.2929797E+03  0.0000000E+00  0.0000000E+00  1.0000000E+00
 39  2  1  2   0   0 -3.8369308E-12  7.1054274E-12 -1.0986471E+03  1.4873122E+03  1.0025329E+03  0.0000000E+00  1.0000000E+00
 23  2  3  3   0   0 -2.3434323E+02  4.2459677E+02 -6.8039992E+02  8.4046223E+02  9.0738807E+01  0.0000000E+00  1.0000000E+00
 23  2  3  3   0   0  2.3434323E+02 -4.2459677E+02 -4.1824719E+02  6.4685000E+02  9.1022215E+01  0.0000000E+00  1.0000000E+00
-11  1  4  4   0   0 -4.2094872E+01  4.0717261E+01 -4.6133825E+01  7.4553360E+01  7.6293945E-06  0.0000000E+00  1.0000000E+00
 11  1  4  4   0   0 -1.9224836E+02  3.8387951E+02 -6.3426610E+02  7.6590887E+02  9.5367432E-07  0.0000000E+00  1.0000000E+00
-13  1  5  5   0   0  2.3092155E+02 -3.5386948E+02 -3.5405034E+02  5.5127127E+02  5.2234894E-06  0.0000000E+00  1.0000000E+00
 13  1  5  5   0   0  3.4216760E+00 -7.0727296E+01 -6.4196848E+01  9.5578730E+01  2.1913767E-05  0.0000000E+00  1.0000000E+00
</event>
<event>
9 100 1.0000000E+00 1.0000000E+03 7.8125000E-03 0.0000000E+00
 21 -1  0  0 501 502  0.0000000E+00  0.0000000E+00  4.2553753E+02  4.2553753E+02  0.0000000E+00  0.0000000E+00  1.0000000E+00
 21 -1  0  0 502 501  0.0000000E+00  0.0000000E+00 -5.8530457E+02  5.8530457E+02  0.0000000E+00  0.0000000E+00  1.0000000E+00
 39  2  1  2   0   0  2.8421709E-14 -4.2632564E-14 -1.5976704E+02  1.0108421E+03  9.9813639E+02  0.0000000E+00  1.0000000E+00
 23  2  3  3   0   0  1.0731214E+02 -1.2735771E+02  3.8741191E+02  4.3170159E+02  9.2425085E+01  0.0000000E+00  1.0000000E+00
 23  2  3  3   0   0 -1.0731214E+02  1.2735771E+02 -5.4717895E+02  5.7914052E+02  9.0901351E+01  0.0000000E+00  1.0000000E+00
-11  1  4  4   0   0  6.1491017E+00  1.3472359E+01  1.5971623E+01  2.1780924E+01  1.0789593E-05  0.0000000E+00  1.0000000E+00
 11  1  4  4   0   0  1.0116303E+02 -1.4083007E+02  3.7144029E+02  4.0992067E+02  1.5634152E-06  0.0000000E+00  1.0000000E+00
-13  1  5  5   0   0 -1.0563252E+02  1.1946347E+02 -3.8444210E+02  4.1620365E+02  8.0921949E-06  0.0000000E+00  1.0000000E+00
 13  1  5  5   0   0 -1.6796115E+00  7.8942367E+00 -1.6273685E+02  1.6293687E+02  1.4273290E-05  0.0000000E+00  1.0000000E+00
</event>
<event>
9 100 1.0000000E+00 1.0000000E+03 7.8125000E-03 0.0000000E+00
 21 -1  0  0 501 502  0.0000000E+00  0.0000000E+00  2.9116637E+02  2.9116637E+02  0.0000000E+00  0.0000000E+00  1.0000000E+00
 21 -1  0  0 502 501  0.0000000E+00  0.0000000E+00 -8.6953585E+02  8.6953585E+02  0.0000000E+00  0.0000000E+00  1.0000000E+00
 39  2  1  2   0   0 -2.8137492E-12 -2.5579538E-12 -5.7836948E+02  1.1607022E+03  1.0063391E+03  0.0000000E+00  1.0000000E+00
 23  2  3  3   0   0 -2.2127814E+02 -1.9547510E+02 -7.4789174E+02  8.0947207E+02  9.3426135E+01  0.0000000E+00  1.0000000E+00
 23  2  3  3   0   0  2.2127814E+02  1.9547510E+02  1.6952226E+02  3.5123016E+02  8.6315101E+01  0.0000000E+00  1.0000000E+00
-11  1  4  4   0   0 -1.9252766E+02 -1.9123256E+02 -5.9660403E+02  6.5541831E+02  4.2649612E-06  0.0000000E+00  1.0000000E+00
 11  1  4  4   0   0 -2.8750483E+01 -4.2425406E+00 -1.5128770E+02  1.5405375E+02  1.8688124E-05  0.0000000E+00  1.0000000E+00
-13  1  5  5   0   0  1.3170005E+02  1.2509067E+02  5.5209886E+01  1.8984391E+02  1.0873560E-05  0.0000000E+00  1.0000000E+00
 13  1  5  5   0   0  8.9578090E+01  7.0384438E+01  1.1431237E+02  1.6138625E+02  1.3248867E-05  0.0000000E+00  1.0000000E+00
</event>
<event>
9 100 1.0000000E+00 1.0000000E+03 7.8125000E-03 0.0000000E+00
 21 -1  0  0 501 502  0.0000000E+00  0.0000000E+00  5.1528214E+02  5.1528214E+02  0.0000000E+00  0.0000000E+00  1.0000000E+00
 21 -1  0  0 502 501  0.0000000E+00  0.0000000E+00 -4.8400955E+02  4.8400955E+02  0.0000000E+00  0.0000000E+00  1.0000000E+00
 39  2  1  2   0   0  5.9685590E-13 -1.1368684E-13  3.1272588E+01  9.9929170E+02  9.9880224E+02  0.0000000E+00  1.0000000E+00
 23  2  3  3   0   0 -2.3383104E+02  4.5726598E+01  4.4598784E+02  5.1245638E+02  8.3297690E+01  0.0000000E+00  1.0000000E+00
 23  2  3  3   0   0  2.3383104E+02 -4.5726598E+01 -4.1471526E+02  4.8683532E+02  9.0840525E+01  0.0000000E+00  1.0000000E+00
-11  1  4  4   0   0 -2.3387683E+02  3.3329293E+01  3.9743684E+02  4.6234755E+02  2.7804145E-06  0.0000000E+00  1.0000000E+00
 11  1  4  4   0   0  4.5780672E-02  1.2397305E+01  4.8551004E+01  5.0108835E+01  1.5258789E-05  0.0000000E+00  1.0000000E+00
-13  1  5  5   0   0  3.1151667E+01 -1.1179004E+01 -1.3908315E+02  1.4296684E+02  7.6293945E-06  0.0000000E+00  1.0000000E+00
 13  1  5  5   0   0  2.0267938E+02 -3.4547594E+01 -2.7563211E+02  3.4386847E+02  0.0000000E+00  0.0000000E+00  1.0000000E+00
</event>
<event>
9 100 1.0000000E+00 1.0000000E+03 7.8125000E-03 0.0000000E+00
 21 -1  0  0 501 502  0.0000000E+00  0.0000000E+00  2.4593750E+02  2.4593750E+02  0.0000000E+00  0.0000000E+00  1.0000000E+00
 21 -1  0  0 502 501  0.0000000E+00  0.0000000E+00 -1.0157043E+03  1.0157043E+03  0.0000000E+00  0.0000000E+00  1.0000000E+00
 39  2  1  2   0   0 -2.1032065E-12  1.5063506E-12 -7.6976675E+02  1.2616417E+03  9.9959945E+02  0.0000000E+00  1.0000000E+00
 23  2  3  3   0   0  2.6780121E+02 -1.8890439E+02  7.7644601E+01  3.4901540E+02  9.1546206E+01  0.0000000E+00  1.0000000E+00
 23  2  3  3   0   0 -2.6780121E+02  1.8890439E+02 -8.4741135E+02  9.1262635E+02  8.5898200E+01  0.0000000E+00  1.0000000E+00
-11  1  4  4   0   0  8.9585357E+01 -2.7361094E+01  5.1949688E+01  1.0711179E+02  7.5016655E-06  0.0000000E+00  1.0000000E+00
 11  1  4  4   0   0  1.7821585E+02 -1.6154330E+02  2.5694913E+01  2.4190361E+02  4.3702847E-06  0.0000000E+00  1.0000000E+00
-13  1  5  5   0   0 -1.7232981E+01 -1.5571654E+00 -1.0253910E+02  1.0398878E+02  1.8688124E-05  0.0000000E+00  1.0000000E+00
 13  1  5  5   0   0 -2.5056823E+02  1.9046156E+02 -7.4487225E+02  8.0863757E+02  3.0157830E-06  0.0000000E+00  1.0000000E+00
</event>
<event>
9 100 1.0000000E+00 1.0000000E+03 7.8125000E-03 0.0000000E+00
 21 -1  0  0 501 502  0.0000000E+00  0.0000000E+00  8.6739832E+02  8.6739832E+02  0.0000000E+00  0.0000000E+00  1.0000000E+00
 21 -1  0  0 502 501  0.0000000E+00  0.0000000E+00 -2.8694025E+02  2.8694025E+02  0.0000000E+00  0.0000000E+00  1.0000000E+00
 39  2  1  2   0   0  9.0949470E-13  6.5369932E-13  5.8045807E+02  1.1543386E+03  9.9778052E+02  0.0000000E+00  1.0000000E+00
 23  2  3  3   0   0 -3.0762269E+02 -2.2522564E+02 -6.7084266E+01  3.9747189E+02  9.0140436E+01  0.0000000E+00  1.0000000E+00
 23  2  3  3   0   0  3.0762269E+02  2.2522564E+02  6.4754233E+02  7.5686668E+02  9.0431174E+01  0.0000000E+00  1.0000000E+00
-11  1  4  4   0   0 -2.4516525E+02 -1.6994221E+02 -8.8873047E+01  3.1126318E+02  5.0968071E-06  0.0000000E+00  1.0000000E+00
 11  1  4  4   0   0 -6.2457439E+01 -5.5283435E+01  2.1788781E+01  8.6208705E+01  1.1324255E-05  0.0000000E+00  1.0000000E+00
-13  1  5  5   0   0  2.1622531E+02  1.9858309E+02  5.2709244E+02  6.0333661E+02  4.2649612E-06  0.0000000E+00  1.0000000E+00
 13  1  5  5   0   0  9.1397378E+01  2.6642553E+01  1.2044990E+02  1.5353008E+02  2.5303839E-05  0.0000000E+00  1.0000000E+00
</event>
<event>
9 100 1.0000000E+00 1.0000000E+03 7.8125000E-03 0.0000000E+00
 21 -1  0  0 501 502  0.0000000E+00  0.0000000E+00  3.7947654E+02  3.7947654E+02  0.0000000E+00  0.0000000E+00  1.0000000E+00
 21 -1  0  0 502 501  0.0000000E+00  0.0000000E+00 -6.6159073E+02  6.6159073E+02  0.0000000E+00  0.0000000E+00  1.0000000E+00
 39  2  1  2   0   0 -1.2789769E-13  3.5527137E-14 -2.8211419E+02  1.0410673E+03  1.0021141E+03  0.0000000E+00  1.0000000E+00
 23  2  3  3   0   0  1.0098104E+02 -2.2124255E+01 -6.4160471E+02  6.5612163E+02  9.0290274E+01  0.0000000E+00  1.0000000E+00
 23  2  3  3   0   0 -1.0098104E+02  2.2124255E+01  3.5949052E+02  3.8494564E+02  9.0901398E+01  0.0000000E+00  1.0000000E+00
-11  1  4  4   0   0  3.4231248E+01  3.7024970E+00 -4.5438549E+02  4.5568812E+02  7.6293945E-06  0.0000000E+00  1.0000000E+00
 11  1  4  4   0   0  6.6749789E+01 -2.5826752E+01 -1.8721921E+02  2.0043350E+02  1.7892516E-05  0.0000000E+00  1.0000000E+00
-13  1  5  5   0   0 -3.4338966E+01 -2.8714592E+01  6.6204173E+01  7.9916737E+01  1.4774259E-05  0.0000000E+00  1.0000000E+00
 13  1  5  5   0   0 -6.6642071E+01  5.0838847E+01  2.9328634E+02  3.0502891E+02  4.9554371E-06  0.0000000E+00  1.0000000E+00
</event>
<event>
9 100 1.0000000E+00 1.0000000E+03 7.8125000E-03 0.0000000E+00
 21 -1  0  0 501 502  0.0000000E+00  0.0000000E+00  1.2805049E+02  1.2805049E+02  0.0000000E+00  0.0000000E+00  1.0000000E+00
 21 -1  0  0 502 501  0.0000000E+00  0.0000000E+00 -1.9848910E+03  1.9848910E+03  0.0000000E+00  0.0000000E+00  1.0000000E+00
 39  2  1  2   0   0  5.9685590E-12  2.4726887E-12 -1.8568405E+03  2.1129415E+03  1.0082981E+03  0.0000000E+00  1.0000000E+00
 23  2  3  3   0   0 -4.5045402E+02 -1.8526865E+02 -9.9230976E+02  1.1163976E+03  1.5630627E+02  0.0000000E+00  1.0000000E+00
 23  2  3  3   0   0  4.5045402E+02  1.8526865E+02 -8.6453071E+02  9.9654386E+02  9.1940257E+01  0.0000000E+00  1.0000000E+00
-11  1  4  4   0   0 -4.0749725E+02 -2.0541283E+02 -9.4489542E+02  1.0493216E+03  5.4784419E-06  0.0000000E+00  1.0000000E+00
 11  1  4  4   0   0 -4.2956766E+01  2.0144182E+01 -4.7414337E+01  6.7076010E+01  2.8546580E-05  0.0000000E+00  1.0000000E+00
-13  1  5  5   0   0  4.3250813E+02  1.9584086E+02 -8.2504138E+02  9.5189821E+02  1.0662403E-06  0.0000000E+00  1.0000000E+00
 13  1  5  5   0   0  1.7945892E+01 -1.0572206E+01 -3.9489334E+01  4.4645650E+01  1.8688124E-05  0.0000000E+00  1.0000000E+00
</event>
<event>
9 100 1.0000000E+00 1.0000000E+03 7.8125000E-03 0.0000000E+00
 21 -1  0  0 501 502  0.0000000E+00  0.0000000E+00  5.1103228E+02  5.1103228E+02  0.0000000E+00  0.0000000E+00  1.0000000E+00
 21 -1  0  0 502 501  0.0000000E+00  0.0000000E+00 -4.9696644E+02  4.9696644E+02  0.0000000E+00  0.0000000E+00  1.0000000E+00
 39  2  1  2   0   0 -2.8421709E-13 -6.8212103E-13  1.4065834E+01  1.0079987E+03  1.0079006E+03  0.0000000E+00  1.0000000E+00
 23  2  3  3   0   0  1.8002120E+02  4.1410120E+02 -1.9805310E+02  5.0117580E+02  8.9803740E+01  0.0000000E+00  1.0000000E+00
 23  2  3  3   0   0 -1.8002120E+02 -4.1410120E+02  2.1211894E+02  5.0682292E+02  8.9373309E+01  0.0000000E+00  1.0000000E+00
-11  1  4  4   0   0  1.8891767E+02  3.7274305E+02 -1.7556985E+02  4.5326817E+02  1.3486992E-06  0.0000000E+00  1.0000000E+00
 11  1  4  4   0   0 -8.8964639E+00  4.1358155E+01 -2.2483257E+01  4.7907629E+01  1.1121658E-05  0.0000000E+00  1.0000000E+00
-13  1  5  5   0   0 -1.5037277E+01 -1.3607391E+02  5.8225014E+01  1.4876955E+02  8.3139399E-06  0.0000000E+00  1.0000000E+00
 13  1  5  5   0   0 -1.6498393E+02 -2.7802730E+02  1.5389392E+02  3.5805337E+02  6.7434958E-07  0.0000000E+00  1.0000000E+00
</event>
<event>
9 100 1.0000000E+00 1.0000000E+03 7.8125000E-03 0.0000000E+00
 21 -1  0  0 501 502  0.0000000E+00  0.0000000E+00  6.6139634E+02  6.6139634E+02  0.0000000E+00  0.0000000E+00  1.0000000E+00
 21 -1  0  0 502 501  0.0000000E+00  0.0000000E+00 -3.8115033E+02  3.8115033E+02  0.0000000E+00  0.0000000E+00  1.0000000E+00
 39  2  1  2   0   0  3.4106051E-13 -2.8421709E-14  2.8024601E+02  1.0425467E+03  1.0041742E+03  0.0000000E+00  1.0000000E+00
 23  2  3  3   0   0 -1.3113117E+02  1.3919953E+01 -3.5392183E+02  3.8836855E+02  9.0445109E+01  0.0000000E+00  1.0000000E+00
 23  2  3  3   0   0  1.3113117E+02 -1.3919953E+01  6.3416784E+02  6.5417813E+02  9.1602536E+01  0.0000000E+00  1.0000000E+00
-11  1  4  4   0   0 -1.1141222E+02 -2.6840814E+01 -2.5058239E+02  2.7554427E+02  7.0080464E-06  0.0000000E+00  1.0000000E+00
 11  1  4  4   0   0 -1.9718951E+01  4.0760767E+01 -1.0333944E+02  1.1282427E+02  1.5258789E-05  0.0000000E+00  1.0000000E+00
-13  1  5  5   0   0  8.4642840E+01  3.5378800E+01  3.2698586E+02  3.3961128E+02  1.4273290E-05  0.0000000E+00  1.0000000E+00
 13  1  5  5   0   0  4.6488328E+01 -4.9298752E+01  3.0718198E+02  3.1456685E+02  1.6627880E-05  0.0000000E+00  1.0000000E+00
</event>
<event>
9 100 1.0000000E+00 1.0000000E+03 7.8125000E-03 0.0000000E+00
 21 -1  0  0 501 502  0.0000000E+00  0.0000000E+00  5.8466241E+02  5.8466241E+02  0.0000000E+00  0.0000000E+00  1.0000000E+00
 21 -1  0  0 502 501  0.0000000E+00  0.0000000E+00 -4.2597008E+02  4.2597008E+02  0.0000000E+00  0.0000000E+00  1.0000000E+00
 39  2  1  2   0   0  7.1054274E-14 -3.1263880E-13  1.5869234E+02  1.0106325E+03  9.9809557E+02  0.0000000E+00  1.0000000E+00
 23  2  3  3   0   0 -4.5573977E+01  2.4613636E+02  5.0695684E+02  5.7213553E+02  8.7599875E+01  0.0000000E+00  1.0000000E+00
 23  2  3  3   0   0  4.5573977E+01 -2.4613636E+02 -3.4826450E+02  4.3849695E+02  9.1276076E+01  0.0000000E+00  1.0000000E+00
-11  1  4  4   0   0 -3.0512756E+01  6.3622639E+01  2.2603207E+02  2.3678970E+02  8.5299224E-06  0.0000000E+00  1.0000000E+00
 11  1  4  4   0   0 -1.5061222E+01  1.8251372E+02  2.8092477E+02  3.3534583E+02  5.3947966E-06  0.0000000E+00  1.0000000E+00
-13  1  5  5   0   0 -1.2665261E+01 -2.3529924E+00 -5.8435766E+00  1.4145416E+01  6.6072495E-06  0.0000000E+00  1.0000000E+00
 13  1  5  5   0   0  5.8239239E+01 -2.4378337E+02 -3.4242092E+02  4.2435154E+02  1.6858739E-07  0.0000000E+00  1.0000000E+00
</event>
<event>
9 100 1.0000000E+00 1.0000000E+03 7.8125000E-03 0.0000000E+00
 21 -1  0  0 501 502  0.0000000E+00  0.0000000E+00  7.1531765E+02  7.1531765E+02  0.0000000E+00  0.0000000E+00  1.0000000E+00
 21 -1  0  0 502 501  0.0000000E+00  0.0000000E+00 -3.5063423E+02  3.5063423E+02  0.0000000E+00  0.0000000E+00  1.0000000E+00
 39  2  1  2   0   0 -1.1937118E-12 -8.2422957E-13  3.6468342E+02  1.0659519E+03  1.0016284E+03  0.0000000E+00  1.0000000E+00
 23  2  3  3   0   0  2.4322174E+02  1.6023774E+02  6.0499120E+02  6.7767903E+02  9.1660067E+01  0.0000000E+00  1.0000000E+00
 23  2  3  3   0   0 -2.4322174E+02 -1.6023774E+02 -2.4030778E+02  3.8827284E+02  9.0415816E+01  0.0000000E+00  1.0000000E+00
-11  1  4  4   0   0  1.9338632E+02  1.4429073E+02  5.5557661E+02  6.0570905E+02  3.2340670E-06  0.0000000E+00  1.0000000E+00
 11  1  4  4   0   0  4.9835423E+01  1.5947011E+01  4.9414590E+01  7.1969981E+01  1.0789593E-05  0.0000000E+00  1.0000000E+00
-13  1  5  5   0   0 -2.2546171E+02 -1.1256702E+02 -2.1594550E+02  3.3186861E+02  1.7520116E-06  0.0000000E+00  1.0000000E+00
 13  1  5  5   0   0 -1.7760029E+01 -4.7670718E+01 -2.4362283E+01  5.6404227E+01  8.0921949E-06  0.0000000E+00  1.0000000E+00
</event>
<event>
9 100 1.0000000E+00 1.0000000E+03 7.8125000E-03 0.0000000E+00
 21 -1  0  0 501 502  0.0000000E+00  0.0000000E+00  8.9588100E+02  8.9588100E+02  0.0000000E+00  0.0000000E+00  1.0000000E+00
 21 -1  0  0 502 501  0.0000000E+00  0.0000000E+00 -2.8230102E+02  2.8230102E+02  0.0000000E+00  0.0000000E+00  1.0000000E+00
 39  2  1  2   0   0  4.2632564E-14  1.1368684E-13  6.1357997E+02  1.1781820E+03  1.0057994E+03  0.0000000E+00  1.0000000E+00
 23  2  3  3   0   0  1.0763524E+02  2.9416711E+02  7.5537905E+02  8.2256322E+02  8.8843241E+01  0.0000000E+00  1.0000000E+00
 23  2  3  3   0   0 -1.0763524E+02 -2.9416711E+02 -1.4179907E+02  3.5561880E+02  9.0764092E+01  0.0000000E+00  1.0000000E+00
-11  1  4  4   0   0 -1.2232929E+01  6.9780470E+00  4.0726864E+01  4.3093099E+01  2.4126264E-05  0.0000000E+00  1.0000000E+00
 11  1  4  4   0   0  1.1986817E+02  2.8718906E+02  7.1465218E+02  7.7947012E+02  3.2690309E-06  0.0000000E+00  1.0000000E+00
-13  1  5  5   0   0 -6.1819690E+01 -5.9053215E+01 -2.4681025E+01  8.8983759E+01  1.2579828E-05  0.0000000E+00  1.0000000E+00
 13  1  5  5   0   0 -4.5815547E+01 -2.3511389E+02 -1.1711805E+02  2.6663504E+02  5.7121032E-06  0.0000000E+00  1.0000000E+00
</event>
<event>
9 100 1.0000000E+00 1.0000000E+03 7.8125000E-03 0.0000000E+00
 21 -1  0  0 501 502  0.0000000E+00  0.0000000E+00  1.0527518E+03  1.0527518E+03  0.0000000E+00  0.0000000E+00  1.0000000E+00
 21 -1  0  0 502 501  0.0000000E+00  0.0000000E+00 -2.2506175E+02  2.2506175E+02  0.0000000E+00  0.0000000E+00  1.0000000E+00
 39  2  1  2   0   0  1.0800250E-12  2.5579538E-13  8.2769002E+02  1.2778135E+03  9.7351765E+02  0.0000000E+00  1.0000000E+00
 23  2  3  3   0   0  3.5793191E+02  9.3776861E+01  8.2394222E+02  9.0777773E+02  9.0941000E+01  0.0000000E+00  1.0000000E+00
 23  2  3  3   0   0 -3.5793191E+02 -9.3776861E+01  3.7477987E+00  3.7003579E+02  1.7564871E+00  0.0000000E+00  1.0000000E+00
-11  1  4  4   0   0  2.8352483E+02  3.8608913E+01  6.6243960E+02  7.2159767E+02  7.1366451E-06  0.0000000E+00  1.0000000E+00
 11  1  4  4   0   0  7.4407085E+01  5.5167948E+01  1.6150263E+02  1.8618006E+02  1.5258789E-05  0.0000000E+00  1.0000000E+00
-13  1  5  5   0   0 -3.1647854E+02 -8.2353139E+01  3.4542433E+00  3.2703614E+02  6.7886197E-07  0.0000000E+00  1.0000000E+00
 13  1  5  5   0   0 -4.1453370E+01 -1.1423721E+01  2.9355536E-01  4.2999645E+01  6.1545945E-06  0.0000000E+00  1.0000000E+00
</event>
<event>
9 100 1.0000000E+00 1.0000000E+03 7.8125000E-03 0.0000000E+00
 21 -1  0  0 501 502  0.0000000E+00  0.0000000E+00  3.5029345E+02  3.5029345E+02  0.0000000E+00  0.0000000E+00  1.0000000E+00
 21 -1  0  0 502 501  0.0000000E+00  0.0000000E+00 -7.6964079E+02  7.6964079E+02  0.0000000E+00  0.0000000E+00  1.0000000E+00
 39  2  1  2   0   0 -7.3896445E-13  5.3290705E-14 -4.1934733E+02  1.1199342E+03  1.0384606E+03  0.0000000E+00  1.0000000E+00
 23  2  3  3   0   0 -2.6480745E+02  1.4564023E+01 -6.8096316E+02  7.3651154E+02  9.1669676E+01  0.0000000E+00  1.0000000E+00
 23  2  3  3   0   0  2.6480745E+02 -1.4564023E+01  2.6161582E+02  3.8342270E+02  9.0747082E+01  0.0000000E+00  1.0000000E+00
-11  1  4  4   0   0 -1.8605292E+02 -2.4985481E+01 -5.2238211E+02  5.5508831E+02  4.2649612E-06  0.0000000E+00  1.0000000E+00
 11  1  4  4   0   0 -7.8754533E+01  3.9549504E+01 -1.5858104E+02  1.8142323E+02  7.6293945E-06  0.0000000E+00  1.0000000E+00
-13  1  5  5   0   0  1.7446554E+02  3.2260837E+01  1.8249740E+02  2.5452758E+02  1.6518124E-06  0.0000000E+00  1.0000000E+00
 13  1  5  5   0   0  9.0341912E+01 -4.6824860E+01  7.9118418E+01  1.2889512E+02  7.1366451E-06  0.0000000E+00  1.0000000E+00
</event>
<event>
9 100 1.0000000E+00 1.0000000E+03 7.8125000E-03 0.0000000E+00
 21 -1  0  0 501 502  0.0000000E+00  0.0000000E+00  6.3930185E+02  6.3930185E+02  0.0000000E+00  0.0000000E+00  1.0000000E+00
 21 -1  0  0 502 501  0.0000000E+00  0.0000000E+00 -3.9486031E+02  3.9486031E+02  0.0000000E+00  0.0000000E+00  1.0000000E+00
 39  2  1  2   0   0 -1.7053026E-12 -4.6895821E-13  2.4444154E+02  1.0341622E+03  1.0048581E+03  0.0000000E+00  1.0000000E+00
 23  2  3  3   0   0  4.3844525E+02  1.2259889E+02  3.1944241E+02  5.6360819E+02  9.1356521E+01  0.0000000E+00  1.0000000E+00
 23  2  3  3   0   0 -4.3844525E+02 -1.2259889E+02 -7.5000869E+01  4.7055397E+02  9.2364369E+01  0.0000000E+00  1.0000000E+00
-11  1  4  4   0   0  1.1127646E+02  8.4512004E+00  4.0309116E+01  1.1865369E+02  1.2651920E-05  0.0000000E+00  1.0000000E+00
 11  1  4  4   0   0  3.2716880E+02  1.1414769E+02  2.7913330E+02  4.4495451E+02  2.9394217E-06  0.0000000E+00  1.0000000E+00
-13  1  5  5   0   0 -4.1091897E+02 -1.3257661E+02 -5.5391365E+01  4.3531501E+02  1.0115244E-06  0.0000000E+00  1.0000000E+00
 13  1  5  5   0   0 -2.7526285E+01  9.9777197E+00 -1.9609505E+01  3.5238954E+01  9.6787372E-06  0.0000000E+00  1.0000000E+00
</event>
<event>
9 100 1.0000000E+00 1.0000000E+03 7.8125000E-03 0.0000000E+00
 21 -1  0  0 501 502  0.0000000E+00  0.0000000E+00  3.0237418E+02  3.0237418E+02  0.0000000E+00  0.0000000E+00  1.0000000E+00
 21 -1  0  0 502 501  0.0000000E+00  0.0000000E+00 -8.2063445E+02  8.2063445E+02  0.0000000E+00  0.0000000E+00  1.0000000E+00
 39  2  1  2   0   0 -3.4106051E-13 -3.4106051E-13 -5.1826027E+02  1.1230086E+03  9.9627039E+02  0.0000000E+00  1.0000000E+00
 23  2  3  3   0   0 -3.4614515E+02 -3.4637205E+02 -2.1416237E+02  5.4230686E+02  9.1875758E+01  0.0000000E+00  1.0000000E+00
 23  2  3  3   0   0  3.4614515E+02  3.4637205E+02 -3.0409790E+02  5.8070177E+02  7.0348836E+01  0.0000000E+00  1.0000000E+00
-11  1  4  4   0   0 -2.3833337E+02 -2.2174541E+02 -1.8661506E+02  3.7523194E+02  3.7546195E-06  0.0000000E+00  1.0000000E+00
 11  1  4  4   0   0 -1.0781178E+02 -1.2462663E+02 -2.7547305E+01  1.6707493E+02  3.8146973E-06  0.0000000E+00  1.0000000E+00
-13  1  5  5   0   0  7.2520925E+01  9.9849057E+01 -4.9469229E+01  1.3295233E+02  8.0921949E-06  0.0000000E+00  1.0000000E+00
 13  1  5  5   0   0  2.7362422E+02  2.4652299E+02 -2.5462867E+02  4.4774944E+02  2.4314020E-06  0.0000000E+00  1.0000000E+00
</event>
<event>
9 100 1.0000000E+00 1.0000000E+03 7.8125000E-03 0.0000000E+00
 21 -1  0  0 501 502  0.0000000E+00  0.0000000E+00  4.2524814E+02  4.2524814E+02  0.0000000E+00  0.0000000E+00  1.0000000E+00
 21 -1  0  0 502 501  0.0000000E+00  0.0000000E+00 -5.6727234E+02  5.6727234E+02  0.0000000E+00  0.0000000E+00  1.0000000E+00
 39  2  1  2   0   0  5.6843419E-14  4.2632564E-14 -1.4202420E+02  9.9252048E+02  9.8230649E+02  0.0000000E+00  1.0000000E+00
 23  2  3  3   0   0  7.2475268E+01  6.8585880E+01  4.0685744E+02  4.2868776E+02  9.1013911E+01  0.0000000E+00  1.0000000E+00
 23  2  3  3   0   0 -7.2475268E+01 -6.8585880E+01 -5.4888164E+02  5.6383273E+02  8.1728810E+01  0.0000000E+00  1.0000000E+00
-11  1  4  4   0   0  8.5703542E+01  6.5707320E+01  2.6462890E+02  2.8581638E+02  3.8146973E-06  0.0000000E+00  1.0000000E+00
 11  1  4  4   0   0 -1.3228275E+01  2.8785595E+00  1.4222854E+02  1.4287138E+02  6.6072495E-06  0.0000000E+00  1.0000000E+00
-13  1  5  5   0   0 -3.0973023E+01 -4.5864000E+01 -1.1769080E+02  1.3005368E+02  9.3440618E-06  0.0000000E+00  1.0000000E+00
 13  1  5  5   0   0 -4.1502245E+01 -2.2721879E+01 -4.3119084E+02  4.3377905E+02  5.0463701E-06  0.0000000E+00  1.0000000E+00
</event>
<event>
9 100 1.0000000E+00 1.0000000E+03 7.8125000E-03 0.0000000E+00
 21 -1  0  0 501 502  0.0000000E+00  0.0000000E+00  3.6616179E+02  3.6616179E+02  0.0000000E+00  0.0000000E+00  1.0000000E+00
 21 -1  0  0 502 501  0.0000000E+00  0.0000000E+00 -6.8562334E+02  6.8562334E+02  0.0000000E+00  0.0000000E+00  1.0000000E+00
 39  2  1  2   0   0  3.5527137E-15  3.4106051E-13 -3.1946155E+02  1.0517851E+03  1.0020959E+03  0.0000000E+00  1.0000000E+00
 23  2  3  3   0   0 -2.4864549E+01 -4.2616926E+02  9.7289819E+01  4.4746588E+02  9.2314227E+01  0.0000000E+00  1.0000000E+00
 23  2  3  3   0   0  2.4864549E+01  4.2616926E+02 -4.1675137E+02  6.0431925E+02  9.6340870E+01  0.0000000E+00  1.0000000E+00
-11  1  4  4   0   0  2.0679733E+01 -2.2612852E+01  6.8189356E+00  3.1392520E+01  2.8610229E-06  0.0000000E+00  1.0000000E+00
 11  1  4  4   0   0 -4.5544281E+01 -4.0355641E+02  9.0470883E+01  4.1607336E+02  2.0699209E-06  0.0000000E+00  1.0000000E+00
-13  1  5  5   0   0  5.4975904E+00  4.1536111E+02 -3.9766234E+02  5.7505688E+02  1.1680077E-06  0.0000000E+00  1.0000000E+00
 13  1  5  5   0   0  1.9366958E+01  1.0808149E+01 -1.9089031E+01  2.9262369E+01  1.8688124E-05  0.0000000E+00  1.0000000E+00
</event>
<event>
9 100 1.0000000E+00 1.0000000E+03 7.8125000E-03 0.0000000E+00
 21 -1  0  0 501 502  0.0000000E+00  0.0000000E+00  4.7860415E+02  4.7860415E+02  0.0000000E+00  0.0000000E+00  1.0000000E+00
 21 -1  0  0 502 501  0.0000000E+00  0.0000000E+00 -5.2214781E+02  5.2214781E+02  0.0000000E+00  0.0000000E+00  1.0000000E+00
 39  2  1  2   0   0 -1.7053026E-13  5.1159077E-13 -4.3543661E+01  1.0007520E+03  9.9980420E+02  0.0000000E+00  1.0000000E+00
 23  2  3  3   0   0  1.4644326E+02 -4.6031430E+02  6.6764874E+01  4.9674099E+02  9.4652911E+01  0.0000000E+00  1.0000000E+00
 23  2  3  3   0   0 -1.4644326E+02  4.6031430E+02 -1.1030854E+02  5.0401097E+02  9.2326606E+01  0.0000000E+00  1.0000000E+00
-11  1  4  4   0   0  1.4683894E+01 -8.7312971E+01  4.7986093E+01  1.0070669E+02  1.3300253E-05  0.0000000E+00  1.0000000E+00
 11  1  4  4   0   0  1.3175937E+02 -3.7300133E+02  1.8778782E+01  3.9603430E+02  5.6420133E-06  0.0000000E+00  1.0000000E+00
-13  1  5  5   0   0 -3.1777648E+00  1.4839023E+02 -2.8286287E+01  1.5109557E+02  7.2000832E-06  0.0000000E+00  1.0000000E+00
 13  1  5  5   0   0 -1.4326550E+02  3.1192408E+02 -8.2022248E+01  3.5291540E+02  5.2125957E-06  0.0000000E+00  1.0000000E+00
</event>
<event>
9 100 1.0000000E+00 1.0000000E+03 7.8125000E-03 0.0000000E+00
 21 -1  0  0 501 502  0.0000000E+00  0.0000000E+00  2.9486800E+02  2.9486800E+02  0.0000000E+00  0.0000000E+00  1.0000000E+00
 21 -1  0  0 502 501  0.0000000E+00  0.0000000E+00 -8.4609981E+02  8.4609981E+02  0.0000000E+00  0.0000000E+00  1.0000000E+00
 39  2  1  2   0   0  6.5369932E-13 -2.8421709E-13 -5.5123181E+02  1.1409678E+03  9.9897500E+02  0.0000000E+00  1.0000000E+00
 23  2  3  3   0   0 -1.7864637E+02  7.4570506E+01  2.4379574E+02  3.1773300E+02  6.3581560E+01  0.0000000E+00  1.0000000E+00
 23  2  3  3   0   0  1.7864637E+02 -7.4570506E+01 -7.9502755E+02  8.2323481E+02  9.0396158E+01  0.0000000E+00  1.0000000E+00
-11  1  4  4   0   0 -1.7900111E+02  6.6664594E+01  2.1374397E+02  2.8665668E+02  2.8808227E-06  0.0000000E+00  1.0000000E+00
 11  1  4  4   0   0  3.5474488E-01  7.9059125E+00  3.0051766E+01  3.1076324E+01  1.3214499E-05  0.0000000E+00  1.0000000E+00
-13  1  5  5   0   0  1.8698272E+02 -7.1453041E+01 -7.0798113E+02  7.3573457E+02  2.5231851E-06  0.0000000E+00  1.0000000E+00
 13  1  5  5   0   0 -8.3363533E+00 -3.1174649E+00 -8.7046418E+01  8.7500241E+01  1.7059845E-05  0.0000000E+00  1.0000000E+00
</event>
<event>
9 100 1.0000000E+00 1.0000000E+03 7.8125000E-03 0.0000000E+00
 21 -1  0  0 501 502  0.0000000E+00  0.0000000E+00  5.1632086E+02  5.1632086E+02  0.0000000E+00  0.0000000E+00  1.0000000E+00
 21 -1  0  0 502 501  0.0000000E+00  0.0000000E+00 -4.8386447E+02  4.8386447E+02  0.0000000E+00  0.0000000E+00  1.0000000E+00
 39  2  1  2   0   0 -6.7501560E-14 -1.7621460E-12  3.2456387E+01  1.0001853E+03  9.9965858E+02  0.0000000E+00  1.0000000E+00
 23  2  3  3   0   0 -1.8247517E+01 -4.8425069E+02  9.7901095E+01  5.0265772E+02  9.0821028E+01  0.0000000E+00  1.0000000E+00
 23  2  3  3   0   0  1.8247517E+01  4.8425069E+02 -6.5444708E+01  4.9752761E+02  9.1755187E+01  0.0000000E+00  1.0000000E+00
-11  1  4  4   0   0  2.4731859E+01 -3.5568541E+02  8.4630311E+01  3.6645063E+02  4.4604032E-07  0.0000000E+00  1.0000000E+00
 11  1  4  4   0   0 -4.2979376E+01 -1.2856528E+02  1.3270784E+01  1.3620709E+02  5.3947966E-06  0.0000000E+00  1.0000000E+00
-13  1  5  5   0   0  3.5346529E+01  3.8880350E+02 -2.1306554E+01  3.9098786E+02  5.5608291E-06  0.0000000E+00  1.0000000E+00
 13  1  5  5   0   0 -1.7099011E+01  9.5447191E+01 -4.4138154E+01  1.0653975E+02  1.5868722E-05  0.0000000E+00  1.0000000E+00
</event>
<event>
9 100 1.0000000E+00 1.0000000E+03 7.8125000E-03 0.0000000E+00
 21 -1  0  0 501 502  0.0000000E+00  0.0000000E+00  6.3401546E+02  6.3401546E+02  0.0000000E+00  0.0000000E+00  1.0000000E+00
 21 -1  0  0 502 501  0.0000000E+00  0.0000000E+00 -3.9158731E+02  3.9158731E+02  0.0000000E+00  0.0000000E+00  1.0000000E+00
 39  2  1  2   0   0 -5.6843419E-14  3.5527137E-15  2.4242815E+02  1.0256028E+03  9.9653883E+02  0.0000000E+00  1.0000000E+00
 23  2  3  3   0   0  1.3143979E+02 -1.5707226E+01 -3.6422784E+02  3.9811182E+02  9.1148053E+01  0.0000000E+00  1.0000000E+00
 23  2  3  3   0   0 -1.3143979E+02  1.5707226E+01  6.0665598E+02  6.2749095E+02  9.0500155E+01  0.0000000E+00  1.0000000E+00
-11  1  4  4   0   0 -9.6087612E+00 -1.5442353E+01 -6.1583413E+01  6.4213015E+01  1.5258789E-05  0.0000000E+00  1.0000000E+00
 11  1  4  4   0   0  1.4104855E+02 -2.6487349E-01 -3.0264442E+02  3.3389880E+02  4.2649612E-06  0.0000000E+00  1.0000000E+00
-13  1  5  5   0   0  6.5036016E+00  7.7371193E+00  7.4396970E+00  1.2550257E+01  7.6293945E-06  0.0000000E+00  1.0000000E+00
 13  1  5  5   0   0 -1.3794339E+02  7.9701069E+00  5.9921629E+02  6.1494069E+02  1.7026492E-06  0.0000000E+00  1.0000000E+00
</event>
<event>
9 100 1.0000000E+00 1.0000000E+03 7.8125000E-03 0.0000000E+00
 21 -1  0  0 501 502  0.0000000E+00  0.0000000E+00  5.8790192E+02  5.8790192E+02  0.0000000E+00  0.0000000E+00  1.0000000E+00
 21 -1  0  0 502 501  0.0000000E+00  0.0000000E+00 -4.5389087E+02  4.5389087E+02  0.0000000E+00  0.0000000E+00  1.0000000E+00
 39  2  1  2   0   0 -3.1263880E-13  9.9475983E-14  1.3401104E+02  1.0417928E+03  1.0331376E+03  0.0000000E+00  1.0000000E+00
 23  2  3  3   0   0  2.2643306E+02 -9.3206273E+01  5.1660082E+02  5.7843637E+02  8.8050472E+01  0.0000000E+00  1.0000000E+00
 23  2  3  3   0   0 -2.2643306E+02  9.3206273E+01 -3.8258978E+02  4.6335642E+02  9.1459798E+01  0.0000000E+00  1.0000000E+00
-11  1  4  4   0   0  9.1131981E+01 -4.1972144E+01  1.2086106E+02  1.5707990E+02  1.2063132E-05  0.0000000E+00  1.0000000E+00
 11  1  4  4   0   0  1.3530108E+02 -5.1234129E+01  3.9573976E+02  4.2135647E+02  1.3486992E-06  0.0000000E+00  1.0000000E+00
-13  1  5  5   0   0 -2.6998456E+01 -1.4491823E+01 -2.3078862E+01  3.8360962E+01  6.6072495E-06  0.0000000E+00  1.0000000E+00
 13  1  5  5   0   0 -1.9943461E+02  1.0769810E+02 -3.5951091E+02  4.2499546E+02  1.1182823E-06  0.0000000E+00  1.0000000E+00
</event>
<event>
9 100 1.0000000E+00 1.0000000E+03 7.8125000E-03 0.0000000E+00
 21 -1  0  0 501 502  0.0000000E+00  0.0000000E+00  6.2588448E+02  6.2588448E+02  0.0000000E+00  0.0000000E+00  1.0000000E+00
 21 -1  0  0 502 501  0.0000000E+00  0.0000000E+00 -3.9973580E+02  3.9973580E+02  0.0000000E+00  0.0000000E+00  1.0000000E+00
 39  2  1  2   0   0 -1.1368684E-13  1.1368684E-13  2.2614869E+02  1.0256203E+03  1.0003768E+03  0.0000000E+00  1.0000000E+00
 23  2  3  3   0   0 -2.5636983E+02  4.0841872E+02  2.2402878E+02  5.3952274E+02  9.1457936E+01  0.0000000E+00  1.0000000E+00
 23  2  3  3   0   0  2.5636983E+02 -4.0841872E+02  2.1199095E+00  4.8609754E+02  6.1277904E+01  0.0000000E+00  1.0000000E+00
-11  1  4  4   0   0 -4.9512547E+01  1.2224178E+02  2.5174566E+01  1.3426952E+02  1.2063132E-05  0.0000000E+00  1.0000000E+00
 11  1  4  4   0   0 -2.0685729E+02  2.8617694E+02  1.9885421E+02  4.0525323E+02  1.9369217E-06  0.0000000E+00  1.0000000E+00
-13  1  5  5   0   0  1.0696715E+02 -1.2356199E+02 -1.4042682E+01  1.6403272E+02  1.1525757E-05  0.0000000E+00  1.0000000E+00
 13  1  5  5   0   0  1.4940269E+02 -2.8485673E+02  1.6162591E+01  3.2206482E+02  7.7915834E-06  0.0000000E+00  1.0000000E+00
</event>
<event>
9 100 1.0000000E+00 1.0000000E+03 7.8125000E-03 0.0000000E+00
 21 -1  0  0 501 502  0.0000000E+00  0.0000000E+00  1.5351030E+03  1.5351030E+03  0.0000000E+00  0.0000000E+00  1.0000000E+00
 21 -1  0  0 502 501  0.0000000E+00  0.0000000E+00 -1.6520982E+02  1.6520982E+02  0.0000000E+00  0.0000000E+00  1.0000000E+00
 39  2  1  2   0   0 -1.4210855E-14 -1.5916157E-12  1.3698931E+03  1.7003128E+03  1.0072022E+03  0.0000000E+00  1.0000000E+00
 23  2  3  3   0   0  4.3346542E+00  4.9284928E+02  5.9696715E+02  7.7908280E+02  8.7641547E+01  0.0000000E+00  1.0000000E+00
 23  2  3  3   0   0 -4.3346542E+00 -4.9284928E+02  7.7292598E+02  9.2122998E+02  9.1273739E+01  0.0000000E+00  1.0000000E+00
-11  1  4  4   0   0  2.0449478E+01  7.0014464E+01  5.4245346E+01  9.0899746E+01  1.3214499E-05  0.0000000E+00  1.0000000E+00
 11  1  4  4   0   0 -1.6114824E+01  4.2283481E+02  5.4272180E+02  6.8818306E+02  3.0902580E-06  0.0000000E+00  1.0000000E+00
-13  1  5  5   0   0 -3.7488015E+01 -3.3691668E+02  4.7846493E+02  5.8638460E+02  1.4273290E-05  0.0000000E+00  1.0000000E+00
 13  1  5  5   0   0  3.3153360E+01 -1.5593260E+02  2.9446105E+02  3.3484538E+02  1.3214499E-05  0.0000000E+00  1.0000000E+00
</event>
<event>
9 100 1.0000000E+00 1.0000000E+03 7.8125000E-03 0.0000000E+00
 21 -1  0  0 501 502  0.0000000E+00  0.0000000E+00  1.8157522E+03  1.8157522E+03  0.0000000E+00  0.0000000E+00  1.0000000E+00
 21 -1  0  0 502 501  0.0000000E+00  0.0000000E+00 -1.3547539E+02  1.3547539E+02  0.0000000E+00  0.0000000E+00  1.0000000E+00
 39  2  1  2   0   0 -5.1159077E-13  6.2527761E-12  1.6802768E+03  1.9512276E+03  9.9194705E+02  0.0000000E+00  1.0000000E+00
 23  2  3  3   0   0  3.4886704E+01 -4.2928762E+02  3.9280484E+02  5.9010051E+02  9.1749822E+01  0.0000000E+00  1.0000000E+00
 23  2  3  3   0   0 -3.4886704E+01  4.2928762E+02  1.2874720E+03  1.3611271E+03  9.7866844E+01  0.0000000E+00  1.0000000E+00
-11  1  4  4   0   0  5.8364420E+01 -2.8543674E+02  2.2698054E+02  3.6932466E+02  1.4525934E-05  0.0000000E+00  1.0000000E+00
 11  1  4  4   0   0 -2.3477716E+01 -1.4385088E+02  1.6582431E+02  2.2077586E+02  2.2728682E-05  0.0000000E+00  1.0000000E+00
-13  1  5  5   0   0  2.9995143E+01  6.8548971E+01  2.3867645E+02  2.5013020E+02  4.3158373E-05  0.0000000E+00  1.0000000E+00
 13  1  5  5   0   0 -6.4881847E+01  3.6073865E+02  1.0487955E+03  1.1109969E+03  7.6293945E-06  0.0000000E+00  1.0000000E+00
</event>
<event>
9 100 1.0000000E+00 1.0000000E+03 7.8125000E-03 0.0000000E+00
 21 -1  0  0 501 502  0.0000000E+00  0.0000000E+00  4.1942407E+02  4.1942407E+02  0.0000000E+00  0.0000000E+00  1.0000000E+00
 21 -1  0  0 502 501  0.0000000E+00  0.0000000E+00 -5.9811957E+02  5.9811957E+02  0.0000000E+00  0.0000000E+00  1.0000000E+00
 39  2  1  2   0   0  5.1159077E-13 -1.7053026E-13 -1.7869551E+02  1.0175436E+03  1.0017300E+03  0.0000000E+00  1.0000000E+00
 23  2  3  3   0   0  3.3855707E+02 -1.3200772E+02  2.4806381E+02  4.4959346E+02  9.2475411E+01  0.0000000E+00  1.0000000E+00
 23  2  3  3   0   0 -3.3855707E+02  1.3200772E+02 -4.2675931E+02  5.6795018E+02  9.1634933E+01  0.0000000E+00  1.0000000E+00
-11  1  4  4   0   0  3.1949135E+02 -1.1030607E+02  2.5035105E+02  4.2061598E+02  3.0314983E-06  0.0000000E+00  1.0000000E+00
 11  1  4  4   0   0  1.9065721E+01 -2.1701650E+01 -2.2872415E+00  2.8977487E+01  1.6184390E-05  0.0000000E+00  1.0000000E+00
-13  1  5  5   0   0 -3.3943818E+02  1.2055796E+02 -3.9704703E+02  5.3609592E+02  2.1324806E-06  0.0000000E+00  1.0000000E+00
 13  1  5  5   0   0  8.8110571E-01  1.1449759E+01 -2.9712288E+01  3.1854252E+01  1.4273290E-05  0.0000000E+00  1.0000000E+00
</event>
<event>
9 100 1.0000000E+00 1.0000000E+03 7.8125000E-03 0.0000000E+00
 21 -1  0  0 501 502  0.0000000E+00  0.0000000E+00  2.5270490E+02  2.5270490E+02  0.0000000E+00  0.0000000E+00  1.0000000E+00
 21 -1  0  0 502 501  0.0000000E+00  0.0000000E+00 -9.7644777E+02  9.7644777E+02  0.0000000E+00  0.0000000E+00  1.0000000E+00
 39  2  1  2   0   0 -1.1368684E-12 -4.5474735E-13 -7.2374287E+02  1.2291527E+03  9.9348505E+02  0.0000000E+00  1.0000000E+00
 23  2  3  3   0   0  4.4935223E+02  1.7620659E+02 -4.4683203E+02  6.6391646E+02  9.0332778E+01  0.0000000E+00  1.0000000E+00
 23  2  3  3   0   0 -4.4935223E+02 -1.7620659E+02 -2.7691084E+02  5.6523622E+02  9.9227899E+01  0.0000000E+00  1.0000000E+00
-11  1  4  4   0   0  3.4208252E+02  1.5059879E+02 -2.9446671E+02  4.7582674E+02  3.8146973E-06  0.0000000E+00  1.0000000E+00
 11  1  4  4   0   0  1.0726971E+02  2.5607797E+01 -1.5236532E+02  1.8808971E+02  5.3947966E-06  0.0000000E+00  1.0000000E+00
-13  1  5  5   0   0 -3.1105659E+01 -3.0490438E+00 -4.9773337E+01  5.8772815E+01  1.5728400E-05  0.0000000E+00  1.0000000E+00
 13  1  5  5   0   0 -4.1824657E+02 -1.7315755E+02 -2.2713750E+02  5.0646340E+02  2.7804145E-06  0.0000000E+00  1.0000000E+00
</event>
<event>
9 100 1.0000000E+00 1.0000000E+03 7.8125000E-03 0.0000000E+00
 21 -1  0  0 501 502  0.0000000E+00  0.0000000E+00  7.9470505E+02  7.9470505E+02  0.0000000E+00  0.0000000E+00  1.0000000E+00
 21 -1  0  0 502 501  0.0000000E+00  0.0000000E+00 -3.1366852E+02  3.1366852E+02  0.0000000E+00  0.0000000E+00  1.0000000E+00
 39  2  1  2   0   0 -2.1316282E-14 -2.2737368E-13  4.8103652E+02  1.1083736E+03  9.9854686E+02  0.0000000E+00  1.0000000E+00
 23  2  3  3   0   0 -2.4926912E+01 -2.5661456E+02 -2.2332076E+02  3.5288199E+02  9.0449704E+01  0.0000000E+00  1.0000000E+00
 23  2  3  3   0   0  2.4926912E+01  2.5661456E+02  7.0435728E+02  7.5549158E+02  9.0420998E+01  0.0000000E+00  1.0000000E+00
-11  1  4  4   0   0  1.5931117E+01 -4.6607496E+00 -2.3262997E+01  2.8577790E+01  1.5258789E-05  0.0000000E+00  1.0000000E+00
 11  1  4  4   0   0 -4.0858029E+01 -2.5195381E+02 -2.0005777E+02  3.2430420E+02  2.9968751E-06  0.0000000E+00  1.0000000E+00
-13  1  5  5   0   0  3.0774202E+01  2.6286443E+02  6.8238648E+02  7.3191261E+02  2.9394217E-06  0.0000000E+00  1.0000000E+00
 13  1  5  5   0   0 -5.8472902E+00 -6.2498638E+00  2.1970808E+01  2.3578974E+01  3.1456800E-05  0.0000000E+00  1.0000000E+00
</event>
<event>
9 100 1.0000000E+00 1.0000000E+03 7.8125000E-03 0.0000000E+00
 21 -1  0  0 501 502  0.0000000E+00  0.0000000E+00  6.6459543E+02  6.6459543E+02  0.0000000E+00  0.0000000E+00  1.0000000E+00
 21 -1  0  0 502 501  0.0000000E+00  0.0000000E+00 -3.9848092E+02  3.9848092E+02  0.0000000E+00  0.0000000E+00  1.0000000E+00
 39  2  1  2   0   0 -5.9685590E-13 -1.1368684E-12  2.6611451E+02  1.0630764E+03  1.0292300E+03  0.0000000E+00  1.0000000E+00
 23  2  3  3   0   0 -2.1327804E+02 -4.2523690E+02 -4.5001640E+01  4.8656197E+02  9.1670395E+01  0.0000000E+00  1.0000000E+00
 23  2  3  3   0   0  2.1327804E+02  4.2523690E+02  3.1111615E+02  5.7651438E+02  9.6237379E+01  0.0000000E+00  1.0000000E+00
-11  1  4  4   0   0 -1.0126300E+02 -2.7084208E+02 -5.9684547E+01  2.9524883E+02  4.2716200E-06  0.0000000E+00  1.0000000E+00
 11  1  4  4   0   0 -1.1201504E+02 -1.5439482E+02  1.4682907E+01  1.9131314E+02  6.1064951E-06  0.0000000E+00  1.0000000E+00
-13  1  5  5   0   0  7.2061660E+01  7.8507551E+01  1.0284095E+02  1.4809652E+02  1.2651920E-05  0.0000000E+00  1.0000000E+00
 13  1  5  5   0   0  1.4121638E+02  3.4672935E+02  2.0827520E+02  4.2841787E+02  4.8628039E-06  0.0000000E+00  1.0000000E+00
</event>
<event>
9 100 1.0000000E+00 1.0000000E+03 7.8125000E-03 0.0000000E+00
 21 -1  0  0 501 502  0.0000000E+00  0.0000000E+00  4.9479091E+02  4.9479091E+02  0.0000000E+00  0.0000000E+00  1.0000000E+00
 21 -1  0  0 502 501  0.0000000E+00  0.0000000E+00 -4.4272096E+02  4.4272096E+02  0.0000000E+00  0.0000000E+00  1.0000000E+00
 39  2  1  2   0   0 -5.1159077E-13 -7.8159701E-14  5.2069949E+01  9.3751187E+02  9.3606475E+02  0.0000000E+00  1.0000000E+00
 23  2  3  3   0   0 -3.9151909E+02 -5.7335886E+01 -2.1481028E+02  4.5888501E+02  8.8641922E+01  0.0000000E+00  1.0000000E+00
 23  2  3  3   0   0  3.9151909E+02  5.7335886E+01  2.6688023E+02  4.7862686E+02  3.5833131E+01  0.0000000E+00  1.0000000E+00
-11  1  4  4   0   0 -7.8402224E+01  1.2741024E+01 -7.3729891E+01  1.0837592E+02  1.4273290E-05  0.0000000E+00  1.0000000E+00
 11  1  4  4   0   0 -3.1311687E+02 -7.0076911E+01 -1.4108039E+02  3.5050909E+02  3.1629799E-06  0.0000000E+00  1.0000000E+00
-13  1  5  5   0   0  2.8543235E+02  4.1474666E+01  2.1324221E+02  3.5869766E+02  3.3036247E-06  0.0000000E+00  1.0000000E+00
 13  1  5  5   0   0  1.0608675E+02  1.5861220E+01  5.3638015E+01  1.1992920E+02  7.6293945E-06  0.0000000E+00  1.0000000E+00
</event>
<event>
9 100 1.0000000E+00 1.0000000E+03 7.8125000E-03 0.0000000E+00
 21 -1  0  0 501 502  0.0000000E+00  0.0000000E+00  1.4883166E+03  1.4883166E+03  0.0000000E+00  0.0000000E+00  1.0000000E+00
 21 -1  0  0 502 501  0.0000000E+00  0.0000000E+00 -1.6702315E+02  1.6702315E+02  0.0000000E+00  0.0000000E+00  1.0000000E+00
 39  2  1  2   0   0 -4.9737992E-13 -2.2737368E-12  1.3212935E+03  1.6553398E+03  9.9716265E+02  0.0000000E+00  1.0000000E+00
 23  2  3  3   0   0  1.0700726E+02  4.6718541E+02  4.9007612E+02  6.9164846E+02  9.2142492E+01  0.0000000E+00  1.0000000E+00
 23  2  3  3   0   0 -1.0700726E+02 -4.6718541E+02  8.3121736E+02  9.6369132E+02  8.9810379E+01  0.0000000E+00  1.0000000E+00
-11  1  4  4   0   0  9.6850053E+01  4.1916856E+02  4.7371793E+02  6.3991475E+02  3.4136346E-06  0.0000000E+00  1.0000000E+00
 11  1  4  4   0   0  1.0157208E+01  4.8016852E+01  1.6358189E+01  5.1733715E+01  2.8032185E-05  0.0000000E+00  1.0000000E+00
-13  1  5  5   0   0 -1.0819880E+02 -4.5864384E+02  7.7653018E+02  9.0832829E+02  4.6720309E-06  0.0000000E+00  1.0000000E+00
 13  1  5  5   0   0  1.1915390E+00 -8.5415655E+00  5.4687176E+01  5.5363032E+01  4.5776367E-05  0.0000000E+00  1.0000000E+00
</event>
<event>
9 100 1.0000000E+00 1.0000000E+03 7.8125000E-03 0.0000000E+00
 21 -1  0  0 501 502  0.0000000E+00  0.0000000E+00  1.0763821E+03  1.0763821E+03  0.0000000E+00  0.0000000E+00  1.0000000E+00
 21 -1  0  0 502 501  0.0000000E+00  0.0000000E+00 -2.2178085E+02  2.2178085E+02  0.0000000E+00  0.0000000E+00  1.0000000E+00
 39  2  1  2   0   0 -1.9895197E-12  6.8212103E-13  8.5460122E+02  1.2981629E+03  9.7718151E+02  0.0000000E+00  1.0000000E+00
 23  2  3  3   0   0 -3.4309758E+02  1.1983821E+02  8.4336338E+02  9.2282988E+02  9.0972775E+01  0.0000000E+00  1.0000000E+00
 23  2  3  3   0   0  3.4309758E+02 -1.1983821E+02  1.1237837E+01  3.7533303E+02  9.3120615E+01  0.0000000E+00  1.0000000E+00
-11  1  4  4   0   0 -1.3204967E+02  6.4587627E+01  2.4235425E+02  2.8345063E+02  2.9548518E-05  0.0000000E+00  1.0000000E+00
 11  1  4  4   0   0 -2.1104791E+02  5.5250580E+01  6.0100913E+02  6.3937925E+02  1.1121658E-05  0.0000000E+00  1.0000000E+00
-13  1  5  5   0   0  2.4704809E+02 -4.6424993E+01 -1.4276638E+01  2.5177740E+02  6.6501263E-06  0.0000000E+00  1.0000000E+00
 13  1  5  5   0   0  9.6049497E+01 -7.3413214E+01  2.5514475E+01  1.2355563E+02  1.4771373E-05  0.0000000E+00  1.0000000E+00
</event>
<event>
9 100 1.0000000E+00 1.0000000E+03 7.8125000E-03 0.0000000E+00
 21 -1  0  0 501 502  0.0000000E+00  0.0000000E+00  1.9175129E+02  1.9175129E+02  0.0000000E+00  0.0000000E+00  1.0000000E+00
 21 -1  0  0 502 501  0.0000000E+00  0.0000000E+00 -1.3810652E+03  1.3810652E+03  0.0000000E+00  0.0000000E+00  1.0000000E+00
 39  2  1  2   0   0 -1.8189894E-12  1.3073986E-12 -1.1893139E+03  1.5728165E+03  1.0292153E+03  0.0000000E+00  1.0000000E+00
 23  2  3  3   0   0 -4.1927121E+02  2.8004614E+02 -6.6170447E+02  8.3681870E+02  9.0545796E+01  0.0000000E+00  1.0000000E+00
 23  2  3  3   0   0  4.1927121E+02 -2.8004614E+02 -5.2760940E+02  7.3599775E+02  9.5429698E+01  0.0000000E+00  1.0000000E+00
-11  1  4  4   0   0 -2.9028047E+02  1.5514093E+02 -3.7962612E+02  5.0244149E+02  1.3754087E-05  0.0000000E+00  1.0000000E+00
 11  1  4  4   0   0 -1.2899074E+02  1.2490521E+02 -2.8207836E+02  3.3437721E+02  2.2888184E-05  0.0000000E+00  1.0000000E+00
-13  1  5  5   0   0  3.0051220E+02 -2.4059360E+02 -4.3112411E+02  5.7797999E+02  7.2629672E-06  0.0000000E+00  1.0000000E+00
 13  1  5  5   0   0  1.1875900E+02 -3.9452542E+01 -9.6485291E+01  1.5801777E+02  2.2888184E-05  0.0000000E+00  1.0000000E+00
</event>
<event>
9 100 1.0000000E+00 1.0000000E+03 7.8125000E-03 0.0000000E+00
 21 -1  0  0 501 502  0.0000000E+00  0.0000000E+00  2.8165650E+02  2.8165650E+02  0.0000000E+00  0.0000000E+00  1.0000000E+00
 21 -1  0  0 502 501  0.0000000E+00  0.0000000E+00 -8.9629846E+02  8.9629846E+02  0.0000000E+00  0.0000000E+00  1.0000000E+00
 39  2  1  2   0   0 -4.8316906E-13  3.1263880E-13 -6.1464196E+02  1.1779550E+03  1.0048846E+03  0.0000000E+00  1.0000000E+00
 23  2  3  3   0   0  2.3598023E+02 -1.6414499E+02  1.6377066E+02  3.4308237E+02  9.0853936E+01  0.0000000E+00  1.0000000E+00
 23  2  3  3   0   0 -2.3598023E+02  1.6414499E+02 -7.7841262E+02  8.3487259E+02  9.1955365E+01  0.0000000E+00  1.0000000E+00
-11  1  4  4   0   0  2.1574522E+02 -1.4615717E+02  1.7486379E+02  3.1382361E+02  3.3590800E-06  0.0000000E+00  1.0000000E+00
 11  1  4  4   0   0  2.0235011E+01 -1.7987819E+01 -1.1093126E+01  2.9258755E+01  1.6071605E-05  0.0000000E+00  1.0000000E+00
-13  1  5  5   0   0 -1.7172239E+02  1.5366152E+02 -6.6875990E+02  7.0734733E+02  3.5683226E-06  0.0000000E+00  1.0000000E+00
 13  1  5  5   0   0 -6.4257833E+01  1.0483462E+01 -1.0965272E+02  1.2752526E+02  1.5258789E-05  0.0000000E+00  1.0000000E+00
</event>
<event>
9 100 1.0000000E+00 1.0000000E+03 7.8125000E-03 0.0000000E+00
 21 -1  0  0 501 502  0.0000000E+00  0.0000000E+00  8.0716725E+02  8.0716725E+02  0.0000000E+00  0.0000000E+00  1.0000000E+00
 21 -1  0  0 502 501  0.0000000E+00  0.0000000E+00 -3.0644620E+02  3.0644620E+02  0.0000000E+00  0.0000000E+00  1.0000000E+00
 39  2  1  2   0   0  5.5422333E-13 -2.2737368E-12  5.0072105E+02  1.1136134E+03  9.9469259E+02  0.0000000E+00  1.0000000E+00
 23  2  3  3   0   0 -1.0476044E+02  4.6321407E+02  1.1965311E+02  4.9838690E+02  9.2361295E+01  0.0000000E+00  1.0000000E+00
 23  2  3  3   0   0  1.0476044E+02 -4.6321407E+02  3.8106794E+02  6.1522655E+02  8.8027897E+01  0.0000000E+00  1.0000000E+00
-11  1  4  4   0   0 -1.0570929E+02  2.7891744E+02  5.6598178E+01  3.0359964E+02  4.8628039E-06  0.0000000E+00  1.0000000E+00
 11  1  4  4   0   0  9.4885199E-01  1.8429663E+02  6.3054932E+01  1.9478725E+02  5.4784419E-06  0.0000000E+00  1.0000000E+00
-13  1  5  5   0   0 -1.0937850E+01 -2.5410809E+01  3.8526975E+01  4.7430724E+01  1.6184390E-05  0.0000000E+00  1.0000000E+00
 13  1  5  5   0   0  1.1569829E+02 -4.3780326E+02  3.4254097E+02  5.6779583E+02  8.2590618E-07  0.0000000E+00  1.0000000E+00
</event>
<event>
9 100 1.0000000E+00 1.0000000E+03 7.8125000E-03 0.0000000E+00
 21 -1  0  0 501 502  0.0000000E+00  0.0000000E+00  4.1358244E+02  4.1358244E+02  0.0000000E+00  0.0000000E+00  1.0000000E+00
 21 -1  0  0 502 501  0.0000000E+00  0.0000000E+00 -5.8547589E+02  5.8547589E+02  0.0000000E+00  0.0000000E+00  1.0000000E+00
 39  2  1  2   0   0  5.4001248E-13  2.1316282E-13 -1.7189345E+02  9.9905833E+02  9.8415963E+02  0.0000000E+00  1.0000000E+00
 23  2  3  3   0   0 -2.1446352E+02 -8.9894126E+01 -5.1645526E+02  5.7342259E+02  8.9509093E+01  0.0000000E+00  1.0000000E+00
 23  2  3  3   0   0  2.1446352E+02  8.9894126E+01  3.4456181E+02  4.2563574E+02  9.1473414E+01  0.0000000E+00  1.0000000E+00
-11  1  4  4   0   0 -1.1367385E+02 -8.5152740E+01 -2.3688818E+02  2.7620417E+02  5.3947966E-06  0.0000000E+00  1.0000000E+00
 11  1  4  4   0   0 -1.0078966E+02 -4.7413855E+00 -2.7956708E+02  2.9721842E+02  1.0092740E-05  0.0000000E+00  1.0000000E+00
-13  1  5  5   0   0 -5.3717225E-01  1.1185281E+01 -8.5278376E-01  1.1230597E+01  1.5258789E-05  0.0000000E+00  1.0000000E+00
 13  1  5  5   0   0  2.1500069E+02  7.8708845E+01  3.4541459E+02  4.1440514E+02  1.9696325E-06  0.0000000E+00  1.0000000E+00
</event>
<event>
9 100 1.0000000E+00 1.0000000E+03 7.8125000E-03 0.0000000E+00
 21 -1  0  0 501 502  0.0000000E+00  0.0000000E+00  9.5788779E+02  9.5788779E+02  0.0000000E+00  0.0000000E+00  1.0000000E+00
 21 -1  0  0 502 501  0.0000000E+00  0.0000000E+00 -2.5653846E+02  2.5653846E+02  0.0000000E+00  0.0000000E+00  1.0000000E+00
 39  2  1  2   0   0  4.5474735E-13  1.4210855E-13  7.0134933E+02  1.2144262E+03  9.9143342E+02  0.0000000E+00  1.0000000E+00
 23  2  3  3   0   0 -3.3533713E+02 -1.0284523E+02 -6.3658929E+01  3.6774748E+02  9.0319562E+01  0.0000000E+00  1.0000000E+00
 23  2  3  3   0   0  3.3533713E+02  1.0284523E+02  7.6500826E+02  8.4667876E+02  9.2731677E+01  0.0000000E+00  1.0000000E+00
-11  1  4  4   0   0 -3.2221304E+02 -1.0193102E+02 -3.9517414E+01  3.4025403E+02  2.4314020E-06  0.0000000E+00  1.0000000E+00
 11  1  4  4   0   0 -1.3124083E+01 -9.1421001E-01 -2.4141515E+01  2.7493455E+01  1.0436091E-05  0.0000000E+00  1.0000000E+00
-13  1  5  5   0   0  3.2292508E+02  1.1736418E+02  7.2921645E+02  8.0610891E+02  2.9394217E-06  0.0000000E+00  1.0000000E+00
 13  1  5  5   0   0  1.2412050E+01 -1.4518950E+01  3.5791813E+01  4.0569851E+01  2.1579186E-05  0.0000000E+00  1.0000000E+00
</event>
<event>
9 100 1.0000000E+00 1.0000000E+03 7.8125000E-03 0.0000000E+00
 21 -1  0  0 501 502  0.0000000E+00  0.0000000E+00  1.7148367E+02  1.7148367E+02  0.0000000E+00  0.0000000E+00  1.0000000E+00
 21 -1  0  0 502 501  0.0000000E+00  0.0000000E+00 -1.4531957E+03  1.4531957E+03  0.0000000E+00  0.0000000E+00  1.0000000E+00
 39  2  1  2   0   0 -2.6716407E-12 -9.3791641E-13 -1.2817120E+03  1.6246793E+03  9.9839737E+02  0.0000000E+00  1.0000000E+00
 23  2  3  3   0   0  3.5940189E+02  1.3420628E+02 -1.4925509E+02  4.2172153E+02  9.1602002E+01  0.0000000E+00  1.0000000E+00
 23  2  3  3   0   0 -3.5940189E+02 -1.3420628E+02 -1.1324569E+03  1.2029578E+03  1.3216578E+02  0.0000000E+00  1.0000000E+00
-11  1  4  4   0   0  3.3114685E+02  1.4447812E+02 -1.2255490E+02  3.8151260E+02  5.5403471E-06  0.0000000E+00  1.0000000E+00
 11  1  4  4   0   0  2.8255041E+01 -1.0271841E+01 -2.6700188E+01  4.0208931E+01  2.4276585E-05  0.0000000E+00  1.0000000E+00
-13  1  5  5   0   0 -2.5888481E+02 -1.0402560E+02 -9.7180856E+02  1.0110660E+03  3.3036247E-06  0.0000000E+00  1.0000000E+00
 13  1  5  5   0   0 -1.0051707E+02 -3.0180680E+01 -1.6064834E+02  1.9189175E+02  5.1745071E-05  0.0000000E+00  1.0000000E+00
</event>
<event>
9 100 1.0000000E+00 1.0000000E+03 7.8125000E-03 0.0000000E+00
 21 -1  0  0 501 502  0.0000000E+00  0.0000000E+00  1.1210656E+03  1.1210656E+03  0.0000000E+00  0.0000000E+00  1.0000000E+00
 21 -1  0  0 502 501  0.0000000E+00  0.0000000E+00 -2.2265480E+02  2.2265480E+02  0.0000000E+00  0.0000000E+00  1.0000000E+00
 39  2  1  2   0   0  7.9580786E-13 -4.2632564E-14  8.9841076E+02  1.3437204E+03  9.9922095E+02  0.0000000E+00  1.0000000E+00
 23  2  3  3   0   0 -4.8585914E+02  3.6724691E+01  5.3348841E+02  7.2817618E+02  9.0679988E+01  0.0000000E+00  1.0000000E+00
 23  2  3  3   0   0  4.8585914E+02 -3.6724691E+01  3.6492236E+02  6.1554418E+02  9.1205827E+01  0.0000000E+00  1.0000000E+00
-11  1  4  4   0   0 -1.3489209E+02  2.4840596E+01  2.0934619E+02  2.5027737E+02  2.0185481E-05  0.0000000E+00  1.0000000E+00
 11  1  4  4   0   0 -3.5096705E+02  1.1884094E+01  3.2414222E+02  4.7789882E+02  9.7256079E-06  0.0000000E+00  1.0000000E+00
-13  1  5  5   0   0  2.9858764E+02  1.7811741E+01  2.4433789E+02  3.8622900E+02  1.0359555E-05  0.0000000E+00  1.0000000E+00
 13  1  5  5   0   0  1.8727150E+02 -5.4536431E+01  1.2058447E+02  2.2931518E+02  1.9263277E-05  0.0000000E+00  1.0000000E+00
</event>
<event>
9 100 1.0000000E+00 1.0000000E+03 7.8125000E-03 0.0000000E+00
 21 -1  0  0 501 502  0.0000000E+00  0.0000000E+00  7.1029409E+02  7.1029409E+02  0.0000000E+00  0.0000000E+00  1.0000000E+00
 21 -1  0  0 502 501  0.0000000E+00  0.0000000E+00 -3.4725535E+02  3.4725535E+02  0.0000000E+00  0.0000000E+00  1.0000000E+00
 39  2  1  2   0   0  1.2221335E-12 -8.1712415E-14  3.6303873E+02  1.0575494E+03  9.9328430E+02  0.0000000E+00  1.0000000E+00
 23  2  3  3   0   0  2.1815581E+02 -1.3594166E+01 -2.8523622E+02  3.6751067E+02  7.6991111E+01  0.0000000E+00  1.0000000E+00
 23  2  3  3   0   0 -2.1815581E+02  1.3594166E+01  6.4827495E+02  6.9003877E+02  9.0090692E+01  0.0000000E+00  1.0000000E+00
-11  1  4  4   0   0  2.2259061E+02 -2.0464374E+01 -2.7394138E+02  3.5356647E+02  1.9768624E-06  0.0000000E+00  1.0000000E+00
 11  1  4  4   0   0 -4.4348000E+00  6.8702075E+00 -1.1294840E+01  1.3944196E+01  1.7059845E-05  0.0000000E+00  1.0000000E+00
-13  1  5  5   0   0 -1.1481682E+02 -2.4081219E+01  4.2859570E+02  4.4436143E+02  7.1366451E-06  0.0000000E+00  1.0000000E+00
 13  1  5  5   0   0 -1.0333899E+02  3.7675385E+01  2.1967926E+02  2.4567734E+02  1.5258789E-05  0.0000000E+00  1.0000000E+00
</event>
<event>
9 100 1.0000000E+00 1.0000000E+03 7.8125000E-03 0.0000000E+00
 21 -1  0  0 501 502  0.0000000E+00  0.0000000E+00  4.7067477E+02  4.7067477E+02  0.0000000E+00  0.0000000E+00  1.0000000E+00
 21 -1  0  0 502 501  0.0000000E+00  0.0000000E+00 -4.9452177E+02  4.9452177E+02  0.0000000E+00  0.0000000E+00  1.0000000E+00
 39  2  1  2   0   0 -2.8421709E-13  2.2737368E-13 -2.3847003E+01  9.6519654E+02  9.6490190E+02  0.0000000E+00  1.0000000E+00
 23  2  3  3   0   0 -1.8085493E+02  1.4661391E+02 -4.2489016E+02  4.9219254E+02  8.6704693E+01  0.0000000E+00  1.0000000E+00
 23  2  3  3   0   0  1.8085493E+02 -1.4661391E+02  4.0104316E+02  4.7300400E+02  9.3236404E+01  0.0000000E+00  1.0000000E+00
-11  1  4  4   0   0 -4.9474518E+01  2.7772145E+01 -1.8807635E+02  1.9644779E+02  9.7256079E-06  0.0000000E+00  1.0000000E+00
 11  1  4  4   0   0 -1.3138041E+02  1.1884176E+02 -2.3681381E+02  2.9574475E+02  8.0921949E-06  0.0000000E+00  1.0000000E+00
-13  1  5  5   0   0  1.2356894E+02 -1.4870655E+02  3.0302201E+02  3.5945133E+02  1.9073486E-06  0.0000000E+00  1.0000000E+00
 13  1  5  5   0   0  5.7285985E+01  2.0926404E+00  9.8021153E+01  1.1355267E+02  3.8146973E-06  0.0000000E+00  1.0000000E+00
</event>
<event>
9 100 1.0000000E+00 1.0000000E+03 7.8125000E-03 0.0000000E+00
 21 -1  0  0 501 502  0.0000000E+00  0.0000000E+00  9.3550478E+02  9.3550478E+02  0.0000000E+00  0.0000000E+00  1.0000000E+00
 21 -1  0  0 502 501  0.0000000E+00  0.0000000E+00 -2.6161781E+02  2.6161781E+02  0.0000000E+00  0.0000000E+00  1.0000000E+00
 39  2  1  2   0   0  1.4352963E-12  3.5242920E-12  6.7388697E+02  1.1971226E+03  9.8943361E+02  0.0000000E+00  1.0000000E+00
 23  2  3  3   0   0 -1.1523084E+02 -2.7668397E+02 -1.2636446E+02  3.3779650E+02  9.1139094E+01  0.0000000E+00  1.0000000E+00
 23  2  3  3   0   0  1.1523084E+02  2.7668397E+02  8.0025142E+02  8.5932609E+02  9.0591568E+01  0.0000000E+00  1.0000000E+00
-11  1  4  4   0   0 -6.7493530E+01 -2.0816124E+02 -1.2940664E+02  2.5422934E+02  4.2876004E-06  0.0000000E+00  1.0000000E+00
 11  1  4  4   0   0 -4.7737309E+01 -6.8522731E+01  3.0421879E+00  8.3567160E+01  8.7405695E-06  0.0000000E+00  1.0000000E+00
-13  1  5  5   0   0  1.1299094E+02  2.2440802E+02  7.2786559E+02  7.7000924E+02  2.1324806E-06  0.0000000E+00  1.0000000E+00
 13  1  5  5   0   0  2.2398953E+00  5.2275944E+01  7.2385834E+01  8.9316855E+01  1.8688124E-05  0.0000000E+00  1.0000000E+00
</event>
<event>
9 100 1.0000000E+00 1.0000000E+03 7.8125000E-03 0.0000000E+00
 21 -1  0  0 501 502  0.0000000E+00  0.0000000E+00  5.7728592E+02  5.7728592E+02  0.0000000E+00  0.0000000E+00  1.0000000E+00
 21 -1  0  0 502 501  0.0000000E+00  0.0000000E+00 -4.3956789E+02  4.3956789E+02  0.0000000E+00  0.0000000E+00  1.0000000E+00
 39  2  1  2   0   0  3.6948222E-13  7.9580786E-13  1.3771803E+02  1.0168538E+03  1.0074847E+03  0.0000000E+00  1.0000000E+00
 23  2  3  3   0   0 -1.7493037E+02 -4.1687920E+02  2.7346273E+02  5.3621704E+02  9.1421830E+01  0.0000000E+00  1.0000000E+00
 23  2  3  3   0   0  1.7493037E+02  4.1687920E+02 -1.3574470E+02  4.8063678E+02  9.0532794E+01  0.0000000E+00  1.0000000E+00
-11  1  4  4   0   0 -1.8331024E+02 -4.0416210E+02  2.5343592E+02  5.1105716E+02  2.9682874E-06  0.0000000E+00  1.0000000E+00
 11  1  4  4   0   0  8.3798742E+00 -1.2717096E+01  2.0026808E+01  2.5159886E+01  1.5728400E-05  0.0000000E+00  1.0000000E+00
-13  1  5  5   0   0  1.3777929E+01  1.2283913E+01  1.0491871E+01  2.1232174E+01  2.1996617E-05  0.0000000E+00  1.0000000E+00
 13  1  5  5   0   0  1.6115244E+02  4.0459528E+02 -1.4623657E+02  4.5940460E+02  2.7676074E-06  0.0000000E+00  1.0000000E+00
</event>
<event>
9 100 1.0000000E+00 1.0000000E+03 7.8125000E-03 0.0000000E+00
 21 -1  0  0 501 502  0.0000000E+00  0.0000000E+00  2.4796376E+02  2.4796376E+02  0.0000000E+00  0.0000000E+00  1.0000000E+00
 21 -1  0  0 502 501  0.0000000E+00  0.0000000E+00 -9.8736709E+02  9.8736709E+02  0.0000000E+00  0.0000000E+00  1.0000000E+00
 39  2  1  2   0   0 -2.2026825E-13 -8.5265128E-13 -7.3940333E+02  1.2353308E+03  9.8960852E+02  0.0000000E+00  1.0000000E+00
 23  2  3  3   0   0 -3.7170784E+01 -1.3763002E+02 -9.5165048E+02  9.6501561E+02  7.2751687E+01  0.0000000E+00  1.0000000E+00
 23  2  3  3   0   0  3.7170784E+01  1.3763002E+02  2.1224715E+02  2.7031523E+02  8.7737017E+01  0.0000000E+00  1.0000000E+00
-11  1  4  4   0   0 -2.7029985E+01 -2.9840767E+01 -1.2547495E+02  1.3177653E+02  1.8688124E-05  0.0000000E+00  1.0000000E+00
 11  1  4  4   0   0 -1.0140799E+01 -1.0778925E+02 -8.2617553E+02  8.3323908E+02  0.0000000E+00  0.0000000E+00  1.0000000E+00
-13  1  5  5   0   0  1.8178017E+01  9.1685486E+00  8.8940369E+01  9.1240845E+01  8.8440118E-06  0.0000000E+00  1.0000000E+00
 13  1  5  5   0   0  1.8992768E+01  1.2846147E+02  1.2330678E+02  1.7907439E+02  5.3098339E-06  0.0000000E+00  1.0000000E+00
</event>
<event>
9 100 1.0000000E+00 1.0000000E+03 7.8125000E-03 0.0000000E+00
 21 -1  0  0 501 502  0.0000000E+00  0.0000000E+00  3.6275924E+02  3.6275924E+02  0.0000000E+00  0.0000000E+00  1.0000000E+00
 21 -1  0  0 502 501  0.0000000E+00  0.0000000E+00 -7.0234153E+02  7.0234153E+02  0.0000000E+00  0.0000000E+00  1.0000000E+00
 39  2  1  2   0   0 -2.5579538E-13  1.4210855E-13 -3.3958229E+02  1.0651008E+03  1.0095165E+03  0.0000000E+00  1.0000000E+00
 23  2  3  3   0   0 -2.2661395E+02  1.4458873E+02 -6.0973167E+02  6.7278495E+02  9.2774441E+01  0.0000000E+00  1.0000000E+00
 23  2  3  3   0   0  2.2661395E+02 -1.4458873E+02  2.7014938E+02  3.9231582E+02  9.3119446E+01  0.0000000E+00  1.0000000E+00
-11  1  4  4   0   0 -5.6501600E+00  9.6106300E+00 -1.0425549E+02  1.0484988E+02  1.6184390E-05  0.0000000E+00  1.0000000E+00
 11  1  4  4   0   0 -2.2096379E+02  1.3497810E+02 -5.0547617E+02  5.6793507E+02  1.3486992E-06  0.0000000E+00  1.0000000E+00
-13  1  5  5   0   0  2.3050389E+02 -1.4290929E+02  2.4086724E+02  3.6272873E+02  4.7683716E-07  0.0000000E+00  1.0000000E+00
 13  1  5  5   0   0 -3.8899371E+00 -1.6794455E+00  2.9282133E+01  2.9587083E+01  3.8146973E-06  0.0000000E+00  1.0000000E+00
</event>
<event>
9 100 1.0000000E+00 1.0000000E+03 7.8125000E-03 0.0000000E+00
 21 -1  0  0 501 502  0.0000000E+00  0.0000000E+00  1.6729185E+02  1.6729185E+02  0.0000000E+00  0.0000000E+00  1.0000000E+00
 21 -1  0  0 502 501  0.0000000E+00  0.0000000E+00 -1.4996072E+03  1.4996072E+03  0.0000000E+00  0.0000000E+00  1.0000000E+00
 39  2  1  2   0   0 -6.4233063E-12  1.4352963E-12 -1.3323153E+03  1.6668990E+03  1.0017426E+03  0.0000000E+00  1.0000000E+00
 23  2  3  3   0   0  4.1085775E+02 -9.1017519E+01 -2.4123237E+02  4.9357967E+02  9.1321152E+01  0.0000000E+00  1.0000000E+00
 23  2  3  3   0   0 -4.1085775E+02  9.1017519E+01 -1.0910830E+03  1.1733194E+03  9.5540574E+01  0.0000000E+00  1.0000000E+00
-11  1  4  4   0   0  1.3387374E+02 -2.1837382E+00 -1.1496182E+02  1.7647427E+02  2.0937441E-05  0.0000000E+00  1.0000000E+00
 11  1  4  4   0   0  2.7698401E+02 -8.8833781E+01 -1.2627054E+02  3.1710540E+02  1.1987500E-05  0.0000000E+00  1.0000000E+00
-13  1  5  5   0   0 -9.5814069E+01  2.4574935E+01 -1.5967513E+02  1.8783080E+02  1.0789593E-05  0.0000000E+00  1.0000000E+00
 13  1  5  5   0   0 -3.1504368E+02  6.6442584E+01 -9.3140785E+02  9.8548857E+02  7.6293945E-06  0.0000000E+00  1.0000000E+00
</event>
<event>
9 100 1.0000000E+00 1.0000000E+03 7.8125000E-03 0.0000000E+00
 21 -1  0  0 501 502  0.0000000E+00  0.0000000E+00  8.3296133E+02  8.3296133E+02  0.0000000E+00  0.0000000E+00  1.0000000E+00
 21 -1  0  0 502 501  0.0000000E+00  0.0000000E+00 -3.4497484E+02  3.4497484E+02  0.0000000E+00  0.0000000E+00  1.0000000E+00
 39  2  1  2   0   0  1.4779289E-12  1.8189894E-12  4.8798648E+02  1.1779362E+03  1.0721021E+03  0.0000000E+00  1.0000000E+00
 23  2  3  3   0   0  3.3179331E+02  4.0834182E+02  2.9395259E+02  6.0960430E+02  9.1539222E+01  0.0000000E+00  1.0000000E+00
 23  2  3  3   0   0 -3.3179331E+02 -4.0834182E+02  1.9403389E+02  5.6833187E+02  9.2315379E+01  0.0000000E+00  1.0000000E+00
-11  1  4  4   0   0  2.3856905E+02  3.2085529E+02  1.8052740E+02  4.3869517E+02  6.1805160E-06  0.0000000E+00  1.0000000E+00
 11  1  4  4   0   0  9.3224266E+01  8.7486524E+01  1.1342519E+02  1.7090913E+02  1.0619668E-05  0.0000000E+00  1.0000000E+00
-13  1  5  5   0   0 -2.7790736E+02 -3.4475134E+02  1.9760097E+02  4.8490425E+02  4.2857356E-06  0.0000000E+00  1.0000000E+00
 13  1  5  5   0   0 -5.3885949E+01 -6.3590480E+01 -3.5670848E+00  8.3427626E+01  1.9263277E-05  0.0000000E+00  1.0000000E+00
</event>
<event>
9 100 1.0000000E+00 1.0000000E+03 7.8125000E-03 0.0000000E+00
 21 -1  0  0 501 502  0.0000000E+00  0.0000000E+00  9.4748595E+02  9.4748595E+02  0.0000000E+00  0.0000000E+00  1.0000000E+00
 21 -1  0  0 502 501  0.0000000E+00  0.0000000E+00 -2.7117215E+02  2.7117215E+02  0.0000000E+00  0.0000000E+00  1.0000000E+00
 39  2  1  2   0   0  1.0231815E-12  2.9558578E-12  6.7631380E+02  1.2186581E+03  1.0137688E+03  0.0000000E+00  1.0000000E+00
 23  2  3  3   0   0  1.3494226E+02  3.7861187E+02  6.9278290E+02  8.0603474E+02  9.0484763E+01  0.0000000E+00  1.0000000E+00
 23  2  3  3   0   0 -1.3494226E+02 -3.7861187E+02 -1.6469093E+01  4.1262336E+02  9.1817461E+01  0.0000000E+00  1.0000000E+00
-11  1  4  4   0   0  1.0311283E+02  3.4583583E+02  6.4990260E+02  7.4337613E+02  3.0157830E-06  0.0000000E+00  1.0000000E+00
 11  1  4  4   0   0  3.1829427E+01  3.2776048E+01  4.2880293E+01  6.2658609E+01  1.5258789E-05  0.0000000E+00  1.0000000E+00
-13  1  5  5   0   0 -1.3025127E+02 -2.3562435E+02 -1.0287728E+01  2.6942544E+02  8.4158719E-06  0.0000000E+00  1.0000000E+00
 13  1  5  5   0   0 -4.6909837E+00 -1.4298752E+02 -6.1813650E+00  1.4319793E+02  1.1788467E-05  0.0000000E+00  1.0000000E+00
</event>
<event>
9 100 1.0000000E+00 1.0000000E+03 7.8125000E-03 0.0000000E+00
 21 -1  0  0 501 502  0.0000000E+00  0.0000000E+00  1.4732375E+03  1.4732375E+03  0.0000000E+00  0.0000000E+00  1.0000000E+00
 21 -1  0  0 502 501  0.0000000E+00  0.0000000E+00 -1.6980673E+02  1.6980673E+02  0.0000000E+00  0.0000000E+00  1.0000000E+00
 39  2  1  2   0   0  8.7396756E-13 -3.1263880E-13  1.3034308E+03  1.6430442E+03  1.0003312E+03  0.0000000E+00  1.0000000E+00
 23  2  3  3   0   0 -5.3599836E+01  1.8215585E+01  1.4531804E+03  1.4567188E+03  8.4211206E+01  0.0000000E+00  1.0000000E+00
 23  2  3  3   0   0  5.3599836E+01 -1.8215585E+01 -1.4974965E+02  1.8632546E+02  9.5328214E+01  0.0000000E+00  1.0000000E+00
-11  1  4  4   0   0 -6.9048465E+00 -4.8923105E+00  1.2491068E+01  1.5087690E+01  4.0370961E-05  0.0000000E+00  1.0000000E+00
 11  1  4  4   0   0 -4.6694990E+01  2.3107895E+01  1.4406894E+03  1.4416311E+03  6.0785049E-07  0.0000000E+00  1.0000000E+00
-13  1  5  5   0   0  2.1610887E+01 -5.6344646E+01 -9.2756855E+01  1.1065977E+02  2.3360155E-06  0.0000000E+00  1.0000000E+00
 13  1  5  5   0   0  3.1988949E+01  3.8129061E+01 -5.6992795E+01  7.5665691E+01  2.6973983E-06  0.0000000E+00  1.0000000E+00
</event>
<event>
9 100 1.0000000E+00 1.0000000E+03 7.8125000E-03 0.0000000E+00
 21 -1  0  0 501 502  0.0000000E+00  0.0000000E+00  7.6434469E+02  7.6434469E+02  0.0000000E+00  0.0000000E+00  1.0000000E+00
 21 -1  0  0 502 501  0.0000000E+00  0.0000000E+00 -2.7679337E+02  2.7679337E+02  0.0000000E+00  0.0000000E+00  1.0000000E+00
 39  2  1  2   0   0 -6.6080474E-13  2.0463631E-12  4.8755132E+02  1.0411381E+03  9.1992509E+02  0.0000000E+00  1.0000000E+00
 23  2  3  3   0   0  5.3711671E+01 -1.6315667E+02 -2.2693181E+02  3.0043672E+02  9.6224366E+01  0.0000000E+00  1.0000000E+00
 23  2  3  3   0   0 -5.3711671E+01  1.6315667E+02  7.1448313E+02  7.4070135E+02  9.2990852E+01  0.0000000E+00  1.0000000E+00
-11  1  4  4   0   0  3.2004879E+00 -1.5331351E+01  8.5546498E+00  1.7845881E+01  1.0789593E-05  0.0000000E+00  1.0000000E+00
 11  1  4  4   0   0  5.0511183E+01 -1.4782532E+02 -2.3548646E+02  2.8259083E+02  1.9515402E-06  0.0000000E+00  1.0000000E+00
-13  1  5  5   0   0 -5.3201406E+01  4.6643791E+01  1.7464746E+02  1.8843505E+02  1.3214499E-05  0.0000000E+00  1.0000000E+00
 13  1  5  5   0   0 -5.1026516E-01  1.1651288E+02  5.3983567E+02  5.5226629E+02  6.3259598E-06  0.0000000E+00  1.0000000E+00
</event>
<event>
9 100 1.0000000E+00 1.0000000E+03 7.8125000E-03 0.0000000E+00
 21 -1  0  0 501 502  0.0000000E+00  0.0000000E+00  5.6977855E+02  5.6977855E+02  0.0000000E+00  0.0000000E+00  1.0000000E+00
 21 -1  0  0 502 501  0.0000000E+00  0.0000000E+00 -4.3950834E+02  4.3950834E+02  0.0000000E+00  0.0000000E+00  1.0000000E+00
 39  2  1  2   0   0  4.4053650E-13  1.9326762E-12  1.3027021E+02  1.0092869E+03  1.0008445E+03  0.0000000E+00  1.0000000E+00
 23  2  3  3   0   0  1.0294915E+02  4.8240899E+02  2.4313041E+01  5.0225358E+02  9.1381463E+01  0.0000000E+00  1.0000000E+00
 23  2  3  3   0   0 -1.0294915E+02 -4.8240899E+02  1.0595717E+02  5.0703331E+02  5.0387408E+01  0.0000000E+00  1.0000000E+00
-11  1  4  4   0   0  8.5434620E+01  4.5870141E+02  4.0990671E+01  4.6838691E+02  2.0370492E-06  0.0000000E+00  1.0000000E+00
 11  1  4  4   0   0  1.7514533E+01  2.3707578E+01 -1.6677630E+01  3.3866672E+01  1.6184390E-05  0.0000000E+00  1.0000000E+00
-13  1  5  5   0   0 -6.3582026E+01 -2.9566027E+02  3.9740226E+01  3.0501960E+02  6.5380617E-06  0.0000000E+00  1.0000000E+00
 13  1  5  5   0   0 -3.9367127E+01 -1.8674872E+02  6.6216947E+01  2.0201371E+02  8.5032246E-06  0.0000000E+00  1.0000000E+00
</event>
<event>
9 100 1.0000000E+00 1.0000000E+03 7.8125000E-03 0.0000000E+00
 21 -1  0  0 501 502  0.0000000E+00  0.0000000E+00  2.1645463E+02  2.1645463E+02  0.0000000E+00  0.0000000E+00  1.0000000E+00
 21 -1  0  0 502 501  0.0000000E+00  0.0000000E+00 -1.0386543E+03  1.0386543E+03  0.0000000E+00  0.0000000E+00  1.0000000E+00
 39  2  1  2   0   0 -2.1600499E-12  2.6290081E-13 -8.2219967E+02  1.2551089E+03  9.4830698E+02  0.0000000E+00  1.0000000E+00
 23  2  3  3   0   0 -3.0349400E+02  3.4273885E+01  5.2895208E+01  3.2340862E+02  9.2260108E+01  0.0000000E+00  1.0000000E+00
 23  2  3  3   0   0  3.0349400E+02 -3.4273885E+01 -8.7509488E+02  9.3170031E+02  9.4821473E+01  0.0000000E+00  1.0000000E+00
-11  1  4  4   0   0 -2.5394839E+02  6.3172917E+01  4.4255042E+01  2.6540367E+02  4.2365445E-06  0.0000000E+00  1.0000000E+00
 11  1  4  4   0   0 -4.9545610E+01 -2.8899032E+01  8.6401659E+00  5.8004948E+01  1.3893893E-05  0.0000000E+00  1.0000000E+00
-13  1  5  5   0   0  3.0342543E+02 -2.2435863E+01 -8.0432506E+02  8.5994718E+02  2.6973983E-06  0.0000000E+00  1.0000000E+00
 13  1  5  5   0   0  6.8569497E-02 -1.1838023E+01 -7.0769821E+01  7.1753125E+01  0.0000000E+00  0.0000000E+00  1.0000000E+00
</event>
<event>
9 100 1.0000000E+00 1.0000000E+03 7.8125000E-03 0.0000000E+00
 21 -1  0  0 501 502  0.0000000E+00  0.0000000E+00  4.5568492E+02  4.5568492E+02  0.0000000E+00  0.0000000E+00  1.0000000E+00
 21 -1  0  0 502 501  0.0000000E+00  0.0000000E+00 -5.6467317E+02  5.6467317E+02  0.0000000E+00  0.0000000E+00  1.0000000E+00
 39  2  1  2   0   0 -1.7763568E-14 -3.4106051E-13 -1.0898824E+02  1.0203581E+03  1.0145207E+03  0.0000000E+00  1.0000000E+00
 23  2  3  3   0   0 -1.0105326E+01 -1.5140037E+02  4.2319005E+02  4.5946611E+02  9.4842467E+01  0.0000000E+00  1.0000000E+00
 23  2  3  3   0   0  1.0105326E+01  1.5140037E+02 -5.3217830E+02  5.6089198E+02  9.1443347E+01  0.0000000E+00  1.0000000E+00
-11  1  4  4   0   0  7.2686345E+00 -1.9440739E+01  6.0684534E+00  2.1624096E+01  9.3440618E-06  0.0000000E+00  1.0000000E+00
 11  1  4  4   0   0 -1.7373961E+01 -1.3195963E+02  4.1712160E+02  4.3784201E+02  1.5405235E-06  0.0000000E+00  1.0000000E+00
-13  1  5  5   0   0  4.6393291E+01  6.4540626E+01 -3.0012584E+02  3.1047279E+02  3.8146973E-06  0.0000000E+00  1.0000000E+00
 13  1  5  5   0   0 -3.6287964E+01  8.6859748E+01 -2.3205245E+02  2.5041920E+02  6.6072495E-06  0.0000000E+00  1.0000000E+00
</event>
<event>
9 100 1.0000000E+00 1.0000000E+03 7.8125000E-03 0.0000000E+00
 21 -1  0  0 501 502  0.0000000E+00  0.0000000E+00  3.4520564E+02  3.4520564E+02  0.0000000E+00  0.0000000E+00  1.0000000E+00
 21 -1  0  0 502 501  0.0000000E+00  0.0000000E+00 -7.5095194E+02  7.5095194E+02  0.0000000E+00  0.0000000E+00  1.0000000E+00
 39  2  1  2   0   0  4.5474735E-13  6.8212103E-13 -4.0574630E+02  1.0961576E+03  1.0182983E+03  0.0000000E+00  1.0000000E+00
 23  2  3  3   0   0 -2.6627036E+02 -4.0163489E+02 -5.1555126E+01  4.9303343E+02  9.0628583E+01  0.0000000E+00  1.0000000E+00
 23  2  3  3   0   0  2.6627036E+02  4.0163489E+02 -3.5419117E+02  6.0312416E+02  7.8082479E+01  0.0000000E+00  1.0000000E+00
-11  1  4  4   0   0 -2.4316296E+02 -3.5481892E+02 -1.7107867E+01  4.3048504E+02  1.7841613E-06  0.0000000E+00  1.0000000E+00
 11  1  4  4   0   0 -2.3107400E+01 -4.6815972E+01 -3.4447260E+01  6.2548388E+01  6.4328850E-06  0.0000000E+00  1.0000000E+00
-13  1  5  5   0   0  8.8122717E+01  8.3282289E+01 -6.4851533E+01  1.3750372E+02  8.5299224E-06  0.0000000E+00  1.0000000E+00
 13  1  5  5   0   0  1.7814765E+02  3.1835260E+02 -2.8933964E+02  4.6562043E+02  3.1629799E-06  0.0000000E+00  1.0000000E+00
</event>
<event>
9 100 1.0000000E+00 1.0000000E+03 7.8125000E-03 0.0000000E+00
 21 -1  0  0 501 502  0.0000000E+00  0.0000000E+00  2.4178208E+02  2.4178208E+02  0.0000000E+00  0.0000000E+00  1.0000000E+00
 21 -1  0  0 502 501  0.0000000E+00  0.0000000E+00 -9.9407890E+02  9.9407890E+02  0.0000000E+00  0.0000000E+00  1.0000000E+00
 39  2  1  2   0   0  3.5811354E-12 -9.6633812E-13 -7.5229682E+02  1.2358610E+03  9.8051102E+02  0.0000000E+00  1.0000000E+00
 23  2  3  3   0   0 -4.6228935E+02  1.3207969E+02 -3.7227606E+02  6.1620258E+02  9.9798154E+01  0.0000000E+00  1.0000000E+00
 23  2  3  3   0   0  4.6228935E+02 -1.3207969E+02 -3.8002076E+02  6.1965840E+02  9.1674768E+01  0.0000000E+00  1.0000000E+00
-11  1  4  4   0   0 -4.6122552E+02  1.3423979E+02 -3.5136324E+02  5.9515160E+02  2.3841858E-07  0.0000000E+00  1.0000000E+00
 11  1  4  4   0   0 -1.0638272E+00 -2.1600981E+00 -2.0912821E+01  2.1050981E+01  2.1579186E-05  0.0000000E+00  1.0000000E+00
-13  1  5  5   0   0  2.2504895E+02 -9.9302973E+01 -2.3189571E+02  3.3805877E+02  6.8770433E-06  0.0000000E+00  1.0000000E+00
 13  1  5  5   0   0  2.3724040E+02 -3.2776715E+01 -1.4812505E+02  2.8159963E+02  9.3440618E-06  0.0000000E+00  1.0000000E+00
</event>
<event>
9 100 1.0000000E+00 1.0000000E+03 7.8125000E-03 0.0000000E+00
 21 -1  0  0 501 502  0.0000000E+00  0.0000000E+00  4.7022686E+02  4.7022686E+02  0.0000000E+00  0.0000000E+00  1.0000000E+00
 21 -1  0  0 502 501  0.0000000E+00  0.0000000E+00 -5.3186153E+02  5.3186153E+02  0.0000000E+00  0.0000000E+00  1.0000000E+00
 39  2  1  2   0   0  3.9790393E-13  7.3896445E-13 -6.1634671E+01  1.0020884E+03  1.0001911E+03  0.0000000E+00  1.0000000E+00
 23  2  3  3   0   0  1.7112167E+02  3.6664832E+02  2.4630251E+02  4.8258065E+02  9.2225510E+01  0.0000000E+00  1.0000000E+00
 23  2  3  3   0   0 -1.7112167E+02 -3.6664832E+02 -3.0793718E+02  5.1950773E+02  1.0653338E+02  0.0000000E+00  1.0000000E+00
-11  1  4  4   0   0 -6.8394636E+00  2.8482955E-01  5.1081091E-01  6.8644241E+00  3.8146973E-06  0.0000000E+00  1.0000000E+00
 11  1  4  4   0   0  1.7796113E+02  3.6636349E+02  2.4579170E+02  4.7571623E+02  1.4747822E-06  0.0000000E+00  1.0000000E+00
-13  1  5  5   0   0 -1.7807850E+02 -3.0270800E+02 -2.8097328E+02  4.4976668E+02  1.4305115E-06  0.0000000E+00  1.0000000E+00
 13  1  5  5   0   0  6.9568320E+00 -6.3940321E+01 -2.6963907E+01  6.9741053E+01  7.6293945E-06  0.0000000E+00  1.0000000E+00
</event>
<event>
9 100 1.0000000E+00 1.0000000E+03 7.8125000E-03 0.0000000E+00
 21 -1  0  0 501 502  0.0000000E+00  0.0000000E+00  2.4468610E+03  2.4468610E+03  0.0000000E+00  0.0000000E+00  1.0000000E+00
 21 -1  0  0 502 501  0.0000000E+00  0.0000000E+00 -1.0173023E+02  1.0173023E+02  0.0000000E+00  0.0000000E+00  1.0000000E+00
 39  2  1  2   0   0 -5.9117156E-12  2.8990144E-12  2.3451308E+03  2.5485913E+03  9.9783716E+02  0.0000000E+00  1.0000000E+00
 23  2  3  3   0   0 -3.7752649E+02  1.8304088E+02  5.1605955E+02  6.7115110E+02  8.9978460E+01  0.0000000E+00  1.0000000E+00
 23  2  3  3   0   0  3.7752649E+02 -1.8304088E+02  1.8290713E+03  1.8774402E+03  5.7006518E+01  0.0000000E+00  1.0000000E+00
-11  1  4  4   0   0 -2.2305862E+02  6.1363546E+01  2.5471562E+02  3.4409400E+02  1.7481139E-05  0.0000000E+00  1.0000000E+00
 11  1  4  4   0   0 -1.5446787E+02  1.2167734E+02  2.6134393E+02  3.2705710E+02  1.7892516E-05  0.0000000E+00  1.0000000E+00
-13  1  5  5   0   0  1.2269374E+02 -3.1681338E+01  5.8081968E+02  5.9448209E+02  0.0000000E+00  0.0000000E+00  1.0000000E+00
 13  1  5  5   0   0  2.5483275E+02 -1.5135954E+02  1.2482516E+03  1.2829581E+03  0.0000000E+00  0.0000000E+00  1.0000000E+00
</event>
<event>
9 100 1.0000000E+00 1.0000000E+03 7.8125000E-03 0.0000000E+00
 21 -1  0  0 501 502  0.0000000E+00  0.0000000E+00  4.1325573E+02  4.1325573E+02  0.0000000E+00  0.0000000E+00  1.0000000E+00
 21 -1  0  0 502 501  0.0000000E+00  0.0000000E+00 -6.0496814E+02  6.0496814E+02  0.0000000E+00  0.0000000E+00  1.0000000E+00
 39  2  1  2   0   0  2.9842795E-13 -1.0800250E-12 -1.9171241E+02  1.0182239E+03  1.0000131E+03  0.0000000E+00  1.0000000E+00
 23  2  3  3   0   0  9.5962114E+01 -3.7652105E+02  2.1010564E+02  4.5184853E+02  9.5109854E+01  0.0000000E+00  1.0000000E+00
 23  2  3  3   0   0 -9.5962114E+01  3.7652105E+02 -4.0181805E+02  5.6637535E+02  9.1358959E+01  0.0000000E+00  1.0000000E+00
-11  1  4  4   0   0  7.8627319E+01 -1.8081870E+02  1.4544139E+02  2.4501195E+02  8.4226235E-06  0.0000000E+00  1.0000000E+00
 11  1  4  4   0   0  1.7334794E+01 -1.9570235E+02  6.4664251E+01  2.0683658E+02  1.0092740E-05  0.0000000E+00  1.0000000E+00
-13  1  5  5   0   0 -8.3746995E-01 -4.0221985E+00 -1.4707660E+01  1.5270714E+01  2.6428998E-05  0.0000000E+00  1.0000000E+00
 13  1  5  5   0   0 -9.5124644E+01  3.8054325E+02 -3.8711039E+02  5.5110463E+02  3.2733751E-06  0.0000000E+00  1.0000000E+00
</event>
<event>
9 100 1.0000000E+00 1.0000000E+03 7.8125000E-03 0.0000000E+00
 21 -1  0  0 501 502  0.0000000E+00  0.0000000E+00  1.2608271E+03  1.2608271E+03  0.0000000E+00  0.0000000E+00  1.0000000E+00
 21 -1  0  0 502 501  0.0000000E+00  0.0000000E+00 -1.9721468E+02  1.9721468E+02  0.0000000E+00  0.0000000E+00  1.0000000E+00
 39  2  1  2   0   0  2.8421709E-12 -2.1600499E-12  1.0636124E+03  1.4580418E+03  9.9730361E+02  0.0000000E+00  1.0000000E+00
 23  2  3  3   0   0 -3.8364322E+02  2.8440895E+02  3.6555462E+02  6.0830563E+02  9.1296190E+01  0.0000000E+00  1.0000000E+00
 23  2  3  3   0   0  3.8364322E+02 -2.8440895E+02  6.9805783E+02  8.4973618E+02  8.1830794E+01  0.0000000E+00  1.0000000E+00
-11  1  4  4   0   0 -3.8129032E+02  2.6794845E+02  3.6450638E+02  5.9164481E+02  2.2274121E-06  0.0000000E+00  1.0000000E+00
 11  1  4  4   0   0 -2.3528954E+00  1.6460501E+01  1.0482403E+00  1.6660823E+01  1.5258789E-05  0.0000000E+00  1.0000000E+00
-13  1  5  5   0   0  4.9489150E+01 -7.5896430E+01  1.2593440E+02  1.5514161E+02  1.3214499E-05  0.0000000E+00  1.0000000E+00
 13  1  5  5   0   0  3.3415407E+02 -2.0851252E+02  5.7212342E+02  6.9459457E+02  3.0157830E-06  0.0000000E+00  1.0000000E+00
</event>
<event>
9 100 1.0000000E+00 1.0000000E+03 7.8125000E-03 0.0000000E+00
 21 -1  0  0 501 502  0.0000000E+00  0.0000000E+00  2.2608956E+02  2.2608956E+02  0.0000000E+00  0.0000000E+00  1.0000000E+00
 21 -1  0  0 502 501  0.0000000E+00  0.0000000E+00 -1.1010231E+03  1.1010231E+03  0.0000000E+00  0.0000000E+00  1.0000000E+00
 39  2  1  2   0   0  4.2064130E-12 -2.2453150E-12 -8.7493359E+02  1.3271127E+03  9.9785737E+02  0.0000000E+00  1.0000000E+00
 23  2  3  3   0   0 -3.4043046E+02  1.8607516E+02 -3.7596123E+01  3.9906273E+02  8.5561273E+01  0.0000000E+00  1.0000000E+00
 23  2  3  3   0   0  3.4043046E+02 -1.8607516E+02 -8.3733746E+02  9.2804997E+02  9.8111475E+01  0.0000000E+00  1.0000000E+00
-11  1  4  4   0   0 -3.0607613E+02  1.8569327E+02 -1.5746433E+01  3.5834695E+02  3.7394493E-06  0.0000000E+00  1.0000000E+00
 11  1  4  4   0   0 -3.4354329E+01  3.8189321E-01 -2.1849690E+01  4.0715780E+01  1.5198133E-05  0.0000000E+00  1.0000000E+00
-13  1  5  5   0   0  2.1331099E+02 -1.4187432E+02 -4.4758727E+02  5.1571723E+02  9.3440618E-06  0.0000000E+00  1.0000000E+00
 13  1  5  5   0   0  1.2711946E+02 -4.4200838E+01 -3.8975019E+02  4.1233274E+02  1.2063132E-05  0.0000000E+00  1.0000000E+00
</event>
<event>
9 100 1.0000000E+00 1.0000000E+03 7.8125000E-03 0.0000000E+00
 21 -1  0  0 501 502  0.0000000E+00  0.0000000E+00  3.4364328E+02  3.4364328E+02  0.0000000E+00  0.0000000E+00  1.0000000E+00
 21 -1  0  0 502 501  0.0000000E+00  0.0000000E+00 -7.3174266E+02  7.3174266E+02  0.0000000E+00  0.0000000E+00  1.0000000E+00
 39  2  1  2   0   0  1.2505552E-12  1.0231815E-12 -3.8809938E+02  1.0753859E+03  1.0029127E+03  0.0000000E+00  1.0000000E+00
 23  2  3  3   0   0 -2.7890578E+02 -2.2600913E+02  1.6691745E+02  4.0830799E+02  9.9927038E+01  0.0000000E+00  1.0000000E+00
 23  2  3  3   0   0  2.7890578E+02  2.2600913E+02 -5.5501683E+02  6.6707796E+02  8.9892989E+01  0.0000000E+00  1.0000000E+00
-11  1  4  4   0   0 -3.3481244E+00  1.3498725E+00  2.2807452E+01  2.3091383E+01  8.7405695E-06  0.0000000E+00  1.0000000E+00
 11  1  4  4   0   0 -2.7555766E+02 -2.2735901E+02  1.4411000E+02  3.8521660E+02  9.5367432E-07  0.0000000E+00  1.0000000E+00
-13  1  5  5   0   0  2.2055400E+02  2.0716787E+02 -4.0949364E+02  5.0916366E+02  2.6973983E-06  0.0000000E+00  1.0000000E+00
 13  1  5  5   0   0  5.8351777E+01  1.8841259E+01 -1.4552320E+02  1.5791429E+02  5.3947966E-06  0.0000000E+00  1.0000000E+00
</event>
<event>
9 100 1.0000000E+00 1.0000000E+03 7.8125000E-03 0.0000000E+00
 21 -1  0  0 501 502  0.0000000E+00  0.0000000E+00  8.9138831E+02  8.9138831E+02  0.0000000E+00  0.0000000E+00  1.0000000E+00
 21 -1  0  0 502 501  0.0000000E+00  0.0000000E+00 -2.4639896E+02  2.4639896E+02  0.0000000E+00  0.0000000E+00  1.0000000E+00
 39  2  1  2   0   0 -9.6633812E-13 -1.2079227E-13  6.4498935E+02  1.1377873E+03  9.3730924E+02  0.0000000E+00  1.0000000E+00
 23  2  3  3   0   0  1.4233657E+02  1.6641369E+01 -2.0774112E+02  2.6801009E+02  9.0202016E+01  0.0000000E+00  1.0000000E+00
 23  2  3  3   0   0 -1.4233657E+02 -1.6641369E+01  8.5273047E+02  8.6977717E+02  9.3949131E+01  0.0000000E+00  1.0000000E+00
-11  1  4  4   0   0  8.6341309E+01  4.4551071E+01 -8.0326847E+01  1.2606356E+02  5.0463701E-06  0.0000000E+00  1.0000000E+00
 11  1  4  4   0   0  5.5995257E+01 -2.7909702E+01 -1.2741427E+02  1.4194653E+02  3.8146973E-06  0.0000000E+00  1.0000000E+00
-13  1  5  5   0   0 -1.4724765E+02  5.1698005E+00  7.7565016E+02  7.8951996E+02  4.2649612E-06  0.0000000E+00  1.0000000E+00
 13  1  5  5   0   0  4.9110787E+00 -2.1811169E+01  7.7080316E+01  8.0257217E+01  2.6428998E-05  0.0000000E+00  1.0000000E+00
</event>
<event>
9 100 1.0000000E+00 1.0000000E+03 7.8125000E-03 0.0000000E+00
 21 -1  0  0 501 502  0.0000000E+00  0.0000000E+00  2.2923470E+02  2.2923470E+02  0.0000000E+00  0.0000000E+00  1.0000000E+00
 21 -1  0  0 502 501  0.0000000E+00  0.0000000E+00 -1.0831296E+03  1.0831296E+03  0.0000000E+00  0.0000000E+00  1.0000000E+00
 39  2  1  2   0   0  6.8212103E-13  4.9737992E-13 -8.5389492E+02  1.3123643E+03  9.9657593E+02  0.0000000E+00  1.0000000E+00
 23  2  3  3   0   0 -1.0586625E+02 -7.2505504E+01 -1.0502460E+03  1.0623395E+03  9.5309404E+01  0.0000000E+00  1.0000000E+00
 23  2  3  3   0   0  1.0586625E+02  7.2505504E+01  1.9635106E+02  2.5002483E+02  8.6567697E+01  0.0000000E+00  1.0000000E+00
-11  1  4  4   0   0 -1.0002420E+02 -5.2401579E+01 -1.0156086E+03  1.0218667E+03  2.0230487E-06  0.0000000E+00  1.0000000E+00
 11  1  4  4   0   0 -5.8420458E+00 -2.0103925E+01 -3.4637345E+01  4.0472744E+01  4.8252528E-05  0.0000000E+00  1.0000000E+00
-13  1  5  5   0   0 -3.2771543E+00  3.2258805E+00  6.6969585E+01  6.7127277E+01  1.0956884E-05  0.0000000E+00  1.0000000E+00
 13  1  5  5   0   0  1.0914340E+02  6.9279624E+01  1.2938147E+02  1.8289755E+02  5.4784419E-06  0.0000000E+00  1.0000000E+00
</event>
<event>
9 100 1.0000000E+00 1.0000000E+03 7.8125000E-03 0.0000000E+00
 21 -1  0  0 501 502  0.0000000E+00  0.0000000E+00  1.6627614E+03  1.6627614E+03  0.0000000E+00  0.0000000E+00  1.0000000E+00
 21 -1  0  0 502 501  0.0000000E+00  0.0000000E+00 -1.4847478E+02  1.4847478E+02  0.0000000E+00  0.0000000E+00  1.0000000E+00
 39  2  1  2   0   0  8.5265128E-13 -3.1263880E-13  1.5142866E+03  1.8112361E+03  9.9373663E+02  0.0000000E+00  1.0000000E+00
 23  2  3  3   0   0  2.5068308E+02 -9.6497023E+01  1.2770509E+01  2.8326417E+02  8.9004630E+01  0.0000000E+00  1.0000000E+00
 23  2  3  3   0   0 -2.5068308E+02  9.6497023E+01  1.5015161E+03  1.5279720E+03  8.9409855E+01  0.0000000E+00  1.0000000E+00
-11  1  4  4   0   0  7.7545872E+00  5.7418804E+00  1.7131679E+01  1.9662076E+01  9.6170575E-06  0.0000000E+00  1.0000000E+00
 11  1  4  4   0   0  2.4292849E+02 -1.0223890E+02 -4.3611704E+00  2.6360210E+02  2.3602235E-06  0.0000000E+00  1.0000000E+00
-13  1  5  5   0   0 -3.8683761E+01  2.9586320E+01  4.8455214E+02  4.8699339E+02  1.5258789E-05  0.0000000E+00  1.0000000E+00
 13  1  5  5   0   0 -2.1199932E+02  6.6910702E+01  1.0169639E+03  1.0409786E+03  5.3947966E-06  0.0000000E+00  1.0000000E+00
</event>
<event>
9 100 1.0000000E+00 1.0000000E+03 7.8125000E-03 0.0000000E+00
 21 -1  0  0 501 502  0.0000000E+00  0.0000000E+00  2.2599196E+03  2.2599196E+03  0.0000000E+00  0.0000000E+00  1.0000000E+00
 21 -1  0  0 502 501  0.0000000E+00  0.0000000E+00 -1.0872991E+02  1.0872991E+02  0.0000000E+00  0.0000000E+00  1.0000000E+00
 39  2  1  2   0   0 -9.0949470E-12  2.7995384E-12  2.1511897E+03  2.3686495E+03  9.9140480E+02  0.0000000E+00  1.0000000E+00
 23  2  3  3   0   0  2.3129632E+02 -7.0834029E+01  2.0846243E+03  2.1006781E+03  9.3138573E+01  0.0000000E+00  1.0000000E+00
 23  2  3  3   0   0 -2.3129632E+02  7.0834029E+01  6.6565451E+01  2.6797142E+02  9.4139668E+01  0.0000000E+00  1.0000000E+00
-11  1  4  4   0   0 -3.4457215E+00  1.0217810E+01  9.8256499E+01  9.8846427E+01  4.8252528E-05  0.0000000E+00  1.0000000E+00
 11  1  4  4   0   0  2.3474204E+02 -8.1051839E+01  1.9863678E+03  2.0018317E+03  5.7220459E-06  0.0000000E+00  1.0000000E+00
-13  1  5  5   0   0 -2.0705706E+02  4.6771081E+01  2.4344630E+01  2.1366521E+02  7.5092391E-06  0.0000000E+00  1.0000000E+00
 13  1  5  5   0   0 -2.4239258E+01  2.4062947E+01  4.2220821E+01  5.4306213E+01  1.8507794E-05  0.0000000E+00  1.0000000E+00
</event>
<event>
9 100 1.0000000E+00 1.0000000E+03 7.8125000E-03 0.0000000E+00
 21 -1  0  0 501 502  0.0000000E+00  0.0000000E+00  6.1509667E+02  6.1509667E+02  0.0000000E+00  0.0000000E+00  1.0000000E+00
 21 -1  0  0 502 501  0.0000000E+00  0.0000000E+00 -4.1502334E+02  4.1502334E+02  0.0000000E+00  0.0000000E+00  1.0000000E+00
 39  2  1  2   0   0 -1.1368684E-13  7.1054274E-15  2.0007333E+02  1.0301200E+03  1.0105038E+03  0.0000000E+00  1.0000000E+00
 23  2  3  3   0   0  3.3328705E+02 -3.7992059E+01 -2.7370389E+02  4.4271261E+02  9.2503942E+01  0.0000000E+00  1.0000000E+00
 23  2  3  3   0   0 -3.3328705E+02  3.7992059E+01  4.7377722E+02  5.8740740E+02  8.9771566E+01  0.0000000E+00  1.0000000E+00
-11  1  4  4   0   0  2.2534705E+02 -3.4935129E+01 -2.3641592E+02  3.2847259E+02  5.8009744E-06  0.0000000E+00  1.0000000E+00
 11  1  4  4   0   0  1.0794000E+02 -3.0569306E+00 -3.7287970E+01  1.1424002E+02  1.2063132E-05  0.0000000E+00  1.0000000E+00
-13  1  5  5   0   0 -2.2583486E+02  1.8825952E+01  3.8486572E+02  4.4662896E+02  6.3974418E-06  0.0000000E+00  1.0000000E+00
 13  1  5  5   0   0 -1.0745220E+02  1.9166107E+01  8.8911501E+01  1.4077844E+02  9.3440618E-06  0.0000000E+00  1.0000000E+00
</event>
<event>
9 100 1.0000000E+00 1.0000000E+03 7.8125000E-03 0.0000000E+00
 21 -1  0  0 501 502  0.0000000E+00  0.0000000E+00  2.4201764E+03  2.4201764E+03  0.0000000E+00  0.0000000E+00  1.0000000E+00
 21 -1  0  0 502 501  0.0000000E+00  0.0000000E+00 -1.0181536E+02  1.0181536E+02  0.0000000E+00  0.0000000E+00  1.0000000E+00
 39  2  1  2   0   0  9.8054898E-13  1.9895197E-12  2.3183611E+03  2.5219918E+03  9.9279635E+02  0.0000000E+00  1.0000000E+00
 23  2  3  3   0   0 -1.0736954E+02 -2.1514818E+02  2.2385275E+03  2.2533524E+03  9.3673191E+01  0.0000000E+00  1.0000000E+00
 23  2  3  3   0   0  1.0736954E+02  2.1514818E+02  7.9833549E+01  2.6863939E+02  8.9312755E+01  0.0000000E+00  1.0000000E+00
-11  1  4  4   0   0 -1.2597307E+01 -1.1900712E+02  1.2351431E+03  1.2409270E+03  3.2368780E-05  0.0000000E+00  1.0000000E+00
 11  1  4  4   0   0 -9.4772232E+01 -9.6141059E+01  1.0033845E+03  1.0124254E+03  2.6428998E-05  0.0000000E+00  1.0000000E+00
-13  1  5  5   0   0  1.0082461E+02  2.0874547E+02  9.5317829E+01  2.5065068E+02  3.9716557E-06  0.0000000E+00  1.0000000E+00
 13  1  5  5   0   0  6.5449236E+00  6.4027084E+00 -1.5484280E+01  1.7988708E+01  1.9121111E-05  0.0000000E+00  1.0000000E+00
</event>
<event>
9 100 1.0000000E+00 1.0000000E+03 7.8125000E-03 0.0000000E+00
 21 -1  0  0 501 502  0.0000000E+00  0.0000000E+00  1.1157534E+03  1.1157534E+03  0.0000000E+00  0.0000000E+00  1.0000000E+00
 21 -1  0  0 502 501  0.0000000E+00  0.0000000E+00 -2.0701959E+02  2.0701959E+02  0.0000000E+00  0.0000000E+00  1.0000000E+00
 39  2  1  2   0   0 -2.9274361E-12  6.4659389E-13  9.0873378E+02  1.3227730E+03  9.6121342E+02  0.0000000E+00  1.0000000E+00
 23  2  3  3   0   0  2.1761223E+02 -4.9207911E+01 -1.1419279E+02  2.7209699E+02  1.0592582E+02  0.0000000E+00  1.0000000E+00
 23  2  3  3   0   0 -2.1761223E+02  4.9207911E+01  1.0229266E+03  1.0506760E+03  8.8117850E+01  0.0000000E+00  1.0000000E+00
-11  1  4  4   0   0  2.1689192E+02 -3.5332664E+01 -1.2647924E+02  2.5354980E+02  8.7600580E-07  0.0000000E+00  1.0000000E+00
 11  1  4  4   0   0  7.2030288E-01 -1.3875247E+01  1.2286450E+01  1.8547188E+01  3.3036247E-06  0.0000000E+00  1.0000000E+00
-13  1  5  5   0   0 -1.9997528E+02  2.7675513E+01  7.6273142E+02  7.8899637E+02  3.8146973E-06  0.0000000E+00  1.0000000E+00
 13  1  5  5   0   0 -1.7636945E+01  2.1532397E+01  2.6019515E+02  2.6167962E+02  2.1579186E-05  0.0000000E+00  1.0000000E+00
</event>
<event>
9 100 1.0000000E+00 1.0000000E+03 7.8125000E-03 0.0000000E+00
 21 -1  0  0 501 502  0.0000000E+00  0.0000000E+00  1.4022995E+03  1.4022995E+03  0.0000000E+00  0.0000000E+00  1.0000000E+00
 21 -1  0  0 502 501  0.0000000E+00  0.0000000E+00 -1.7776050E+02  1.7776050E+02  0.0000000E+00  0.0000000E+00  1.0000000E+00
 39  2  1  2   0   0 -1.4210855E-12 -4.5474735E-13  1.2245390E+03  1.5800600E+03  9.9854586E+02  0.0000000E+00  1.0000000E+00
 23  2  3  3   0   0  4.6352248E+02  1.5195055E+02  5.2614745E+02  7.2318693E+02  9.0698065E+01  0.0000000E+00  1.0000000E+00
 23  2  3  3   0   0 -4.6352248E+02 -1.5195055E+02  6.9839159E+02  8.5687310E+02  9.2404711E+01  0.0000000E+00  1.0000000E+00
-11  1  4  4   0   0  3.1930495E+02  7.0235384E+01  3.0764588E+02  4.4892610E+02  4.6720309E-06  0.0000000E+00  1.0000000E+00
 11  1  4  4   0   0  1.4421753E+02  8.1715168E+01  2.1850157E+02  2.7426083E+02  3.8146973E-06  0.0000000E+00  1.0000000E+00
-13  1  5  5   0   0 -1.7577281E+02 -6.4738032E+01  1.9407249E+02  2.6972435E+02  2.2243316E-05  0.0000000E+00  1.0000000E+00
 13  1  5  5   0   0 -2.8774967E+02 -8.7212520E+01  5.0431910E+02  5.8714875E+02  8.5299224E-06  0.0000000E+00  1.0000000E+00
</event>
<event>
9 100 1.0000000E+00 1.0000000E+03 7.8125000E-03 0.0000000E+00
 21 -1  0  0 501 502  0.0000000E+00  0.0000000E+00  1.6091740E+02  1.6091740E+02  0.0000000E+00  0.0000000E+00  1.0000000E+00
 21 -1  0  0 502 501  0.0000000E+00  0.0000000E+00 -1.4956417E+03  1.4956417E+03  0.0000000E+00  0.0000000E+00  1.0000000E+00
 39  2  1  2   0   0  1.0018653E-12  5.7980287E-12 -1.3347243E+03  1.6565591E+03  9.8117230E+02  0.0000000E+00  1.0000000E+00
 23  2  3  3   0   0 -3.0894595E+01 -1.8074704E+02  8.5733483E+01  2.2154529E+02  9.0045084E+01  0.0000000E+00  1.0000000E+00
 23  2  3  3   0   0  3.0894595E+01  1.8074704E+02 -1.4204578E+03  1.4350138E+03  8.9108679E+01  0.0000000E+00  1.0000000E+00
-11  1  4  4   0   0 -1.7576670E+01 -6.4046177E+01  7.9960946E+01  1.0394520E+02  1.4960647E-06  0.0000000E+00  1.0000000E+00
 11  1  4  4   0   0 -1.3317925E+01 -1.1670086E+02  5.7725366E+00  1.1760009E+02  2.3360155E-06  0.0000000E+00  1.0000000E+00
-13  1  5  5   0   0 -2.5856458E+01  6.8901890E+01 -3.8336942E+02  3.9036923E+02  1.5258789E-05  0.0000000E+00  1.0000000E+00
 13  1  5  5   0   0  5.6751054E+01  1.1184515E+02 -1.0370883E+03  1.0446445E+03  1.3214499E-05  0.0000000E+00  1.0000000E+00
</event>
<event>
9 100 1.0000000E+00 1.0000000E+03 7.8125000E-03 0.0000000E+00
 21 -1  0  0 501 502  0.0000000E+00  0.0000000E+00  2.2801678E+02  2.2801678E+02  0.0000000E+00  0.0000000E+00  1.0000000E+00
 21 -1  0  0 502 501  0.0000000E+00  0.0000000E+00 -1.0979181E+03  1.0979181E+03  0.0000000E+00  0.0000000E+00  1.0000000E+00
 39  2  1  2   0   0  1.3073986E-12 -5.3432814E-12 -8.6990132E+02  1.3259349E+03  1.0006873E+03  0.0000000E+00  1.0000000E+00
 23  2  3  3   0   0  9.2029162E+01 -3.7601246E+02 -8.3742037E+02  9.2710845E+02  9.1664920E+01  0.0000000E+00  1.0000000E+00
 23  2  3  3   0   0 -9.2029162E+01  3.7601246E+02 -3.2480949E+01  3.9882643E+02  9.0292719E+01  0.0000000E+00  1.0000000E+00
-11  1  4  4   0   0  3.5769737E+01 -3.0187873E+02 -6.6458730E+02  7.3081223E+02  1.9073486E-06  0.0000000E+00  1.0000000E+00
 11  1  4  4   0   0  5.6259425E+01 -7.4133730E+01 -1.7283307E+02  1.9629621E+02  1.3214499E-05  0.0000000E+00  1.0000000E+00
-13  1  5  5   0   0 -9.8784672E+01  3.7709827E+02 -2.8390790E+01  3.9085490E+02  1.4648683E-06  0.0000000E+00  1.0000000E+00
 13  1  5  5   0   0  6.7555093E+00 -1.0858124E+00 -4.0901587E+00  7.9715301E+00  1.3015122E-05  0.0000000E+00  1.0000000E+00
</event>
<event>
9 100 1.0000000E+00 1.0000000E+03 7.8125000E-03 0.0000000E+00
 21 -1  0  0 501 502  0.0000000E+00  0.0000000E+00  8.1114286E+02  8.1114286E+02  0.0000000E+00  0.0000000E+00  1.0000000E+00
 21 -1  0  0 502 501  0.0000000E+00  0.0000000E+00 -3.0221172E+02  3.0221172E+02  0.0000000E+00  0.0000000E+00  1.0000000E+00
 39  2  1  2   0   0 -6.8212103E-13 -2.4868996E-14  5.0893114E+02  1.1133546E+03  9.9022600E+02  0.0000000E+00  1.0000000E+00
 23  2  3  3   0   0  2.7223158E+02  1.1392369E+01  7.0813283E+02  7.6412692E+02  9.0542949E+01  0.0000000E+00  1.0000000E+00
 23  2  3  3   0   0 -2.7223158E+02 -1.1392369E+01 -1.9920169E+02  3.4922766E+02  8.9659528E+01  0.0000000E+00  1.0000000E+00
-11  1  4  4   0   0  5.3030815E+01  3.4563109E+01  2.1165405E+02  2.2091698E+02  5.3947966E-06  0.0000000E+00  1.0000000E+00
 11  1  4  4   0   0  2.1920076E+02 -2.3170740E+01  4.9647878E+02  5.4320994E+02  2.6973983E-06  0.0000000E+00  1.0000000E+00
-13  1  5  5   0   0 -5.1553333E+01  7.7781474E+00 -1.2426298E+00  5.2151605E+01  7.6293945E-06  0.0000000E+00  1.0000000E+00
 13  1  5  5   0   0 -2.2067824E+02 -1.9170516E+01 -1.9795906E+02  2.9707606E+02  2.0066836E-06  0.0000000E+00  1.0000000E+00
</event>
<event>
9 100 1.0000000E+00 1.0000000E+03 7.8125000E-03 0.0000000E+00
 21 -1  0  0 501 502  0.0000000E+00  0.0000000E+00  5.5607633E+02  5.5607633E+02  0.0000000E+00  0.0000000E+00  1.0000000E+00
 21 -1  0  0 502 501  0.0000000E+00  0.0000000E+00 -4.4084805E+02  4.4084805E+02  0.0000000E+00  0.0000000E+00  1.0000000E+00
 39  2  1  2   0   0  3.4106051E-13 -2.5579538E-13  1.1522828E+02  9.9692438E+02  9.9024273E+02  0.0000000E+00  1.0000000E+00
 23  2  3  3   0   0  3.0423335E+02 -2.2411877E+02 -2.5029495E+02  4.6215726E+02  9.0302904E+01  0.0000000E+00  1.0000000E+00
 23  2  3  3   0   0 -3.0423335E+02  2.2411877E+02  3.6552323E+02  5.3476712E+02  9.7885040E+01  0.0000000E+00  1.0000000E+00
-11  1  4  4   0   0  6.4617820E+00 -6.2455906E+00  7.7839684E+00  1.1889163E+01  1.7481139E-05  0.0000000E+00  1.0000000E+00
 11  1  4  4   0   0  2.9777157E+02 -2.1787318E+02 -2.5807892E+02  4.5026810E+02  1.7781775E-06  0.0000000E+00  1.0000000E+00
-13  1  5  5   0   0 -3.8688959E+01 -4.2914280E+00  2.5030768E+01  4.6279490E+01  2.4126264E-05  0.0000000E+00  1.0000000E+00
 13  1  5  5   0   0 -2.6554439E+02  2.2841020E+02  3.4049246E+02  4.8848763E+02  4.6963014E-06  0.0000000E+00  1.0000000E+00
</event>
<event>
9 100 1.0000000E+00 1.0000000E+03 7.8125000E-03 0.0000000E+00
 21 -1  0  0 501 502  0.0000000E+00  0.0000000E+00  1.6695889E+02  1.6695889E+02  0.0000000E+00  0.0000000E+00  1.0000000E+00
 21 -1  0  0 502 501  0.0000000E+00  0.0000000E+00 -1.4834867E+03  1.4834867E+03  0.0000000E+00  0.0000000E+00  1.0000000E+00
 39  2  1  2   0   0  1.5347723E-12  3.6948222E-13 -1.3165278E+03  1.6504456E+03  9.9535180E+02  0.0000000E+00  1.0000000E+00
 23  2  3  3   0   0 -3.8790443E+02 -9.3310223E+01 -1.1274442E+03  1.1995962E+03  9.3402399E+01  0.0000000E+00  1.0000000E+00
 23  2  3  3   0   0  3.8790443E+02  9.3310223E+01 -1.8908367E+02  4.5084944E+02  9.1301376E+01  0.0000000E+00  1.0000000E+00
-11  1  4  4   0   0 -2.8335384E+02 -9.8547056E+01 -9.1182312E+02  9.5990746E+02  4.6720309E-06  0.0000000E+00  1.0000000E+00
 11  1  4  4   0   0 -1.0455059E+02  5.2368338E+00 -2.1562105E+02  2.3968873E+02  1.5258789E-05  0.0000000E+00  1.0000000E+00
-13  1  5  5   0   0  3.8674926E+02  8.9483327E+01 -1.9610998E+02  4.4276560E+02  8.8005203E-07  0.0000000E+00  1.0000000E+00
 13  1  5  5   0   0  1.1551680E+00  3.8268958E+00  7.0263025E+00  8.0838401E+00  1.1121658E-05  0.0000000E+00  1.0000000E+00
</event>
<event>
9 100 1.0000000E+00 1.0000000E+03 7.8125000E-03 0.0000000E+00
 21 -1  0  0 501 502  0.0000000E+00  0.0000000E+00  1.1605922E+03  1.1605922E+03  0.0000000E+00  0.0000000E+00  1.0000000E+00
 21 -1  0  0 502 501  0.0000000E+00  0.0000000E+00 -2.0642501E+02  2.0642501E+02  0.0000000E+00  0.0000000E+00  1.0000000E+00
 39  2  1  2   0   0 -3.9790393E-13 -5.1727511E-12  9.5416716E+02  1.3670172E+03  9.7892849E+02  0.0000000E+00  1.0000000E+00
 23  2  3  3   0   0  3.3396603E+01  4.3386507E+02  1.9049403E+02  4.8346921E+02  9.0001505E+01  0.0000000E+00  1.0000000E+00
 23  2  3  3   0   0 -3.3396603E+01 -4.3386507E+02  7.6367312E+02  8.8354796E+02  9.0034039E+01  0.0000000E+00  1.0000000E+00
-11  1  4  4   0   0  4.7511191E+01  4.2082673E+02  1.9020357E+02  4.6425192E+02  2.4395418E-06  0.0000000E+00  1.0000000E+00
 11  1  4  4   0   0 -1.4114588E+01  1.3038336E+01  2.9046788E-01  1.9217288E+01  1.7892516E-05  0.0000000E+00  1.0000000E+00
-13  1  5  5   0   0 -1.4891054E+01 -6.3975159E+00  3.4342371E+01  3.7974598E+01  1.8688124E-05  0.0000000E+00  1.0000000E+00
 13  1  5  5   0   0 -1.8505549E+01 -4.2746755E+02  7.2933075E+02  8.4557336E+02  6.7434958E-07  0.0000000E+00  1.0000000E+00
</event>
<event>
9 100 1.0000000E+00 1.0000000E+03 7.8125000E-03 0.0000000E+00
 21 -1  0  0 501 502  0.0000000E+00  0.0000000E+00  7.6677430E+02  7.6677430E+02  0.0000000E+00  0.0000000E+00  1.0000000E+00
 21 -1  0  0 502 501  0.0000000E+00  0.0000000E+00 -3.2221560E+02  3.2221560E+02  0.0000000E+00  0.0000000E+00  1.0000000E+00
 39  2  1  2   0   0 -3.5527137E-15  7.4606987E-14  4.4455870E+02  1.0889899E+03  9.9411598E+02  0.0000000E+00  1.0000000E+00
 23  2  3  3   0   0  1.2699338E-01  1.8351942E+01 -3.1253489E+02  3.2615651E+02  9.1450532E+01  0.0000000E+00  1.0000000E+00
 23  2  3  3   0   0 -1.2699338E-01 -1.8351942E+01  7.5709359E+02  7.6283340E+02  9.1582088E+01  0.0000000E+00  1.0000000E+00
-11  1  4  4   0   0 -1.2119230E+01  1.7260522E+01 -9.9459215E+00  2.3317862E+01  6.6072495E-06  0.0000000E+00  1.0000000E+00
 11  1  4  4   0   0  1.2246223E+01  1.0914204E+00 -3.0258897E+02  3.0283864E+02  1.1309186E-06  0.0000000E+00  1.0000000E+00
-13  1  5  5   0   0  2.8545078E+01 -3.0773478E+01  1.7739256E+02  1.8229083E+02  7.6293945E-06  0.0000000E+00  1.0000000E+00
 13  1  5  5   0   0 -2.8672072E+01  1.2421535E+01  5.7970103E+02  5.8054256E+02  3.3036247E-06  0.0000000E+00  1.0000000E+00
</event>
<event>
9 100 1.0000000E+00 1.0000000E+03 7.8125000E-03 0.0000000E+00
 21 -1  0  0 501 502  0.0000000E+00  0.0000000E+00  1.2491168E+02  1.2491168E+02  0.0000000E+00  0.0000000E+00  1.0000000E+00
 21 -1  0  0 502 501  0.0000000E+00  0.0000000E+00 -7.4359116E+02  7.4359116E+02  0.0000000E+00  0.0000000E+00  1.0000000E+00
 39  2  1  2   0   0 -6.2172489E-14 -2.8421709E-13 -6.1867949E+02  8.6850284E+02  6.0953497E+02  0.0000000E+00  1.0000000E+00
 23  2  3  3   0   0  5.3073700E+00  2.2443290E+01  1.0357272E+02  1.4031746E+02  9.1814001E+01  0.0000000E+00  1.0000000E+00
 23  2  3  3   0   0 -5.3073700E+00 -2.2443290E+01 -7.2225221E+02  7.2818538E+02  8.9854503E+01  0.0000000E+00  1.0000000E+00
-11  1  4  4   0   0  2.2013982E+00 -2.2725263E+01 -4.3862652E+00  2.3249152E+01  5.2234894E-06  0.0000000E+00  1.0000000E+00
 11  1  4  4   0   0  3.1059718E+00  4.5168553E+01  1.0795899E+02  1.1706830E+02  2.0656256E-06  0.0000000E+00  1.0000000E+00
-13  1  5  5   0   0 -2.9935921E+00 -5.5462219E+01 -5.4877260E+02  5.5157628E+02  4.6720309E-06  0.0000000E+00  1.0000000E+00
 13  1  5  5   0   0 -2.3137779E+00  3.3018930E+01 -1.7347961E+02  1.7660911E+02  2.2888184E-05  0.0000000E+00  1.0000000E+00
</event>
<event>
9 100 1.0000000E+00 1.0000000E+03 7.8125000E-03 0.0000000E+00
 21 -1  0  0 501 502  0.0000000E+00  0.0000000E+00  6.6720475E+02  6.6720475E+02  0.0000000E+00  0.0000000E+00  1.0000000E+00
 21 -1  0  0 502 501  0.0000000E+00  0.0000000E+00 -3.5309834E+02  3.5309834E+02  0.0000000E+00  0.0000000E+00  1.0000000E+00
 39  2  1  2   0   0 -5.6843419E-14 -1.1368684E-13  3.1410640E+02  1.0203031E+03  9.7075000E+02  0.0000000E+00  1.0000000E+00
 23  2  3  3   0   0 -3.2712263E+02  2.7322111E+02  3.7997668E+02  5.7821475E+02  9.1055104E+01  0.0000000E+00  1.0000000E+00
 23  2  3  3   0   0  3.2712263E+02 -2.7322111E+02 -6.5870275E+01  4.4208834E+02  9.7181338E+01  0.0000000E+00  1.0000000E+00
-11  1  4  4   0   0 -2.4050903E+02  2.4387500E+02  2.7713983E+02  4.4059742E+02  8.3139399E-06  0.0000000E+00  1.0000000E+00
 11  1  4  4   0   0 -8.6613606E+01  2.9346113E+01  1.0283685E+02  1.3761733E+02  1.8688124E-05  0.0000000E+00  1.0000000E+00
-13  1  5  5   0   0  1.6362406E+02 -1.0092189E+02  1.0652404E+01  1.9253969E+02  7.0726380E-06  0.0000000E+00  1.0000000E+00
 13  1  5  5   0   0  1.6349858E+02 -1.7229921E+02 -7.6522679E+01  2.4954864E+02  2.5953699E-06  0.0000000E+00  1.0000000E+00
</event>
<event>
9 100 1.0000000E+00 1.0000000E+03 7.8125000E-03 0.0000000E+00
 21 -1  0  0 501 502  0.0000000E+00  0.0000000E+00  3.2359742E+02  3.2359742E+02  0.0000000E+00  0.0000000E+00  1.0000000E+00
 21 -1  0  0 502 501  0.0000000E+00  0.0000000E+00 -7.4677368E+02  7.4677368E+02  0.0000000E+00  0.0000000E+00  1.0000000E+00
 39  2  1  2   0   0  8.5265128E-14 -4.2632564E-14 -4.2317625E+02  1.0703711E+03  9.8316639E+02  0.0000000E+00  1.0000000E+00
 23  2  3  3   0   0  1.6995181E+02 -5.1330168E+01  2.7688799E+02  3.4238601E+02  9.5093725E+01  0.0000000E+00  1.0000000E+00
 23  2  3  3   0   0 -1.6995181E+02  5.1330168E+01 -7.0006425E+02  7.2798509E+02  9.1399834E+01  0.0000000E+00  1.0000000E+00
-11  1  4  4   0   0  1.1068721E+02 -1.4031074E+01  2.3662654E+02  2.6161164E+02  3.4052984E-06  0.0000000E+00  1.0000000E+00
 11  1  4  4   0   0  5.9264595E+01 -3.7299094E+01  4.0261454E+01  8.0774373E+01  7.1366451E-06  0.0000000E+00  1.0000000E+00
-13  1  5  5   0   0 -1.6890820E+02  2.7951330E+01 -6.5736059E+02  6.7928948E+02  2.2365645E-06  0.0000000E+00  1.0000000E+00
 13  1  5  5   0   0 -1.0436056E+00  2.3378838E+01 -4.2703660E+01  4.8695603E+01  1.5258789E-05  0.0000000E+00  1.0000000E+00
</event>
<event>
9 100 1.0000000E+00 1.0000000E+03 7.8125000E-03 0.0000000E+00
 21 -1  0  0 501 502  0.0000000E+00  0.0000000E+00  2.5812517E+02  2.5812517E+02  0.0000000E+00  0.0000000E+00  1.0000000E+00
 21 -1  0  0 502 501  0.0000000E+00  0.0000000E+00 -2.8427856E+02  2.8427856E+02  0.0000000E+00  0.0000000E+00  1.0000000E+00
 39  2  1  2   0   0 -2.8421709E-13 -1.8474111E-13 -2.6153387E+01  5.4240373E+02  5.4177284E+02  0.0000000E+00  1.0000000E+00
 23  2  3  3   0   0 -1.2867176E+02 -1.1111311E+02  1.7790996E+02  2.6148398E+02  8.8427197E+01  0.0000000E+00  1.0000000E+00
 23  2  3  3   0   0  1.2867176E+02  1.1111311E+02 -2.0406335E+02  2.8091976E+02  9.1495979E+01  0.0000000E+00  1.0000000E+00
-11  1  4  4   0   0 -1.2440698E+02 -7.3133312E+01  1.6901820E+02  2.2224475E+02  3.5019948E-06  0.0000000E+00  1.0000000E+00
 11  1  4  4   0   0 -4.2647850E+00 -3.7979798E+01  8.8917655E+00  3.9239227E+01  1.2507321E-05  0.0000000E+00  1.0000000E+00
-13  1  5  5   0   0  7.7279289E+01  2.7841189E+01 -4.3658059E+01  9.3022827E+01  5.3947966E-06  0.0000000E+00  1.0000000E+00
 13  1  5  5   0   0  5.1392473E+01  8.3271921E+01 -1.6040529E+02  1.8789693E+02  2.1324806E-06  0.0000000E+00  1.0000000E+00
</event>
<event>
9 100 1.0000000E+00 1.0000000E+03 7.8125000E-03 0.0000000E+00
 21 -1  0  0 501 502  0.0000000E+00  0.0000000E+00  3.0443587E+02  3.0443587E+02  0.0000000E+00  0.0000000E+00  1.0000000E+00
 21 -1  0  0 502 501  0.0000000E+00  0.0000000E+00 -8.3096871E+02  8.3096871E+02  0.0000000E+00  0.0000000E+00  1.0000000E+00
 39  2  1  2   0   0  3.4106051E-13  6.5369932E-13 -5.2653284E+02  1.1354046E+03  1.0059357E+03  0.0000000E+00  1.0000000E+00
 23  2  3  3   0   0 -9.0372573E+01 -1.7156107E+02  2.4680275E+02  3.2692592E+02  9.1479809E+01  0.0000000E+00  1.0000000E+00
 23  2  3  3   0   0  9.0372573E+01  1.7156107E+02 -7.7333559E+02  8.0847866E+02  1.3412458E+02  0.0000000E+00  1.0000000E+00
-11  1  4  4   0   0 -3.8785644E+01 -1.0959260E+02  7.8410859E+01  1.4022527E+02  6.6072495E-06  0.0000000E+00  1.0000000E+00
 11  1  4  4   0   0 -5.1586929E+01 -6.1968474E+01  1.6839189E+02  1.8670064E+02  3.9320999E-06  0.0000000E+00  1.0000000E+00
-13  1  5  5   0   0  1.1602826E+02  8.2500772E+01 -4.9884569E+02  5.1876388E+02  1.4273290E-05  0.0000000E+00  1.0000000E+00
 13  1  5  5   0   0 -2.5655687E+01  8.9060301E+01 -2.7448989E+02  2.8971478E+02  2.2243316E-05  0.0000000E+00  1.0000000E+00
</event>
<event>
9 100 1.0000000E+00 1.0000000E+03 7.8125000E-03 0.0000000E+00
 21 -1  0  0 501 502  0.0000000E+00  0.0000000E+00  2.3111776E+02  2.3111776E+02  0.0000000E+00  0.0000000E+00  1.0000000E+00
 21 -1  0  0 502 501  0.0000000E+00  0.0000000E+00 -1.1011810E+03  1.1011810E+03  0.0000000E+00  0.0000000E+00  1.0000000E+00
 39  2  1  2   0   0  4.2632564E-14 -1.4210855E-13 -8.7006324E+02  1.3322988E+03  1.0089648E+03  0.0000000E+00  1.0000000E+00
 23  2  3  3   0   0 -4.8873582E+01  1.7120432E+02 -1.0456448E+03  1.0651048E+03  9.6827375E+01  0.0000000E+00  1.0000000E+00
 23  2  3  3   0   0  4.8873582E+01 -1.7120432E+02  1.7558160E+02  2.6719396E+02  9.4149720E+01  0.0000000E+00  1.0000000E+00
-11  1  4  4   0   0 -8.3030665E+00  9.2699487E+01 -7.7091067E+02  7.7650846E+02  5.3947966E-06  0.0000000E+00  1.0000000E+00
 11  1  4  4   0   0 -4.0570516E+01  7.8504833E+01 -2.7473417E+02  2.8859632E+02  1.0789593E-05  0.0000000E+00  1.0000000E+00
-13  1  5  5   0   0  2.4065446E+01 -5.9651096E+01  8.6626322E+00  6.4903313E+01  4.2649612E-06  0.0000000E+00  1.0000000E+00
 13  1  5  5   0   0  2.4808137E+01 -1.1155322E+02  1.6691897E+02  2.0229065E+02  1.6037970E-06  0.0000000E+00  1.0000000E+00
</event>
<event>
9 100 1.0000000E+00 1.0000000E+03 7.8125000E-03 0.0000000E+00
 21 -1  0  0 501 502  0.0000000E+00  0.0000000E+00  1.3578211E+03  1.3578211E+03  0.0000000E+00  0.0000000E+00  1.0000000E+00
 21 -1  0  0 502 501  0.0000000E+00  0.0000000E+00 -1.8638593E+02  1.8638593E+02  0.0000000E+00  0.0000000E+00  1.0000000E+00
 39  2  1  2   0   0  2.2737368E-13 -5.1159077E-13  1.1714352E+03  1.5442070E+03  1.0061386E+03  0.0000000E+00  1.0000000E+00
 23  2  3  3   0   0 -2.1730260E+02  4.2722049E+02  7.7848198E+02  9.1874433E+02  9.1209570E+01  0.0000000E+00  1.0000000E+00
 23  2  3  3   0   0  2.1730260E+02 -4.2722049E+02  3.9295318E+02  6.2546269E+02  8.3985746E+01  0.0000000E+00  1.0000000E+00
-11  1  4  4   0   0 -1.7560735E+02  3.8054821E+02  6.2015286E+02  7.4849479E+02  4.6720309E-06  0.0000000E+00  1.0000000E+00
 11  1  4  4   0   0 -4.1695255E+01  4.6672278E+01  1.5832912E+02  1.7024955E+02  2.0185481E-05  0.0000000E+00  1.0000000E+00
-13  1  5  5   0   0  2.0564983E+02 -3.4243509E+02  3.4208009E+02  5.2590154E+02  3.9320999E-06  0.0000000E+00  1.0000000E+00
 13  1  5  5   0   0  1.1652771E+01 -8.4785392E+01  5.0873096E+01  9.9561146E+01  1.6627880E-05  0.0000000E+00  1.0000000E+00
</event>
<event>
9 100 1.0000000E+00 1.0000000E+03 7.8125000E-03 0.0000000E+00
 21 -1  0  0 501 502  0.0000000E+00  0.0000000E+00  1.9238185E+03  1.9238185E+03  0.0000000E+00  0.0000000E+00  1.0000000E+00
 21 -1  0  0 502 501  0.0000000E+00  0.0000000E+00 -1.3000559E+02  1.3000559E+02  0.0000000E+00  0.0000000E+00  1.0000000E+00
 39  2  1  2   0   0 -3.9790393E-12 -4.5474735E-12  1.7938129E+03  2.0538241E+03  1.0002143E+03  0.0000000E+00  1.0000000E+00
 23  2  3  3   0   0 -3.0990655E+02 -3.6199569E+02  1.1448157E+03  1.2434864E+03  9.2589009E+01  0.0000000E+00  1.0000000E+00
 23  2  3  3   0   0  3.0990655E+02  3.6199569E+02  6.4899726E+02  8.1033764E+02  9.1469631E+01  0.0000000E+00  1.0000000E+00
-11  1  4  4   0   0 -8.2978401E+01 -1.6563825E+02  4.4902579E+02  4.8574232E+02  3.7376247E-05  0.0000000E+00  1.0000000E+00
 11  1  4  4   0   0 -2.2692815E+02 -1.9635744E+02  6.9578987E+02  7.5774413E+02  2.2888184E-05  0.0000000E+00  1.0000000E+00
-13  1  5  5   0   0  2.6935901E+02  3.1700550E+02  6.0986742E+02  7.3823102E+02  1.6518124E-06  0.0000000E+00  1.0000000E+00
 13  1  5  5   0   0  4.0547543E+01  4.4990190E+01  3.9129837E+01  7.2106620E+01  1.8688124E-05  0.0000000E+00  1.0000000E+00
</event>
<event>
9 100 1.0000000E+00 1.0000000E+03 7.8125000E-03 0.0000000E+00
 21 -1  0  0 501 502  0.0000000E+00  0.0000000E+00  2.2382327E+03  2.2382327E+03  0.0000000E+00  0.0000000E+00  1.0000000E+00
 21 -1  0  0 502 501  0.0000000E+00  0.0000000E+00 -1.1171916E+02  1.1171916E+02  0.0000000E+00  0.0000000E+00  1.0000000E+00
 39  2  1  2   0   0 -1.8758328E-12 -1.7905677E-12  2.1265135E+03  2.3499518E+03  1.0001069E+03  0.0000000E+00  1.0000000E+00
 23  2  3  3   0   0 -1.5593512E+02 -1.5150876E+02  2.1000519E+03  2.1132421E+03  9.1121866E+01  0.0000000E+00  1.0000000E+00
 23  2  3  3   0   0  1.5593512E+02  1.5150876E+02  2.6461582E+01  2.3670978E+02  8.9781045E+01  0.0000000E+00  1.0000000E+00
-11  1  4  4   0   0  1.6376970E+00 -1.4892452E+01  4.0929185E+01  4.3585151E+01  0.0000000E+00  0.0000000E+00  1.0000000E+00
 11  1  4  4   0   0 -1.5757282E+02 -1.3661631E+02  2.0591228E+03  2.0696569E+03  3.9609069E-06  0.0000000E+00  1.0000000E+00
-13  1  5  5   0   0  6.9398492E+01  8.9043961E+01  5.5932151E+01  1.2598962E+02  6.3974418E-06  0.0000000E+00  1.0000000E+00
 13  1  5  5   0   0  8.6536630E+01  6.2464798E+01 -2.9470569E+01  1.1072016E+02  7.1366451E-06  0.0000000E+00  1.0000000E+00
</event>
<event>
9 100 1.0000000E+00 1.0000000E+03 7.8125000E-03 0.0000000E+00
 21 -1  0  0 501 502  0.0000000E+00  0.0000000E+00  1.0992304E+03  1.0992304E+03  0.0000000E+00  0.0000000E+00  1.0000000E+00
 21 -1  0  0 502 501  0.0000000E+00  0.0000000E+00 -2.2688119E+02  2.2688119E+02  0.0000000E+00  0.0000000E+00  1.0000000E+00
 39  2  1  2   0   0 -8.6686214E-13 -1.5347723E-12  8.7234926E+02  1.3261116E+03  9.9878868E+02  0.0000000E+00  1.0000000E+00
 23  2  3  3   0   0 -1.2463362E+02 -2.1439454E+02 -1.2627034E+02  2.9299704E+02  9.1676104E+01  0.0000000E+00  1.0000000E+00
 23  2  3  3   0   0  1.2463362E+02  2.1439454E+02  9.9861960E+02  1.0331146E+03  9.2661205E+01  0.0000000E+00  1.0000000E+00
-11  1  4  4   0   0  3.1624284E+00 -7.4656667E+01 -4.2128932E+01  8.5781501E+01  8.6883865E-06  0.0000000E+00  1.0000000E+00
 11  1  4  4   0   0 -1.2779605E+02 -1.3973787E+02 -8.4141410E+01  2.0721554E+02  5.2234894E-06  0.0000000E+00  1.0000000E+00
-13  1  5  5   0   0  1.3919077E+02  2.0320332E+02  9.2310204E+02  9.5539679E+02  5.3098339E-06  0.0000000E+00  1.0000000E+00
 13  1  5  5   0   0 -1.4557155E+01  1.1191222E+01  7.5517564E+01  7.7717801E+01  1.8688124E-05  0.0000000E+00  1.0000000E+00
</event>
<event>
9 100 1.0000000E+00 1.0000000E+03 7.8125000E-03 0.0000000E+00
 21 -1  0  0 501 502  0.0000000E+00  0.0000000E+00  2.9623410E+02  2.9623410E+02  0.0000000E+00  0.0000000E+00  1.0000000E+00
 21 -1  0  0 502 501  0.0000000E+00  0.0000000E+00 -8.4367448E+02  8.4367448E+02  0.0000000E+00  0.0000000E+00  1.0000000E+00
 39  2  1  2   0   0 -2.2168933E-12  2.2737368E-12 -5.4744037E+02  1.1399086E+03  9.9985029E+02  0.0000000E+00  1.0000000E+00
 23  2  3  3   0   0 -2.7060147E+02  2.9319349E+02 -6.0069909E+02  7.2762825E+02  9.7035550E+01  0.0000000E+00  1.0000000E+00
 23  2  3  3   0   0  2.7060147E+02 -2.9319349E+02  5.3258716E+01  4.1228033E+02  8.9168394E+01  0.0000000E+00  1.0000000E+00
-11  1  4  4   0   0 -2.0025678E+02  1.8336960E+02 -4.7120407E+02  5.4383864E+02  1.9073486E-06  0.0000000E+00  1.0000000E+00
 11  1  4  4   0   0 -7.0344686E+01  1.0982389E+02 -1.2949502E+02  1.8378961E+02  1.3214499E-05  0.0000000E+00  1.0000000E+00
-13  1  5  5   0   0  2.2996193E+02 -2.2829699E+02  7.5152360E+01  3.3264077E+02  2.5344243E-06  0.0000000E+00  1.0000000E+00
 13  1  5  5   0   0  4.0639535E+01 -6.4896500E+01 -2.1893644E+01  7.9639557E+01  1.0915301E-05  0.0000000E+00  1.0000000E+00
</event>
<event>
9 100 1.0000000E+00 1.0000000E+03 7.8125000E-03 0.0000000E+00
 21 -1  0  0 501 502  0.0000000E+00  0.0000000E+00  7.1953189E+02  7.1953189E+02  0.0000000E+00  0.0000000E+00  1.0000000E+00
 21 -1  0  0 502 501  0.0000000E+00  0.0000000E+00 -3.4588918E+02  3.4588918E+02  0.0000000E+00  0.0000000E+00  1.0000000E+00
 39  2  1  2   0   0 -1.1937118E-12 -7.6383344E-14  3.7364270E+02  1.0654211E+03  9.9775407E+02  0.0000000E+00  1.0000000E+00
 23  2  3  3   0   0  2.3778087E+02  1.5313311E+01  6.4467949E+02  6.9334561E+02  9.1335919E+01  0.0000000E+00  1.0000000E+00
 23  2  3  3   0   0 -2.3778087E+02 -1.5313311E+01 -2.7103679E+02  3.7207545E+02  9.0581242E+01  0.0000000E+00  1.0000000E+00
-11  1  4  4   0   0  2.3716222E+02  2.1820027E+00  6.3218208E+02  6.7520728E+02  1.4305115E-06  0.0000000E+00  1.0000000E+00
 11  1  4  4   0   0  6.1864893E-01  1.3131308E+01  1.2497410E+01  1.8138336E+01  1.7059845E-05  0.0000000E+00  1.0000000E+00
-13  1  5  5   0   0 -2.3486075E+02 -4.4354524E+00 -2.7351726E+02  3.6054256E+02  2.1184819E-06  0.0000000E+00  1.0000000E+00
 13  1  5  5   0   0 -2.9201170E+00 -1.0877858E+01  2.4804694E+00  1.1532892E+01  1.9073486E-05  0.0000000E+00  1.0000000E+00
</event>
<event>
9 100 1.0000000E+00 1.0000000E+03 7.8125000E-03 0.0000000E+00
 21 -1  0  0 501 502  0.0000000E+00  0.0000000E+00  2.2529123E+03  2.2529123E+03  0.0000000E+00  0.0000000E+00  1.0000000E+00
 21 -1  0  0 502 501  0.0000000E+00  0.0000000E+00 -1.1191379E+02  1.1191379E+02  0.0000000E+00  0.0000000E+00  1.0000000E+00
 39  2  1  2   0   0 -1.2391865E-11 -1.0743406E-11  2.1409985E+03  2.3648261E+03  1.0042548E+03  0.0000000E+00  1.0000000E+00
 23  2  3  3   0   0 -3.3045938E+02 -2.8797492E+02  1.6048129E+03  1.6665471E+03  9.9105207E+01  0.0000000E+00  1.0000000E+00
 23  2  3  3   0   0  3.3045938E+02  2.8797492E+02  5.3618557E+02  6.9827894E+02  8.9250034E+01  0.0000000E+00  1.0000000E+00
-11  1  4  4   0   0 -5.9872862E+01 -5.2267032E+01  1.7191706E+02  1.8939926E+02  5.5016346E-05  0.0000000E+00  1.0000000E+00
 11  1  4  4   0   0 -2.7058652E+02 -2.3570788E+02  1.4328959E+03  1.4771479E+03  6.8770433E-06  0.0000000E+00  1.0000000E+00
-13  1  5  5   0   0  1.1512992E+02  1.3006854E+02  1.5455861E+02  2.3251041E+02  1.9451216E-05  0.0000000E+00  1.0000000E+00
 13  1  5  5   0   0  2.1532946E+02  1.5790637E+02  3.8162695E+02  4.6576854E+02  1.3351440E-05  0.0000000E+00  1.0000000E+00
</event>
<event>
9 100 1.0000000E+00 1.0000000E+03 7.8125000E-03 0.0000000E+00
 21 -1  0  0 501 502  0.0000000E+00  0.0000000E+00  3.2761850E+02  3.2761850E+02  0.0000000E+00  0.0000000E+00  1.0000000E+00
 21 -1  0  0 502 501  0.0000000E+00  0.0000000E+00 -7.6029956E+02  7.6029956E+02  0.0000000E+00  0.0000000E+00  1.0000000E+00
 39  2  1  2   0   0 -6.8212103E-13  9.6633812E-13 -4.3268106E+02  1.0879181E+03  9.9817474E+02  0.0000000E+00  1.0000000E+00
 23  2  3  3   0   0  2.8236273E+02 -3.6815645E+02 -3.9181238E+02  6.1367256E+02  8.8369607E+01  0.0000000E+00  1.0000000E+00
 23  2  3  3   0   0 -2.8236273E+02  3.6815645E+02 -4.0868680E+01  4.7424550E+02  8.9278573E+01  0.0000000E+00  1.0000000E+00
-11  1  4  4   0   0  1.0352582E+02 -2.0692579E+02 -1.8437798E+02  2.9585658E+02  2.6973983E-06  0.0000000E+00  1.0000000E+00
 11  1  4  4   0   0  1.7883691E+02 -1.6123066E+02 -2.0743439E+02  3.1781597E+02  0.0000000E+00  0.0000000E+00  1.0000000E+00
-13  1  5  5   0   0 -1.8200051E+02  1.7283544E+02 -6.2521462E-01  2.5099137E+02  7.1366451E-06  0.0000000E+00  1.0000000E+00
 13  1  5  5   0   0 -1.0036222E+02  1.9532101E+02 -4.0243466E+01  2.2325413E+02  5.0539052E-06  0.0000000E+00  1.0000000E+00
</event>
<event>
9 100 1.0000000E+00 1.0000000E+03 7.8125000E-03 0.0000000E+00
 21 -1  0  0 501 502  0.0000000E+00  0.0000000E+00  1.4780255E+02  1.4780255E+02  0.0000000E+00  0.0000000E+00  1.0000000E+00
 21 -1  0  0 502 501  0.0000000E+00  0.0000000E+00 -1.6564210E+03  1.6564210E+03  0.0000000E+00  0.0000000E+00  1.0000000E+00
 39  2  1  2   0   0  6.9348971E-12  4.0358827E-12 -1.5086184E+03  1.8042235E+03  9.8959233E+02  0.0000000E+00  1.0000000E+00
 23  2  3  3   0   0  2.2824090E+02  1.3317432E+02 -1.4981395E+03  1.5238718E+03  8.9073234E+01  0.0000000E+00  1.0000000E+00
 23  2  3  3   0   0 -2.2824090E+02 -1.3317432E+02 -1.0478926E+01  2.8035171E+02  9.3048209E+01  0.0000000E+00  1.0000000E+00
-11  1  4  4   0   0  1.0896019E+02  9.8711260E+01 -6.3184828E+02  6.4872836E+02  0.0000000E+00  0.0000000E+00  1.0000000E+00
 11  1  4  4   0   0  1.1928070E+02  3.4463059E+01 -8.6629122E+02  8.7514345E+02  0.0000000E+00  0.0000000E+00  1.0000000E+00
-13  1  5  5   0   0 -5.4074823E+01  4.4566060E+00  1.6559534E+01  5.6728881E+01  1.5443930E-05  0.0000000E+00  1.0000000E+00
 13  1  5  5   0   0 -1.7416607E+02 -1.3763093E+02 -2.7038460E+01  2.2362283E+02  6.0597730E-06  0.0000000E+00  1.0000000E+00
</event>
<event>
9 100 1.0000000E+00 1.0000000E+03 7.8125000E-03 0.0000000E+00
 21 -1  0  0 501 502  0.0000000E+00  0.0000000E+00  1.0364882E+03  1.0364882E+03  0.0000000E+00  0.0000000E+00  1.0000000E+00
 21 -1  0  0 502 501  0.0000000E+00  0.0000000E+00 -2.4197062E+02  2.4197062E+02  0.0000000E+00  0.0000000E+00  1.0000000E+00
 39  2  1  2   0   0 -1.8900437E-12 -5.7411853E-12  7.9451757E+02  1.2784588E+03  1.0015981E+03  0.0000000E+00  1.0000000E+00
 23  2  3  3   0   0  1.2349627E+02  3.6963557E+02  1.1679249E+01  3.9841894E+02  8.1972353E+01  0.0000000E+00  1.0000000E+00
 23  2  3  3   0   0 -1.2349627E+02 -3.6963557E+02  7.8283833E+02  8.8003986E+02  9.8754924E+01  0.0000000E+00  1.0000000E+00
-11  1  4  4   0   0  2.0853711E+01  3.8013155E+01 -2.3810976E+01  4.9465541E+01  1.4137237E-05  0.0000000E+00  1.0000000E+00
 11  1  4  4   0   0  1.0264256E+02  3.3162241E+02  3.5490225E+01  3.4895340E+02  3.0345731E-06  0.0000000E+00  1.0000000E+00
-13  1  5  5   0   0 -1.2398523E+02 -2.3146611E+02  4.7871433E+02  5.4600028E+02  1.1444092E-05  0.0000000E+00  1.0000000E+00
 13  1  5  5   0   0  4.8895599E-01 -1.3816946E+02  3.0412400E+02  3.3403958E+02  2.0185481E-05  0.0000000E+00  1.0000000E+00
</event>
<event>
9 100 1.0000000E+00 1.0000000E+03 7.8125000E-03 0.0000000E+00
 21 -1  0  0 501 502  0.0000000E+00  0.0000000E+00  1.8830771E+02  1.8830771E+02  0.0000000E+00  0.0000000E+00  1.0000000E+00
 21 -1  0  0 502 501  0.0000000E+00  0.0000000E+00 -1.3420094E+03  1.3420094E+03  0.0000000E+00  0.0000000E+00  1.0000000E+00
 39  2  1  2   0   0  5.0306426E-12  1.9610980E-12 -1.1537016E+03  1.5303171E+03  1.0054068E+03  0.0000000E+00  1.0000000E+00
 23  2  3  3   0   0  2.4424421E+02  9.5433556E+01 -1.2117737E+03  1.2464789E+03  1.2865182E+02  0.0000000E+00  1.0000000E+00
 23  2  3  3   0   0 -2.4424421E+02 -9.5433556E+01  5.8072039E+01  2.8383820E+02  9.1809373E+01  0.0000000E+00  1.0000000E+00
-11  1  4  4   0   0  1.6125191E+02  7.2178378E+01 -5.1641040E+02  5.4579446E+02  2.4126264E-05  0.0000000E+00  1.0000000E+00
 11  1  4  4   0   0  8.2992304E+01  2.3255178E+01 -6.9536329E+02  7.0068440E+02  1.0789593E-05  0.0000000E+00  1.0000000E+00
-13  1  5  5   0   0 -2.0832736E+02 -4.2725616E+01  5.6482118E+01  2.2003636E+02  2.4550313E-06  0.0000000E+00  1.0000000E+00
 13  1  5  5   0   0 -3.5916852E+01 -5.2707941E+01  1.5899214E+00  6.3801843E+01  7.5092391E-06  0.0000000E+00  1.0000000E+00
</event>
<event>
9 100 1.0000000E+00 1.0000000E+03 7.8125000E-03 0.0000000E+00
 21 -1  0  0 501 502  0.0000000E+00  0.0000000E+00  1.1194489E+03  1.1194489E+03  0.0000000E+00  0.0000000E+00  1.0000000E+00
 21 -1  0  0 502 501  0.0000000E+00  0.0000000E+00 -1.9235897E+02  1.9235897E+02  0.0000000E+00  0.0000000E+00  1.0000000E+00
 39  2  1  2   0   0  6.3664629E-12 -4.5190518E-12  9.2708989E+02  1.3118078E+03  9.2808628E+02  0.0000000E+00  1.0000000E+00
 23  2  3  3   0   0 -3.3704145E+02  2.3449288E+02  1.8615632E+02  4.6017064E+02  9.2298405E+01  0.0000000E+00  1.0000000E+00
 23  2  3  3   0   0  3.3704145E+02 -2.3449288E+02  7.4093356E+02  8.5163719E+02  8.7860755E+01  0.0000000E+00  1.0000000E+00
-11  1  4  4   0   0 -1.2628025E+02  7.2661419E+01  2.0730075E+01  1.4716019E+02  7.3871295E-06  0.0000000E+00  1.0000000E+00
 11  1  4  4   0   0 -2.1076119E+02  1.6183146E+02  1.6542625E+02  3.1301046E+02  2.8808227E-06  0.0000000E+00  1.0000000E+00
-13  1  5  5   0   0  1.2756108E+02 -1.4001036E+02  3.5893550E+02  4.0584409E+02  0.0000000E+00  0.0000000E+00  1.0000000E+00
 13  1  5  5   0   0  2.0948037E+02 -9.4482517E+01  3.8199807E+02  4.4579311E+02  7.6293945E-06  0.0000000E+00  1.0000000E+00
</event>
<event>
9 100 1.0000000E+00 1.0000000E+03 7.8125000E-03 0.0000000E+00
 21 -1  0  0 501 502  0.0000000E+00  0.0000000E+00  3.6581899E+02  3.6581899E+02  0.0000000E+00  0.0000000E+00  1.0000000E+00
 21 -1  0  0 502 501  0.0000000E+00  0.0000000E+00 -6.8590115E+02  6.8590115E+02  0.0000000E+00  0.0000000E+00  1.0000000E+00
 39  2  1  2   0   0  5.4001248E-13  4.5474735E-13 -3.2008217E+02  1.0517201E+03  1.0018297E+03  0.0000000E+00  1.0000000E+00
 23  2  3  3   0   0  1.5452491E+02  1.4138633E+02  3.0810161E+02  3.8355585E+02  9.1216473E+01  0.0000000E+00  1.0000000E+00
 23  2  3  3   0   0 -1.5452491E+02 -1.4138633E+02 -6.2818377E+02  6.6816429E+02  8.9222309E+01  0.0000000E+00  1.0000000E+00
-11  1  4  4   0   0  8.4745050E+01  1.2647378E+02  1.7067027E+02  2.2870435E+02  3.3036247E-06  0.0000000E+00  1.0000000E+00
 11  1  4  4   0   0  6.9779863E+01  1.4912555E+01  1.3743134E+02  1.5485149E+02  1.9073486E-06  0.0000000E+00  1.0000000E+00
-13  1  5  5   0   0 -1.0814136E+02 -4.1272708E+01 -2.8231750E+02  3.0512483E+02  5.3947966E-06  0.0000000E+00  1.0000000E+00
 13  1  5  5   0   0 -4.6383557E+01 -1.0011362E+02 -3.4586627E+02  3.6303946E+02  3.8146973E-06  0.0000000E+00  1.0000000E+00
</event>
<event>
9 100 1.0000000E+00 1.0000000E+03 7.8125000E-03 0.0000000E+00
 21 -1  0  0 501 502  0.0000000E+00  0.0000000E+00  4.3103028E+02  4.3103028E+02  0.0000000E+00  0.0000000E+00  1.0000000E+00
 21 -1  0  0 502 501  0.0000000E+00  0.0000000E+00 -5.8766334E+02  5.8766334E+02  0.0000000E+00  0.0000000E+00  1.0000000E+00
 39  2  1  2   0   0 -1.5347723E-12 -4.2632564E-13 -1.5663306E+02  1.0186936E+03  1.0065797E+03  0.0000000E+00  1.0000000E+00
 23  2  3  3   0   0 -3.4301072E+02 -8.9820128E+01 -4.2799844E+02  5.6313615E+02  9.0640180E+01  0.0000000E+00  1.0000000E+00
 23  2  3  3   0   0  3.4301072E+02  8.9820128E+01  2.7136538E+02  4.5555747E+02  9.0384910E+01  0.0000000E+00  1.0000000E+00
-11  1  4  4   0   0 -7.0334471E+01 -4.7572191E+01 -1.4396736E+02  1.6714261E+02  0.0000000E+00  0.0000000E+00  1.0000000E+00
 11  1  4  4   0   0 -2.7267625E+02 -4.2247937E+01 -2.8403108E+02  3.9599354E+02  3.3036247E-06  0.0000000E+00  1.0000000E+00
-13  1  5  5   0   0  3.2501057E+02  5.9382394E+01  2.4102611E+02  4.0896421E+02  2.3841858E-06  0.0000000E+00  1.0000000E+00
 13  1  5  5   0   0  1.8000155E+01  3.0437733E+01  3.0339263E+01  4.6593262E+01  1.4273290E-05  0.0000000E+00  1.0000000E+00
</event>
<event>
9 100 1.0000000E+00 1.0000000E+03 7.8125000E-03 0.0000000E+00
 21 -1  0  0 501 502  0.0000000E+00  0.0000000E+00  2.8161152E+02  2.8161152E+02  0.0000000E+00  0.0000000E+00  1.0000000E+00
 21 -1  0  0 502 501  0.0000000E+00  0.0000000E+00 -8.8426596E+02  8.8426596E+02  0.0000000E+00  0.0000000E+00  1.0000000E+00
 39  2  1  2   0   0  7.6738615E-13  3.8085091E-12 -6.0265445E+02  1.1658775E+03  9.9803703E+02  0.0000000E+00  1.0000000E+00
 23  2  3  3   0   0  5.6925609E+01  2.8431296E+02 -7.6350218E+02  8.2179348E+02  9.1293792E+01  0.0000000E+00  1.0000000E+00
 23  2  3  3   0   0 -5.6925609E+01 -2.8431296E+02  1.6084773E+02  3.4408400E+02  9.1909866E+01  0.0000000E+00  1.0000000E+00
-11  1  4  4   0   0  5.6631170E+00 -4.9628480E+00 -7.1280105E+00  1.0368669E+01  3.2368780E-05  0.0000000E+00  1.0000000E+00
 11  1  4  4   0   0  5.1262492E+01  2.8927581E+02 -7.5637417E+02  8.1142481E+02  1.8923888E-06  0.0000000E+00  1.0000000E+00
-13  1  5  5   0   0  2.0062652E+01 -9.0169321E+01  2.7851932E+01  9.6481846E+01  1.0271387E-05  0.0000000E+00  1.0000000E+00
 13  1  5  5   0   0 -7.6988261E+01 -1.9414364E+02  1.3299580E+02  2.4760216E+02  3.6314836E-06  0.0000000E+00  1.0000000E+00
</event>
<event>
9 100 1.0000000E+00 1.0000000E+03 7.8125000E-03 0.0000000E+00
 21 -1  0  0 501 502  0.0000000E+00  0.0000000E+00  1.7018287E+02  1.7018287E+02  0.0000000E+00  0.0000000E+00  1.0000000E+00
 21 -1  0  0 502 501  0.0000000E+00  0.0000000E+00 -1.3806581E+03  1.3806581E+03  0.0000000E+00  0.0000000E+00  1.0000000E+00
 39  2  1  2   0   0  2.0179414E-12  3.4674486E-12 -1.2104752E+03  1.5508410E+03  9.6946245E+02  0.0000000E+00  1.0000000E+00
 23  2  3  3   0   0 -2.2477173E+02 -3.9386048E+02 -3.7279511E+02  5.9382201E+02  8.9442596E+01  0.0000000E+00  1.0000000E+00
 23  2  3  3   0   0  2.2477173E+02  3.9386048E+02 -8.3768010E+02  9.5701894E+02  9.2352093E+01  0.0000000E+00  1.0000000E+00
-11  1  4  4   0   0 -5.1613400E+01 -1.6443413E+02 -1.1072434E+02  2.0484727E+02  1.6184390E-05  0.0000000E+00  1.0000000E+00
 11  1  4  4   0   0 -1.7315833E+02 -2.2942635E+02 -2.6207077E+02  3.8897473E+02  9.2462155E-06  0.0000000E+00  1.0000000E+00
-13  1  5  5   0   0  9.2378019E+01  1.5964893E+02 -2.4996889E+02  3.1065403E+02  2.1579186E-05  0.0000000E+00  1.0000000E+00
 13  1  5  5   0   0  1.3239371E+02  2.3421155E+02 -5.8771120E+02  6.4636491E+02  1.0092740E-05  0.0000000E+00  1.0000000E+00
</event>
<event>
9 100 1.0000000E+00 1.0000000E+03 7.8125000E-03 0.0000000E+00
 21 -1  0  0 501 502  0.0000000E+00  0.0000000E+00  1.2328558E+03  1.2328558E+03  0.0000000E+00  0.0000000E+00  1.0000000E+00
 21 -1  0  0 502 501  0.0000000E+00  0.0000000E+00 -2.0804700E+02  2.0804700E+02  0.0000000E+00  0.0000000E+00  1.0000000E+00
 39  2  1  2   0   0  0.0000000E+00  0.0000000E+00  1.0248088E+03  1.4409028E+03  1.0129007E+03  0.0000000E+00  1.0000000E+00
 23  2  3  3   0   0  1.1891057E+02  3.9398521E+02  1.1120840E+02  4.3575391E+02  9.0277888E+01  0.0000000E+00  1.0000000E+00
 23  2  3  3   0   0 -1.1891057E+02 -3.9398521E+02  9.1360038E+02  1.0051489E+03  7.9338051E+01  0.0000000E+00  1.0000000E+00
-11  1  4  4   0   0 -8.5980658E+00  2.1895574E+01 -7.8506118E+00  2.4798689E+01  1.7688024E-05  0.0000000E+00  1.0000000E+00
 11  1  4  4   0   0  1.2750863E+02  3.7208963E+02  1.1905901E+02  4.1095522E+02  2.9309489E-06  0.0000000E+00  1.0000000E+00
-13  1  5  5   0   0 -3.1459361E+01 -2.6535452E+01  1.0049058E+02  1.0859179E+02  2.4126264E-05  0.0000000E+00  1.0000000E+00
 13  1  5  5   0   0 -8.7451205E+01 -3.6744975E+02  8.1310980E+02  8.9655707E+02  3.5683226E-06  0.0000000E+00  1.0000000E+00
</event>
<event>
9 100 1.0000000E+00 1.0000000E+03 7.8125000E-03 0.0000000E+00
 21 -1  0  0 501 502  0.0000000E+00  0.0000000E+00  7.7299754E+02  7.7299754E+02  0.0000000E+00  0.0000000E+00  1.0000000E+00
 21 -1  0  0 502 501  0.0000000E+00  0.0000000E+00 -3.2383202E+02  3.2383202E+02  0.0000000E+00  0.0000000E+00  1.0000000E+00
 39  2  1  2   0   0  4.2632564E-13  5.6843419E-13  4.4916552E+02  1.0968296E+03  1.0006425E+03  0.0000000E+00  1.0000000E+00
 23  2  3  3   0   0 -1.1151241E+02 -1.4367062E+02  7.2540216E+02  7.5351284E+02  9.2179398E+01  0.0000000E+00  1.0000000E+00
 23  2  3  3   0   0  1.1151241E+02  1.4367062E+02 -2.7623664E+02  3.4331671E+02  9.2105488E+01  0.0000000E+00  1.0000000E+00
-11  1  4  4   0   0 -7.8010746E+01 -2.7536147E+01  2.7497199E+02  2.8714720E+02  1.7059845E-05  0.0000000E+00  1.0000000E+00
 11  1  4  4   0   0 -3.3501662E+01 -1.1613447E+02  4.5043017E+02  4.6636564E+02  1.1444092E-05  0.0000000E+00  1.0000000E+00
-13  1  5  5   0   0  7.8458872E+01  1.4849668E+02 -2.4832082E+02  2.9978374E+02  2.9778471E-06  0.0000000E+00  1.0000000E+00
 13  1  5  5   0   0  3.3053535E+01 -4.8260621E+00 -2.7915817E+01  4.3532975E+01  9.7256079E-06  0.0000000E+00  1.0000000E+00
</event>
<event>
9 100 1.0000000E+00 1.0000000E+03 7.8125000E-03 0.0000000E+00
 21 -1  0  0 501 502  0.0000000E+00  0.0000000E+00  9.3059845E+02  9.3059845E+02  0.0000000E+00  0.0000000E+00  1.0000000E+00
 21 -1  0  0 502 501  0.0000000E+00  0.0000000E+00 -2.6407540E+02  2.6407540E+02  0.0000000E+00  0.0000000E+00  1.0000000E+00
 39  2  1  2   0   0  2.5579538E-13 -7.6738615E-13  6.6652305E+02  1.1946739E+03  9.9145985E+02  0.0000000E+00  1.0000000E+00
 23  2  3  3   0   0 -6.2522131E+01  1.9287620E+02 -1.9866738E+02  2.9817185E+02  9.1255029E+01  0.0000000E+00  1.0000000E+00
 23  2  3  3   0   0  6.2522131E+01 -1.9287620E+02  8.6519043E+02  8.9650200E+02  1.1853742E+02  0.0000000E+00  1.0000000E+00
-11  1  4  4   0   0 -3.4937078E+01  1.7181772E+02 -1.9657013E+02  2.6340415E+02  2.0507376E-06  0.0000000E+00  1.0000000E+00
 11  1  4  4   0   0 -2.7585053E+01  2.1058481E+01 -2.0972453E+00  3.4767703E+01  6.0315660E-06  0.0000000E+00  1.0000000E+00
-13  1  5  5   0   0 -3.4246378E+00 -1.1482434E+02  2.8323982E+02  3.0564874E+02  1.3214499E-05  0.0000000E+00  1.0000000E+00
 13  1  5  5   0   0  6.5946769E+01 -7.8051863E+01  5.8195060E+02  5.9085326E+02  5.3947966E-06  0.0000000E+00  1.0000000E+00
</event>
<event>
9 100 1.0000000E+00 1.0000000E+03 7.8125000E-03 0.0000000E+00
 21 -1  0  0 501 502  0.0000000E+00  0.0000000E+00  1.1383199E+03  1.1383199E+03  0.0000000E+00  0.0000000E+00  1.0000000E+00
 21 -1  0  0 502 501  0.0000000E+00  0.0000000E+00 -2.2008379E+02  2.2008379E+02  0.0000000E+00  0.0000000E+00  1.0000000E+00
 39  2  1  2   0   0 -1.9326762E-12 -3.6948222E-12  9.1823610E+02  1.3584037E+03  1.0010510E+03  0.0000000E+00  1.0000000E+00
 23  2  3  3   0   0 -1.8747241E+02 -3.5882536E+02  8.3880573E+02  9.3626725E+02  9.5392755E+01  0.0000000E+00  1.0000000E+00
 23  2  3  3   0   0  1.8747241E+02  3.5882536E+02  7.9430372E+01  4.2213642E+02  8.9378055E+01  0.0000000E+00  1.0000000E+00
-11  1  4  4   0   0 -1.9438946E+02 -3.0919797E+02  7.2028164E+02  8.0758671E+02  3.0157830E-06  0.0000000E+00  1.0000000E+00
 11  1  4  4   0   0  6.9170574E+00 -4.9627385E+01  1.1852409E+02  1.2868054E+02  1.8688124E-05  0.0000000E+00  1.0000000E+00
-13  1  5  5   0   0  6.8889291E+01  2.0379778E+02  7.1853488E+01  2.2680871E+02  3.1842495E-06  0.0000000E+00  1.0000000E+00
 13  1  5  5   0   0  1.1858312E+02  1.5502758E+02  7.5768844E+00  1.9532771E+02  2.1324806E-06  0.0000000E+00  1.0000000E+00
</event>
<event>
9 100 1.0000000E+00 1.0000000E+03 7.8125000E-03 0.0000000E+00
 21 -1  0  0 501 502  0.0000000E+00  0.0000000E+00  8.0822782E+02  8.0822782E+02  0.0000000E+00  0.0000000E+00  1.0000000E+00
 21 -1  0  0 502 501  0.0000000E+00  0.0000000E+00 -3.3970068E+02  3.3970068E+02  0.0000000E+00  0.0000000E+00  1.0000000E+00
 39  2  1  2   0   0  1.6697754E-13 -1.9042545E-12  4.6852713E+02  1.1479285E+03  1.0479610E+03  0.0000000E+00  1.0000000E+00
 23  2  3  3   0   0  2.2004378E+01 -2.4147263E+02  7.3384658E+02  7.7830967E+02  9.1879873E+01  0.0000000E+00  1.0000000E+00
 23  2  3  3   0   0 -2.2004378E+01  2.4147263E+02 -2.6531945E+02  3.6961883E+02  8.6200025E+01  0.0000000E+00  1.0000000E+00
-11  1  4  4   0   0  3.8101303E+01 -2.3909863E+02  7.0139797E+02  7.4201009E+02  1.8467824E-06  0.0000000E+00  1.0000000E+00
 11  1  4  4   0   0 -1.6096925E+01 -2.3739996E+00  3.2448613E+01  3.6299578E+01  1.3214499E-05  0.0000000E+00  1.0000000E+00
-13  1  5  5   0   0 -3.8966029E+01  2.0916124E+02 -1.8718066E+02  2.8337850E+02  3.6935647E-06  0.0000000E+00  1.0000000E+00
 13  1  5  5   0   0  1.6961651E+01  3.2311392E+01 -7.8138792E+01  8.6240330E+01  8.0921949E-06  0.0000000E+00  1.0000000E+00
</event>
<event>
9 100 1.0000000E+00 1.0000000E+03 7.8125000E-03 0.0000000E+00
 21 -1  0  0 501 502  0.0000000E+00  0.0000000E+00  2.0568690E+02  2.0568690E+02  0.0000000E+00  0.0000000E+00  1.0000000E+00
 21 -1  0  0 502 501  0.0000000E+00  0.0000000E+00 -1.2101801E+03  1.2101801E+03  0.0000000E+00  0.0000000E+00  1.0000000E+00
 39  2  1  2   0   0  2.8421709E-12 -1.6768809E-12 -1.0044932E+03  1.4158670E+03  9.9783403E+02  0.0000000E+00  1.0000000E+00
 23  2  3  3   0   0 -3.4887659E+02  1.9572862E+02 -9.7750502E+01  4.2085393E+02  8.6823434E+01  0.0000000E+00  1.0000000E+00
 23  2  3  3   0   0  3.4887659E+02 -1.9572862E+02 -9.0674265E+02  9.9501303E+02  8.8567054E+01  0.0000000E+00  1.0000000E+00
-11  1  4  4   0   0 -1.6840317E+02  4.8006884E+01 -5.6581176E+01  1.8402641E+02  9.3318871E-06  0.0000000E+00  1.0000000E+00
 11  1  4  4   0   0 -1.8047342E+02  1.4772173E+02 -4.1169326E+01  2.3682753E+02  6.9428538E-06  0.0000000E+00  1.0000000E+00
-13  1  5  5   0   0  1.6071804E+02 -1.1507281E+02 -5.3940919E+02  5.7448613E+02  7.6293945E-06  0.0000000E+00  1.0000000E+00
 13  1  5  5   0   0  1.8815855E+02 -8.0655809E+01 -3.6733346E+02  4.2052690E+02  7.6293945E-06  0.0000000E+00  1.0000000E+00
</event>
<event>
9 100 1.0000000E+00 1.0000000E+03 7.8125000E-03 0.0000000E+00
 21 -1  0  0 501 502  0.0000000E+00  0.0000000E+00  3.5460796E+02  3.5460796E+02  0.0000000E+00  0.0000000E+00  1.0000000E+00
 21 -1  0  0 502 501  0.0000000E+00  0.0000000E+00 -6.9680658E+02  6.9680658E+02  0.0000000E+00  0.0000000E+00  1.0000000E+00
 39  2  1  2   0   0  0.0000000E+00  0.0000000E+00 -3.4219861E+02  1.0514145E+03  9.9416932E+02  0.0000000E+00  1.0000000E+00
 23  2  3  3   0   0 -8.7378497E+01  2.9614605E+02  2.2943160E+02  3.9545252E+02  9.1686168E+01  0.0000000E+00  1.0000000E+00
 23  2  3  3   0   0  8.7378497E+01 -2.9614605E+02 -5.7163021E+02  6.5596202E+02  9.0485301E+01  0.0000000E+00  1.0000000E+00
-11  1  4  4   0   0 -3.5408038E+01  2.3336514E+02  1.9805220E+02  3.0811961E+02  7.5394575E-07  0.0000000E+00  1.0000000E+00
 11  1  4  4   0   0 -5.1970459E+01  6.2780906E+01  3.1379396E+01  8.7332911E+01  5.3947966E-06  0.0000000E+00  1.0000000E+00
-13  1  5  5   0   0  7.0619921E+01 -2.9240989E+02 -5.1121029E+02  5.9314979E+02  3.0902580E-06  0.0000000E+00  1.0000000E+00
 13  1  5  5   0   0  1.6758577E+01 -3.7361561E+00 -6.0419924E+01  6.2812227E+01  1.3214499E-05  0.0000000E+00  1.0000000E+00
</event>
<event>
9 100 1.0000000E+00 1.0000000E+03 7.8125000E-03 0.0000000E+00
 21 -1  0  0 501 502  0.0000000E+00  0.0000000E+00  8.7037306E+02  8.7037306E+02  0.0000000E+00  0.0000000E+00  1.0000000E+00
 21 -1  0  0 502 501  0.0000000E+00  0.0000000E+00 -2.9138382E+02  2.9138382E+02  0.0000000E+00  0.0000000E+00  1.0000000E+00
 39  2  1  2   0   0  1.5063506E-12 -2.2382096E-13  5.7898924E+02  1.1617569E+03  1.0071993E+03  0.0000000E+00  1.0000000E+00
 23  2  3  3   0   0  2.0351018E+02 -2.9613672E+01  8.0938761E+02  8.4024781E+02  9.2815495E+01  0.0000000E+00  1.0000000E+00
 23  2  3  3   0   0 -2.0351018E+02  2.9613672E+01 -2.3039837E+02  3.2150907E+02  8.9394107E+01  0.0000000E+00  1.0000000E+00
-11  1  4  4   0   0  1.6781479E+02 -1.1128812E+01  4.8403236E+02  5.1241875E+02  3.8146973E-06  0.0000000E+00  1.0000000E+00
 11  1  4  4   0   0  3.5695390E+01 -1.8484859E+01  3.2535525E+02  3.2782905E+02  5.3947966E-06  0.0000000E+00  1.0000000E+00
-13  1  5  5   0   0 -1.4394479E+02 -7.0897873E+00 -1.0642504E+02  1.7915540E+02  1.3486992E-06  0.0000000E+00  1.0000000E+00
 13  1  5  5   0   0 -5.9565392E+01  3.6703459E+01 -1.2397333E+02  1.4235367E+02  1.3486992E-06  0.0000000E+00  1.0000000E+00
</event>
<event>
9 100 1.0000000E+00 1.0000000E+03 7.8125000E-03 0.0000000E+00
 21 -1  0  0 501 502  0.0000000E+00  0.0000000E+00  4.7428050E+02  4.7428050E+02  0.0000000E+00  0.0000000E+00  1.0000000E+00
 21 -1  0  0 502 501  0.0000000E+00  0.0000000E+00 -4.6644213E+02  4.6644213E+02  0.0000000E+00  0.0000000E+00  1.0000000E+00
 39  2  1  2   0   0  1.9184654E-13  4.6895821E-13  7.8383702E+00  9.4072263E+02  9.4068998E+02  0.0000000E+00  1.0000000E+00
 23  2  3  3   0   0  2.6834004E+01  6.4687636E+01  4.5967902E+02  4.7436322E+02  9.3867520E+01  0.0000000E+00  1.0000000E+00
 23  2  3  3   0   0 -2.6834004E+01 -6.4687636E+01 -4.5184065E+02  4.6635941E+02  9.1796392E+01  0.0000000E+00  1.0000000E+00
-11  1  4  4   0   0  2.9816303E+01  6.4500915E+01  1.6477529E+02  1.7944435E+02  9.3440618E-06  0.0000000E+00  1.0000000E+00
 11  1  4  4   0   0 -2.9822991E+00  1.8672062E-01  2.9490373E+02  2.9491887E+02  7.1366451E-06  0.0000000E+00  1.0000000E+00
-13  1  5  5   0   0 -3.0473604E+01 -5.4555705E+01 -4.5127255E+02  4.5557862E+02  2.4564328E-06  0.0000000E+00  1.0000000E+00
 13  1  5  5   0   0  3.6396007E+00 -1.0131930E+01 -5.6809566E-01  1.0780790E+01  1.7892516E-05  0.0000000E+00  1.0000000E+00
</event>
<event>
9 100 1.0000000E+00 1.0000000E+03 7.8125000E-03 0.0000000E+00
 21 -1  0  0 501 502  0.0000000E+00  0.0000000E+00  7.4882510E+02  7.4882510E+02  0.0000000E+00  0.0000000E+00  1.0000000E+00
 21 -1  0  0 502 501  0.0000000E+00  0.0000000E+00 -3.3234952E+02  3.3234952E+02  0.0000000E+00  0.0000000E+00  1.0000000E+00
 39  2  1  2   0   0 -2.2737368E-13  4.5474735E-13  4.1647558E+02  1.0811746E+03  9.9774077E+02  0.0000000E+00  1.0000000E+00
 23  2  3  3   0   0  1.4512327E+02 -3.7763258E+02 -9.1931382E+01  4.2511536E+02  9.2760772E+01  0.0000000E+00  1.0000000E+00
 23  2  3  3   0   0 -1.4512327E+02  3.7763258E+02  5.0840696E+02  6.5605926E+02  9.0933951E+01  0.0000000E+00  1.0000000E+00
-11  1  4  4   0   0  8.7491352E+01 -1.3442446E+02 -4.9362833E+00  1.6046507E+02  1.0490417E-05  0.0000000E+00  1.0000000E+00
 11  1  4  4   0   0  5.7631914E+01 -2.4320813E+02 -8.6995099E+01  2.6465029E+02  2.5005552E-06  0.0000000E+00  1.0000000E+00
-13  1  5  5   0   0 -1.1303656E+02  3.0233146E+02  3.3996842E+02  4.6878577E+02  3.3036247E-06  0.0000000E+00  1.0000000E+00
 13  1  5  5   0   0 -3.2086703E+01  7.5301125E+01  1.6843855E+02  1.8727349E+02  1.3214499E-05  0.0000000E+00  1.0000000E+00
</event>
<event>
9 100 1.0000000E+00 1.0000000E+03 7.8125000E-03 0.0000000E+00
 21 -1  0  0 501 502  0.0000000E+00  0.0000000E+00  9.5903605E+02  9.5903605E+02  0.0000000E+00  0.0000000E+00  1.0000000E+00
 21 -1  0  0 502 501  0.0000000E+00  0.0000000E+00 -2.6206733E+02  2.6206733E+02  0.0000000E+00  0.0000000E+00  1.0000000E+00
 39  2  1  2   0   0 -1.4779289E-12 -5.1159077E-13  6.9696872E+02  1.2211034E+03  1.0026605E+03  0.0000000E+00  1.0000000E+00
 23  2  3  3   0   0 -3.2715610E+02 -1.0976054E+02 -8.0431905E+01  3.6577603E+02  9.0798234E+01  0.0000000E+00  1.0000000E+00
 23  2  3  3   0   0  3.2715610E+02  1.0976054E+02  7.7740062E+02  8.5532735E+02  9.0303115E+01  0.0000000E+00  1.0000000E+00
-11  1  4  4   0   0 -2.7323401E+02 -1.0770989E+02 -3.6037965E+01  2.9590029E+02  2.6973983E-06  0.0000000E+00  1.0000000E+00
 11  1  4  4   0   0 -5.3922092E+01 -2.0506506E+00 -4.4393940E+01  6.9875740E+01  5.6218272E-06  0.0000000E+00  1.0000000E+00
-13  1  5  5   0   0  1.3864022E+02  3.3046345E+01  2.2203166E+02  2.6383940E+02  7.6293945E-06  0.0000000E+00  1.0000000E+00
 13  1  5  5   0   0  1.8851588E+02  7.6714195E+01  5.5536896E+02  5.9148794E+02  3.8146973E-06  0.0000000E+00  1.0000000E+00
</event>
<event>
9 100 1.0000000E+00 1.0000000E+03 7.8125000E-03 0.0000000E+00
 21 -1  0  0 501 502  0.0000000E+00  0.0000000E+00  1.9191848E+02  1.9191848E+02  0.0000000E+00  0.0000000E+00  1.0000000E+00
 21 -1  0  0 502 501  0.0000000E+00  0.0000000E+00 -1.3512484E+03  1.3512484E+03  0.0000000E+00  0.0000000E+00  1.0000000E+00
 39  2  1  2   0   0 -4.0927262E-12  6.7075234E-12 -1.1593299E+03  1.5431669E+03  1.0184882E+03  0.0000000E+00  1.0000000E+00
 23  2  3  3   0   0  2.5985567E+02 -4.2597145E+02 -5.0966680E+02  7.1884000E+02  8.9409481E+01  0.0000000E+00  1.0000000E+00
 23  2  3  3   0   0 -2.5985567E+02  4.2597145E+02 -6.4966310E+02  8.2432686E+02  9.2065139E+01  0.0000000E+00  1.0000000E+00
-11  1  4  4   0   0  2.3984837E+01 -1.0438077E+02 -1.2696716E+02  1.6610623E+02  1.9451216E-05  0.0000000E+00  1.0000000E+00
 11  1  4  4   0   0  2.3587083E+02 -3.2159068E+02 -3.8269963E+02  5.5273377E+02  4.8628039E-06  0.0000000E+00  1.0000000E+00
-13  1  5  5   0   0 -6.5961604E+01  1.0706976E+02 -1.0375547E+02  1.6303393E+02  7.6293945E-06  0.0000000E+00  1.0000000E+00
 13  1  5  5   0   0 -1.9389406E+02  3.1890169E+02 -5.4590763E+02  6.6129293E+02  2.6973983E-06  0.0000000E+00  1.0000000E+00
</event>
<event>
9 100 1.0000000E+00 1.0000000E+03 7.8125000E-03 0.0000000E+00
 21 -1  0  0 501 502  0.0000000E+00  0.0000000E+00  7.9255782E+02  7.9255782E+02  0.0000000E+00  0.0000000E+00  1.0000000E+00
 21 -1  0  0 502 501  0.0000000E+00  0.0000000E+00 -3.0240384E+02  3.0240384E+02  0.0000000E+00  0.0000000E+00  1.0000000E+00
 39  2  1  2   0   0 -1.3358203E-12  2.1600499E-12  4.9015398E+02  1.0949617E+03  9.7912723E+02  0.0000000E+00  1.0000000E+00
 23  2  3  3   0   0 -1.6723911E+02  2.7176376E+02  6.4726114E+02  7.2763373E+02  9.3163241E+01  0.0000000E+00  1.0000000E+00
 23  2  3  3   0   0  1.6723911E+02 -2.7176376E+02 -1.5710717E+02  3.6732794E+02  9.1775207E+01  0.0000000E+00  1.0000000E+00
-11  1  4  4   0   0 -1.2934664E+02  1.6352452E+02  4.9416457E+02  5.3634825E+02  6.8770433E-06  0.0000000E+00  1.0000000E+00
 11  1  4  4   0   0 -3.7892469E+01  1.0823925E+02  1.5309658E+02  1.9128548E+02  1.6184390E-05  0.0000000E+00  1.0000000E+00
-13  1  5  5   0   0  7.5497276E+00 -4.6886961E+01  4.4283280E+00  4.7696913E+01  1.4273290E-05  0.0000000E+00  1.0000000E+00
 13  1  5  5   0   0  1.5968939E+02 -2.2487680E+02 -1.6153549E+02  3.1963102E+02  3.7569844E-06  0.0000000E+00  1.0000000E+00
</event>
<event>
9 100 1.0000000E+00 1.0000000E+03 7.8125000E-03 0.0000000E+00
 21 -1  0  0 501 502  0.0000000E+00  0.0000000E+00  1.7959475E+03  1.7959475E+03  0.0000000E+00  0.0000000E+00  1.0000000E+00
 21 -1  0  0 502 501  0.0000000E+00  0.0000000E+00 -1.4151306E+02  1.4151306E+02  0.0000000E+00  0.0000000E+00  1.0000000E+00
 39  2  1  2   0   0  3.6948222E-12 -4.6895821E-13  1.6544345E+03  1.9374606E+03  1.0082659E+03  0.0000000E+00  1.0000000E+00
 23  2  3  3   0   0 -4.0310592E+02  4.9988362E+01  2.7966226E+02  5.0104070E+02  8.8530124E+01  0.0000000E+00  1.0000000E+00
 23  2  3  3   0   0  4.0310592E+02 -4.9988362E+01  1.3747722E+03  1.4364199E+03  9.1160474E+01  0.0000000E+00  1.0000000E+00
-11  1  4  4   0   0  8.1302777E-01  1.3050920E-01  1.6203487E+01  1.6224396E+01  1.2063132E-05  0.0000000E+00  1.0000000E+00
 11  1  4  4   0   0 -4.0391895E+02  4.9857853E+01  2.6345878E+02  4.8481630E+02  2.3115539E-06  0.0000000E+00  1.0000000E+00
-13  1  5  5   0   0  7.0140446E+01 -1.5239668E+01  1.4353003E+02  1.6047678E+02  2.1579186E-05  0.0000000E+00  1.0000000E+00
 13  1  5  5   0   0  3.3296547E+02 -3.4748695E+01  1.2312422E+03  1.2759431E+03  3.3036247E-06  0.0000000E+00  1.0000000E+00
</event>
<event>
9 100 1.0000000E+00 1.0000000E+03 7.8125000E-03 0.0000000E+00
 21 -1  0  0 501 502  0.0000000E+00  0.0000000E+00  2.7215218E+02  2.7215218E+02  0.0000000E+00  0.0000000E+00  1.0000000E+00
 21 -1  0  0 502 501  0.0000000E+00  0.0000000E+00 -9.1994166E+02  9.1994166E+02  0.0000000E+00  0.0000000E+00  1.0000000E+00
 39  2  1  2   0   0  2.8421709E-13 -2.8421709E-13 -6.4778948E+02  1.1920938E+03  1.0007280E+03  0.0000000E+00  1.0000000E+00
 23  2  3  3   0   0 -2.7073025E+02  2.9396764E+02  2.2094715E+01  4.0690237E+02  7.3276999E+01  0.0000000E+00  1.0000000E+00
 23  2  3  3   0   0  2.7073025E+02 -2.9396764E+02 -6.6988419E+02  7.8519148E+02  8.9827495E+01  0.0000000E+00  1.0000000E+00
-11  1  4  4   0   0 -2.5681501E+02  2.6331345E+02  3.7804057E+01  3.6975272E+02  1.0254771E-06  0.0000000E+00  1.0000000E+00
 11  1  4  4   0   0 -1.3915237E+01  3.0654193E+01 -1.5709342E+01  3.7149654E+01  6.1250842E-06  0.0000000E+00  1.0000000E+00
-13  1  5  5   0   0 -3.1379541E+00 -2.5264383E+01 -5.1571700E+01  5.7513269E+01  1.8688124E-05  0.0000000E+00  1.0000000E+00
 13  1  5  5   0   0  2.7386820E+02 -2.6870326E+02 -6.1831249E+02  7.2767821E+02  2.3360155E-06  0.0000000E+00  1.0000000E+00
</event>
<event>
9 100 1.0000000E+00 1.0000000E+03 7.8125000E-03 0.0000000E+00
 21 -1  0  0 501 502  0.0000000E+00  0.0000000E+00  3.7632198E+02  3.7632198E+02  0.0000000E+00  0.0000000E+00  1.0000000E+00
 21 -1  0  0 502 501  0.0000000E+00  0.0000000E+00 -6.8456074E+02  6.8456074E+02  0.0000000E+00  0.0000000E+00  1.0000000E+00
 39  2  1  2   0   0 -1.0800250E-12  6.2527761E-13 -3.0823876E+02  1.0608827E+03  1.0151162E+03  0.0000000E+00  1.0000000E+00
 23  2  3  3   0   0  4.3159930E+02 -2.2840035E+02 -2.6231926E+02  5.6194083E+02  9.2311579E+01  0.0000000E+00  1.0000000E+00
 23  2  3  3   0   0 -4.3159930E+02  2.2840035E+02 -4.5919503E+01  4.9894189E+02  9.1595473E+01  0.0000000E+00  1.0000000E+00
-11  1  4  4   0   0  1.7713162E+02 -1.4460658E+02 -1.0978486E+02  2.5365210E+02  1.1284027E-05  0.0000000E+00  1.0000000E+00
 11  1  4  4   0   0  2.5446768E+02 -8.3793767E+01 -1.5253440E+02  3.0828873E+02  8.9462581E-06  0.0000000E+00  1.0000000E+00
-13  1  5  5   0   0 -1.7107186E+02  7.8148998E+01  2.5586150E+01  1.8980911E+02  1.0704968E-05  0.0000000E+00  1.0000000E+00
 13  1  5  5   0   0 -2.6052744E+02  1.5025135E+02 -7.1505653E+01  3.0913278E+02  7.8569684E-06  0.0000000E+00  1.0000000E+00
</event>
<event>
9 100 1.0000000E+00 1.0000000E+03 7.8125000E-03 0.0000000E+00
 21 -1  0  0 501 502  0.0000000E+00  0.0000000E+00  2.5552746E+02  2.5552746E+02  0.0000000E+00  0.0000000E+00  1.0000000E+00
 21 -1  0  0 502 501  0.0000000E+00  0.0000000E+00 -9.9260147E+02  9.9260147E+02  0.0000000E+00  0.0000000E+00  1.0000000E+00
 39  2  1  2   0   0 -1.1368684E-12  1.6484591E-12 -7.3707401E+02  1.2481289E+03  1.0072476E+03  0.0000000E+00  1.0000000E+00
 23  2  3  3   0   0 -1.8962920E+02  2.6542725E+02  9.2829941E+01  3.5115919E+02  9.1019352E+01  0.0000000E+00  1.0000000E+00
 23  2  3  3   0   0  1.8962920E+02 -2.6542725E+02 -8.2990395E+02  8.9696975E+02  9.6970615E+01  0.0000000E+00  1.0000000E+00
-11  1  4  4   0   0 -4.9701629E+01  7.4601359E+01  6.9408732E+01  1.1337190E+02  7.1525574E-06  0.0000000E+00  1.0000000E+00
 11  1  4  4   0   0 -1.3992757E+02  1.9082589E+02  2.3421209E+01  2.3778730E+02  3.4385216E-06  0.0000000E+00  1.0000000E+00
-13  1  5  5   0   0  6.5955995E+01 -1.1993547E+02 -4.7027884E+02  4.8979271E+02  8.5299224E-06  0.0000000E+00  1.0000000E+00
 13  1  5  5   0   0  1.2367321E+02 -1.4549178E+02 -3.5962511E+02  4.0717704E+02  9.3440618E-06  0.0000000E+00  1.0000000E+00
</event>
<event>
9 100 1.0000000E+00 1.0000000E+03 7.8125000E-03 0.0000000E+00
 21 -1  0  0 501 502  0.0000000E+00  0.0000000E+00  3.8560164E+02  3.8560164E+02  0.0000000E+00  0.0000000E+00  1.0000000E+00
 21 -1  0  0 502 501  0.0000000E+00  0.0000000E+00 -6.4737756E+02  6.4737756E+02  0.0000000E+00  0.0000000E+00  1.0000000E+00
 39  2  1  2   0   0  3.9790393E-13  1.5916157E-12 -2.6177592E+02  1.0329792E+03  9.9925942E+02  0.0000000E+00  1.0000000E+00
 23  2  3  3   0   0  1.0161618E+02  3.9677327E+02  1.5003482E+02  4.4547953E+02  9.0480295E+01  0.0000000E+00  1.0000000E+00
 23  2  3  3   0   0 -1.0161618E+02 -3.9677327E+02 -4.1181074E+02  5.8749966E+02  8.8390585E+01  0.0000000E+00  1.0000000E+00
-11  1  4  4   0   0  1.0568897E+02  3.9898013E+02  1.5276210E+02  4.4010403E+02  2.1881887E-06  0.0000000E+00  1.0000000E+00
 11  1  4  4   0   0 -4.0727940E+00 -2.2068538E+00 -2.7272829E+00  5.3754932E+00  2.0893957E-05  0.0000000E+00  1.0000000E+00
-13  1  5  5   0   0 -8.1661939E+01 -3.0266582E+02 -3.6298693E+02  4.7961941E+02  4.4731290E-06  0.0000000E+00  1.0000000E+00
 13  1  5  5   0   0 -1.9954241E+01 -9.4107455E+01 -4.8823807E+01  1.0788025E+02  1.9451216E-05  0.0000000E+00  1.0000000E+00
</event>
<event>
9 100 1.0000000E+00 1.0000000E+03 7.8125000E-03 0.0000000E+00
 21 -1  0  0 501 502  0.0000000E+00  0.0000000E+00  1.0785771E+03  1.0785771E+03  0.0000000E+00  0.0000000E+00  1.0000000E+00
 21 -1  0  0 502 501  0.0000000E+00  0.0000000E+00 -2.3095647E+02  2.3095647E+02  0.0000000E+00  0.0000000E+00  1.0000000E+00
 39  2  1  2   0   0  1.5347723E-12  1.3642421E-12  8.4762059E+02  1.3095335E+03  9.9820709E+02  0.0000000E+00  1.0000000E+00
 23  2  3  3   0   0 -1.5027030E+02 -1.3487343E+02 -1.6316892E+02  2.7481460E+02  9.0149660E+01  0.0000000E+00  1.0000000E+00
 23  2  3  3   0   0  1.5027030E+02  1.3487343E+02  1.0107895E+03  1.0347189E+03  9.0420181E+01  0.0000000E+00  1.0000000E+00
-11  1  4  4   0   0 -1.2250854E+02 -9.6205716E+01 -1.6534594E+02  2.2716330E+02  2.6398197E-06  0.0000000E+00  1.0000000E+00
 11  1  4  4   0   0 -2.7761757E+01 -3.8667718E+01  2.1770163E+00  4.7651306E+01  7.3871295E-06  0.0000000E+00  1.0000000E+00
-13  1  5  5   0   0  1.3595307E+01  5.1154079E+01  1.4827847E+02  1.5744230E+02  1.5258789E-05  0.0000000E+00  1.0000000E+00
 13  1  5  5   0   0  1.3667499E+02  8.3719355E+01  8.6251105E+02  8.7727663E+02  1.9073486E-06  0.0000000E+00  1.0000000E+00
</event>
<event>
9 100 1.0000000E+00 1.0000000E+03 7.8125000E-03 0.0000000E+00
 21 -1  0  0 501 502  0.0000000E+00  0.0000000E+00  8.9647941E+02  8.9647941E+02  0.0000000E+00  0.0000000E+00  1.0000000E+00
 21 -1  0  0 502 501  0.0000000E+00  0.0000000E+00 -2.7781414E+02  2.7781414E+02  0.0000000E+00  0.0000000E+00  1.0000000E+00
 39  2  1  2   0   0 -2.0605739E-13  2.0463631E-12  6.1866527E+02  1.1742936E+03  9.9810752E+02  0.0000000E+00  1.0000000E+00
 23  2  3  3   0   0  2.5579724E+01 -2.5741478E+02 -1.8150367E+02  3.2850128E+02  8.9737493E+01  0.0000000E+00  1.0000000E+00
 23  2  3  3   0   0 -2.5579724E+01  2.5741478E+02  8.0016894E+02  8.4579227E+02  9.0429787E+01  0.0000000E+00  1.0000000E+00
-11  1  4  4   0   0 -2.9426964E+00 -9.8507957E+01 -1.2108037E+02  1.5611833E+02  6.6072495E-06  0.0000000E+00  1.0000000E+00
 11  1  4  4   0   0  2.8522421E+01 -1.5890682E+02 -6.0423303E+01  1.7238295E+02  4.2649612E-06  0.0000000E+00  1.0000000E+00
-13  1  5  5   0   0 -5.5046132E+01  1.6999279E+02  4.6469071E+02  4.9786050E+02  9.3440618E-06  0.0000000E+00  1.0000000E+00
 13  1  5  5   0   0  2.9466408E+01  8.7421988E+01  3.3547823E+02  3.4793177E+02  0.0000000E+00  0.0000000E+00  1.0000000E+00
</event>
<event>
9 100 1.0000000E+00 1.0000000E+03 7.8125000E-03 0.0000000E+00
 21 -1  0  0 501 502  0.0000000E+00  0.0000000E+00  2.5316687E+03  2.5316687E+03  0.0000000E+00  0.0000000E+00  1.0000000E+00
 21 -1  0  0 502 501  0.0000000E+00  0.0000000E+00 -9.9090709E+01  9.9090709E+01  0.0000000E+00  0.0000000E+00  1.0000000E+00
 39  2  1  2   0   0 -1.1482371E-11  5.7696070E-12  2.4325780E+03  2.6307594E+03  1.0017282E+03  0.0000000E+00  1.0000000E+00
 23  2  3  3   0   0 -3.6816439E+02  1.8478166E+02  1.9278987E+03  1.9734979E+03  9.0616560E+01  0.0000000E+00  1.0000000E+00
 23  2  3  3   0   0  3.6816439E+02 -1.8478166E+02  5.0467928E+02  6.5726147E+02  8.7190540E+01  0.0000000E+00  1.0000000E+00
-11  1  4  4   0   0 -1.9509243E+02  1.3639824E+02  9.6123455E+02  9.9027137E+02  2.6428998E-05  0.0000000E+00  1.0000000E+00
 11  1  4  4   0   0 -1.7307197E+02  4.8383418E+01  9.6666415E+02  9.8322654E+02  1.5258789E-05  0.0000000E+00  1.0000000E+00
-13  1  5  5   0   0  1.4635466E+02 -3.1088141E+01  2.0786317E+02  2.5611181E+02  1.1444092E-05  0.0000000E+00  1.0000000E+00
 13  1  5  5   0   0  2.2180973E+02 -1.5369352E+02  2.9681610E+02  4.0114967E+02  3.8146973E-06  0.0000000E+00  1.0000000E+00
</event>
<event>
9 100 1.0000000E+00 1.0000000E+03 7.8125000E-03 0.0000000E+00
 21 -1  0  0 501 502  0.0000000E+00  0.0000000E+00  8.2864088E+02  8.2864088E+02  0.0000000E+00  0.0000000E+00  1.0000000E+00
 21 -1  0  0 502 501  0.0000000E+00  0.0000000E+00 -2.9534589E+02  2.9534589E+02  0.0000000E+00  0.0000000E+00  1.0000000E+00
 39  2  1  2   0   0 -2.8421709E-13  2.5579538E-13  5.3329498E+02  1.1239868E+03  9.8941534E+02  0.0000000E+00  1.0000000E+00
 23  2  3  3   0   0  3.1815750E+02 -2.3700658E+02  5.8876635E+02  7.1519379E+02  8.6371483E+01  0.0000000E+00  1.0000000E+00
 23  2  3  3   0   0 -3.1815750E+02  2.3700658E+02 -5.5471367E+01  4.0879298E+02  8.1475865E+01  0.0000000E+00  1.0000000E+00
-11  1  4  4   0   0  1.4072804E+02 -1.5708101E+02  2.8802763E+02  3.5698563E+02  1.2063132E-05  0.0000000E+00  1.0000000E+00
 11  1  4  4   0   0  1.7742946E+02 -7.9925569E+01  3.0073871E+02  3.5820816E+02  5.3947966E-06  0.0000000E+00  1.0000000E+00
-13  1  5  5   0   0 -2.6217737E+02  1.5289143E+02 -3.3051228E+01  3.0529518E+02  2.1191107E-06  0.0000000E+00  1.0000000E+00
 13  1  5  5   0   0 -5.5980132E+01  8.4115141E+01 -2.2420139E+01  1.0349780E+02  4.6231078E-06  0.0000000E+00  1.0000000E+00
</event>
<event>
9 100 1.0000000E+00 1.0000000E+03 7.8125000E-03 0.0000000E+00
 21 -1  0  0 501 502  0.0000000E+00  0.0000000E+00  5.5623940E+02  5.5623940E+02  0.0000000E+00  0.0000000E+00  1.0000000E+00
 21 -1  0  0 502 501  0.0000000E+00  0.0000000E+00 -4.4820410E+02  4.4820410E+02  0.0000000E+00  0.0000000E+00  1.0000000E+00
 39  2  1  2   0   0 -9.9475983E-13 -1.0658141E-13  1.0803530E+02  1.0044435E+03  9.9861660E+02  0.0000000E+00  1.0000000E+00
 23  2  3  3   0   0 -2.0305073E+02 -2.2333397E+01 -3.9493040E+02  4.5352105E+02  8.9347317E+01  0.0000000E+00  1.0000000E+00
 23  2  3  3   0   0  2.0305073E+02  2.2333397E+01  5.0296571E+02  5.5092244E+02  9.3875741E+01  0.0000000E+00  1.0000000E+00
-11  1  4  4   0   0 -1.4805966E+02 -5.5570845E+01 -2.9498075E+02  3.3469900E+02  6.6072495E-06  0.0000000E+00  1.0000000E+00
 11  1  4  4   0   0 -5.4991078E+01  3.3237448E+01 -9.9949652E+01  1.1882205E+02  1.4273290E-05  0.0000000E+00  1.0000000E+00
-13  1  5  5   0   0  2.8160810E+00 -8.8731998E+00  9.4412686E+01  9.4870540E+01  1.5258789E-05  0.0000000E+00  1.0000000E+00
 13  1  5  5   0   0  2.0023465E+02  3.1206597E+01  4.0855302E+02  4.5605190E+02  1.9073486E-06  0.0000000E+00  1.0000000E+00
</event>
<event>
9 100 1.0000000E+00 1.0000000E+03 7.8125000E-03 0.0000000E+00
 21 -1  0  0 501 502  0.0000000E+00  0.0000000E+00  4.4770975E+02  4.4770975E+02  0.0000000E+00  0.0000000E+00  1.0000000E+00
 21 -1  0  0 502 501  0.0000000E+00  0.0000000E+00 -5.6680406E+02  5.6680406E+02  0.0000000E+00  0.0000000E+00  1.0000000E+00
 39  2  1  2   0   0  4.2632564E-14 -3.9790393E-13 -1.1909432E+02  1.0145138E+03  1.0074993E+03  0.0000000E+00  1.0000000E+00
 23  2  3  3   0   0 -4.3681322E+01  4.1367130E+02 -3.3044592E+02  5.3891828E+02  9.0589232E+01  0.0000000E+00  1.0000000E+00
 23  2  3  3   0   0  4.3681322E+01 -4.1367130E+02  2.1135160E+02  4.7559553E+02  9.2139036E+01  0.0000000E+00  1.0000000E+00
-11  1  4  4   0   0 -3.2406435E+01  4.1262079E+02 -3.1700238E+02  5.2134116E+02  1.7520116E-06  0.0000000E+00  1.0000000E+00
 11  1  4  4   0   0 -1.1274887E+01  1.0505103E+00 -1.3443540E+01  1.7577127E+01  1.0092740E-05  0.0000000E+00  1.0000000E+00
-13  1  5  5   0   0  4.5921881E+01 -3.6408128E+02  2.1586795E+02  4.2574989E+02  2.3046273E-06  0.0000000E+00  1.0000000E+00
 13  1  5  5   0   0 -2.2405593E+00 -4.9590023E+01 -4.5163423E+00  4.9845640E+01  6.6072495E-06  0.0000000E+00  1.0000000E+00
</event>
<event>
9 100 1.0000000E+00 1.0000000E+03 7.8125000E-03 0.0000000E+00
 21 -1  0  0 501 502  0.0000000E+00  0.0000000E+00  3.4072903E+02  3.4072903E+02  0.0000000E+00  0.0000000E+00  1.0000000E+00
 21 -1  0  0 502 501  0.0000000E+00  0.0000000E+00 -7.1950218E+02  7.1950218E+02  0.0000000E+00  0.0000000E+00  1.0000000E+00
 39  2  1  2   0   0 -1.0658141E-13 -7.1054274E-15 -3.7877316E+02  1.0602312E+03  9.9026315E+02  0.0000000E+00  1.0000000E+00
 23  2  3  3   0   0  2.9804847E+01  1.8550484E+00  3.3082280E+02  3.4412229E+02  8.9914709E+01  0.0000000E+00  1.0000000E+00
 23  2  3  3   0   0 -2.9804847E+01 -1.8550484E+00 -7.0959596E+02  7.1610892E+02  9.1617680E+01  0.0000000E+00  1.0000000E+00
-11  1  4  4   0   0  2.0947645E+01 -1.2196339E+01  3.2589715E+02  3.2679735E+02  1.5622786E-06  0.0000000E+00  1.0000000E+00
 11  1  4  4   0   0  8.8572017E+00  1.4051388E+01  4.9256487E+00  1.7324940E+01  6.6072495E-06  0.0000000E+00  1.0000000E+00
-13  1  5  5   0   0  1.0230834E+01 -2.4230208E+01 -5.3319080E+02  5.3383912E+02  7.1366451E-06  0.0000000E+00  1.0000000E+00
 13  1  5  5   0   0 -4.0035680E+01  2.2375160E+01 -1.7640516E+02  1.8226981E+02  1.8688124E-05  0.0000000E+00  1.0000000E+00
</event>
<event>
9 100 1.0000000E+00 1.0000000E+03 7.8125000E-03 0.0000000E+00
 21 -1  0  0 501 502  0.0000000E+00  0.0000000E+00  9.8945358E+02  9.8945358E+02  0.0000000E+00  0.0000000E+00  1.0000000E+00
 21 -1  0  0 502 501  0.0000000E+00  0.0000000E+00 -2.5709382E+02  2.5709382E+02  0.0000000E+00  0.0000000E+00  1.0000000E+00
 39  2  1  2   0   0  1.0089707E-12  1.6200374E-12  7.3235977E+02  1.2465474E+03  1.0087267E+03  0.0000000E+00  1.0000000E+00
 23  2  3  3   0   0  1.1123047E+02  1.7896934E+02  9.2113516E+02  9.4936252E+02  9.1634941E+01  0.0000000E+00  1.0000000E+00
 23  2  3  3   0   0 -1.1123047E+02 -1.7896934E+02 -1.8877539E+02  2.9718488E+02  9.0997052E+01  0.0000000E+00  1.0000000E+00
-11  1  4  4   0   0  1.9086194E+01  2.7890720E+01  4.9445852E+01  5.9892131E+01  2.6428998E-05  0.0000000E+00  1.0000000E+00
 11  1  4  4   0   0  9.2144279E+01  1.5107862E+02  8.7168931E+02  8.8947039E+02  4.0460975E-06  0.0000000E+00  1.0000000E+00
-13  1  5  5   0   0  9.6017292E+00 -3.2419205E+01 -7.5187594E+00  3.4637116E+01  1.3754087E-05  0.0000000E+00  1.0000000E+00
 13  1  5  5   0   0 -1.2083220E+02 -1.4655013E+02 -1.8125663E+02  2.6254777E+02  3.2340670E-06  0.0000000E+00  1.0000000E+00
</event>
<event>
9 100 1.0000000E+00 1.0000000E+03 7.8125000E-03 0.0000000E+00
 21 -1  0  0 501 502  0.0000000E+00  0.0000000E+00  7.6193999E+02  7.6193999E+02  0.0000000E+00  0.0000000E+00  1.0000000E+00
 21 -1  0  0 502 501  0.0000000E+00  0.0000000E+00 -3.3163135E+02  3.3163135E+02  0.0000000E+00  0.0000000E+00  1.0000000E+00
 39  2  1  2   0   0 -1.6484591E-12 -3.2684966E-13  4.3030864E+02  1.0935713E+03  1.0053521E+03  0.0000000E+00  1.0000000E+00
 23  2  3  3   0   0 -3.4804803E+02 -5.4631583E+01  2.4461827E+02  6.8516988E+02  5.3431978E+02  0.0000000E+00  1.0000000E+00
 23  2  3  3   0   0  3.4804803E+02  5.4631583E+01  1.8569037E+02  4.0840146E+02  9.0492015E+01  0.0000000E+00  1.0000000E+00
-11  1  4  4   0   0 -4.7791241E+02  6.5317819E+00  1.1462334E+02  4.9150936E+02  1.9073486E-06  0.0000000E+00  1.0000000E+00
 11  1  4  4   0   0  1.2986439E+02 -6.1163365E+01  1.2999493E+02  1.9366052E+02  2.9425142E-05  0.0000000E+00  1.0000000E+00
-13  1  5  5   0   0  1.9376851E+02  2.0334085E+01  1.5124132E+02  2.4664478E+02  3.3036247E-06  0.0000000E+00  1.0000000E+00
 13  1  5  5   0   0  1.5427951E+02  3.4297499E+01  3.4449042E+01  1.6175668E+02  5.3947966E-06  0.0000000E+00  1.0000000E+00
</event>
<event>
9 100 1.0000000E+00 1.0000000E+03 7.8125000E-03 0.0000000E+00
 21 -1  0  0 501 502  0.0000000E+00  0.0000000E+00  8.2035701E+02  8.2035701E+02  0.0000000E+00  0.0000000E+00  1.0000000E+00
 21 -1  0  0 502 501  0.0000000E+00  0.0000000E+00 -3.0619626E+02  3.0619626E+02  0.0000000E+00  0.0000000E+00  1.0000000E+00
 39  2  1  2   0   0  1.5347723E-12  1.7621460E-12  5.1416075E+02  1.1265533E+03  1.0023777E+03  0.0000000E+00  1.0000000E+00
 23  2  3  3   0   0 -2.7896556E+02 -3.0857419E+02  5.5402259E+02  6.9893266E+02  9.2336417E+01  0.0000000E+00  1.0000000E+00
 23  2  3  3   0   0  2.7896556E+02  3.0857419E+02 -3.9861844E+01  4.2762061E+02  9.0722660E+01  0.0000000E+00  1.0000000E+00
-11  1  4  4   0   0 -2.7606440E+02 -3.1071411E+02  5.2463870E+02  6.6932845E+02  1.5451290E-06  0.0000000E+00  1.0000000E+00
 11  1  4  4   0   0 -2.9011508E+00  2.1399119E+00  2.9383893E+01  2.9604207E+01  7.6293945E-06  0.0000000E+00  1.0000000E+00
-13  1  5  5   0   0  2.8020903E+02  2.7652502E+02 -3.6244324E+01  3.9534395E+02  4.1023414E-06  0.0000000E+00  1.0000000E+00
 13  1  5  5   0   0 -1.2434784E+00  3.2049179E+01 -3.6175194E+00  3.2276657E+01  2.0066858E-05  0.0000000E+00  1.0000000E+00
</event>
<event>
9 100 1.0000000E+00 1.0000000E+03 7.8125000E-03 0.0000000E+00
 21 -1  0  0 501 502  0.0000000E+00  0.0000000E+00  1.1129480E+03  1.1129480E+03  0.0000000E+00  0.0000000E+00  1.0000000E+00
 21 -1  0  0 502 501  0.0000000E+00  0.0000000E+00 -2.2489948E+02  2.2489948E+02  0.0000000E+00  0.0000000E+00  1.0000000E+00
 39  2  1  2   0   0 -3.9790393E-12  2.3590019E-12  8.8804848E+02  1.3378474E+03  1.0006026E+03  0.0000000E+00  1.0000000E+00
 23  2  3  3   0   0  3.8768911E+02 -2.3028062E+02  1.7545207E+02  4.8999780E+02  7.7346051E+01  0.0000000E+00  1.0000000E+00
 23  2  3  3   0   0 -3.8768911E+02  2.3028062E+02  7.1259641E+02  8.4784963E+02  8.7882561E+01  0.0000000E+00  1.0000000E+00
-11  1  4  4   0   0  1.2213995E+02 -3.6495697E+01  3.2703614E+01  1.3160407E+02  3.3036247E-06  0.0000000E+00  1.0000000E+00
 11  1  4  4   0   0  2.6554916E+02 -1.9378492E+02  1.4274845E+02  3.5839374E+02  3.0157830E-06  0.0000000E+00  1.0000000E+00
-13  1  5  5   0   0 -1.0201155E+02  3.3656020E+01  1.1853594E+02  1.5996829E+02  7.6293945E-06  0.0000000E+00  1.0000000E+00
 13  1  5  5   0   0 -2.8567756E+02  1.9662460E+02  5.9406047E+02  6.8788134E+02  6.1805160E-06  0.0000000E+00  1.0000000E+00
</event>
<event>
9 100 1.0000000E+00 1.0000000E+03 7.8125000E-03 0.0000000E+00
 21 -1  0  0 501 502  0.0000000E+00  0.0000000E+00  1.0277617E+03  1.0277617E+03  0.0000000E+00  0.0000000E+00  1.0000000E+00
 21 -1  0  0 502 501  0.0000000E+00  0.0000000E+00 -2.1738686E+02  2.1738686E+02  0.0000000E+00  0.0000000E+00  1.0000000E+00
 39  2  1  2   0   0  9.0949470E-13 -1.0800250E-12  8.1037485E+02  1.2451486E+03  9.4535051E+02  0.0000000E+00  1.0000000E+00
 23  2  3  3   0   0  1.9117101E+02 -2.3024444E+02  8.7152625E+02  9.2598015E+02  9.1227031E+01  0.0000000E+00  1.0000000E+00
 23  2  3  3   0   0 -1.9117101E+02  2.3024444E+02 -6.1151398E+01  3.1916843E+02  9.2575024E+01  0.0000000E+00  1.0000000E+00
-11  1  4  4   0   0  2.0128422E+01 -1.0079820E+01  2.0487277E+01  3.0438210E+01  2.1579186E-05  0.0000000E+00  1.0000000E+00
 11  1  4  4   0   0  1.7104259E+02 -2.2016462E+02  8.5103897E+02  8.9554194E+02  2.9873762E-06  0.0000000E+00  1.0000000E+00
-13  1  5  5   0   0 -1.4661665E+01  7.0508547E+01  4.7043352E+00  7.2170287E+01  1.4273290E-05  0.0000000E+00  1.0000000E+00
 13  1  5  5   0   0 -1.7650934E+02  1.5973590E+02 -6.5855733E+01  2.4699814E+02  5.0379149E-06  0.0000000E+00  1.0000000E+00
</event>
<event>
9 100 1.0000000E+00 1.0000000E+03 7.8125000E-03 0.0000000E+00
 21 -1  0  0 501 502  0.0000000E+00  0.0000000E+00  5.1622400E+02  5.1622400E+02  0.0000000E+00  0.0000000E+00  1.0000000E+00
 21 -1  0  0 502 501  0.0000000E+00  0.0000000E+00 -4.8170872E+02  4.8170872E+02  0.0000000E+00  0.0000000E+00  1.0000000E+00
 39  2  1  2   0   0 -2.2737368E-13 -1.4210855E-12  3.4515285E+01  9.9793272E+02  9.9733565E+02  0.0000000E+00  1.0000000E+00
 23  2  3  3   0   0 -8.3327084E+01 -4.7301542E+02 -8.0587349E+01  4.9572463E+02  9.2528921E+01  0.0000000E+00  1.0000000E+00
 23  2  3  3   0   0  8.3327084E+01  4.7301542E+02  1.1510263E+02  5.0220809E+02  9.0979980E+01  0.0000000E+00  1.0000000E+00
-11  1  4  4   0   0 -1.6044268E+01 -9.3481505E+01 -5.4499734E+01  1.0939118E+02  1.7962273E-05  0.0000000E+00  1.0000000E+00
 11  1  4  4   0   0 -6.7282816E+01 -3.7953391E+02 -2.6087614E+01  3.8633345E+02  6.0691462E-06  0.0000000E+00  1.0000000E+00
-13  1  5  5   0   0  4.6351248E+01  1.9900952E+02  9.3982298E+01  2.2491310E+02  1.3045658E-05  0.0000000E+00  1.0000000E+00
 13  1  5  5   0   0  3.6975836E+01  2.7400590E+02  2.1120336E+01  2.7729499E+02  7.6293945E-06  0.0000000E+00  1.0000000E+00
</event>
<event>
9 100 1.0000000E+00 1.0000000E+03 7.8125000E-03 0.0000000E+00
 21 -1  0  0 501 502  0.0000000E+00  0.0000000E+00  3.0084441E+02  3.0084441E+02  0.0000000E+00  0.0000000E+00  1.0000000E+00
 21 -1  0  0 502 501  0.0000000E+00  0.0000000E+00 -8.4430353E+02  8.4430353E+02  0.0000000E+00  0.0000000E+00  1.0000000E+00
 39  2  1  2   0   0  4.8316906E-13  2.2737368E-13 -5.4345912E+02  1.1451479E+03  1.0079762E+03  0.0000000E+00  1.0000000E+00
 23  2  3  3   0   0 -1.6569966E+02 -7.3234805E+01 -7.9617121E+02  8.2148719E+02  9.0182576E+01  0.0000000E+00  1.0000000E+00
 23  2  3  3   0   0  1.6569966E+02  7.3234805E+01  2.5271208E+02  3.2366075E+02  8.9850815E+01  0.0000000E+00  1.0000000E+00
-11  1  4  4   0   0 -1.7224631E+02 -6.5624615E+01 -7.8549799E+02  8.0683485E+02  5.0576218E-07  0.0000000E+00  1.0000000E+00
 11  1  4  4   0   0  6.5466450E+00 -7.6101897E+00 -1.0673219E+01  1.4652343E+01  1.5258789E-05  0.0000000E+00  1.0000000E+00
-13  1  5  5   0   0 -2.3854288E-01  2.8135409E+00  5.8933117E+01  5.9000721E+01  4.6720309E-06  0.0000000E+00  1.0000000E+00
 13  1  5  5   0   0  1.6593821E+02  7.0421264E+01  1.9377897E+02  2.6466003E+02  1.7841613E-06  0.0000000E+00  1.0000000E+00
</event>
<event>
9 100 1.0000000E+00 1.0000000E+03 7.8125000E-03 0.0000000E+00
 21 -1  0  0 501 502  0.0000000E+00  0.0000000E+00  2.5561592E+02  2.5561592E+02  0.0000000E+00  0.0000000E+00  1.0000000E+00
 21 -1  0  0 502 501  0.0000000E+00  0.0000000E+00 -9.6469361E+02  9.6469361E+02  0.0000000E+00  0.0000000E+00  1.0000000E+00
 39  2  1  2   0   0 -1.4566126E-13  2.0463631E-12 -7.0907769E+02  1.2203095E+03  9.9315868E+02  0.0000000E+00  1.0000000E+00
 23  2  3  3   0   0  2.6693297E+01 -3.9318162E+02 -6.8172458E+00  4.0984398E+02  1.1234452E+02  0.0000000E+00  1.0000000E+00
 23  2  3  3   0   0 -2.6693297E+01  3.9318162E+02 -7.0226044E+02  8.1046555E+02  9.1544267E+01  0.0000000E+00  1.0000000E+00
-11  1  4  4   0   0  2.4970657E+01 -7.7810997E+01 -4.3099289E+01  9.2388493E+01  1.3836496E-05  0.0000000E+00  1.0000000E+00
 11  1  4  4   0   0  1.7226401E+00 -3.1537062E+02  3.6282043E+01  3.1745549E+02  5.6821705E-06  0.0000000E+00  1.0000000E+00
-13  1  5  5   0   0 -2.1827044E+01  3.2542823E+02 -6.4001783E+02  7.1833333E+02  5.1797774E-06  0.0000000E+00  1.0000000E+00
 13  1  5  5   0   0 -4.8662523E+00  6.7753389E+01 -6.2242618E+01  9.2132218E+01  2.5303839E-05  0.0000000E+00  1.0000000E+00
</event>
<event>
9 100 1.0000000E+00 1.0000000E+03 7.8125000E-03 0.0000000E+00
 21 -1  0  0 501 502  0.0000000E+00  0.0000000E+00  4.1052250E+02  4.1052250E+02  0.0000000E+00  0.0000000E+00  1.0000000E+00
 21 -1  0  0 502 501  0.0000000E+00  0.0000000E+00 -6.1758216E+02  6.1758216E+02  0.0000000E+00  0.0000000E+00  1.0000000E+00
 39  2  1  2   0   0  2.2737368E-13  2.2737368E-13 -2.0705966E+02  1.0281047E+03  1.0070380E+03  0.0000000E+00  1.0000000E+00
 23  2  3  3   0   0 -2.9882939E+02 -3.8101486E+02 -2.0906589E+02  5.3534322E+02  9.1719607E+01  0.0000000E+00  1.0000000E+00
 23  2  3  3   0   0  2.9882939E+02  3.8101486E+02  2.0062349E+00  4.9276144E+02  9.1315285E+01  0.0000000E+00  1.0000000E+00
-11  1  4  4   0   0 -5.1135001E+01 -4.7460286E+01 -6.5716576E+01  9.5843286E+01  1.3214499E-05  0.0000000E+00  1.0000000E+00
 11  1  4  4   0   0 -2.4769438E+02 -3.3355458E+02 -1.4334931E+02  4.3949993E+02  3.5683226E-06  0.0000000E+00  1.0000000E+00
-13  1  5  5   0   0  1.3698451E+02  1.0425789E+02  1.7329153E+00  1.7215535E+02  1.3641385E-05  0.0000000E+00  1.0000000E+00
 13  1  5  5   0   0  1.6184488E+02  2.7675697E+02  2.7331953E-01  3.2060608E+02  7.9875784E-06  0.0000000E+00  1.0000000E+00
</event>
<event>
9 100 1.0000000E+00 1.0000000E+03 7.8125000E-03 0.0000000E+00
 21 -1  0  0 501 502  0.0000000E+00  0.0000000E+00  6.5683517E+02  6.5683517E+02  0.0000000E+00  0.0000000E+00  1.0000000E+00
 21 -1  0  0 502 501  0.0000000E+00  0.0000000E+00 -3.8108740E+02  3.8108740E+02  0.0000000E+00  0.0000000E+00  1.0000000E+00
 39  2  1  2   0   0  4.6185278E-14  1.5347723E-12  2.7574777E+02  1.0379226E+03  1.0006230E+03  0.0000000E+00  1.0000000E+00
 23  2  3  3   0   0  1.1012556E+01  3.3002097E+02 -2.4071474E+02  4.1884579E+02  9.1940673E+01  0.0000000E+00  1.0000000E+00
 23  2  3  3   0   0 -1.1012556E+01 -3.3002097E+02  5.1646251E+02  6.1907679E+02  8.6529908E+01  0.0000000E+00  1.0000000E+00
-11  1  4  4   0   0 -5.6514141E+00  2.2342494E+01  6.3407940E+00  2.3902535E+01  1.7271776E-05  0.0000000E+00  1.0000000E+00
 11  1  4  4   0   0  1.6663971E+01  3.0767848E+02 -2.4705554E+02  3.9494325E+02  3.0462581E-06  0.0000000E+00  1.0000000E+00
-13  1  5  5   0   0  1.5823007E+01 -9.0140248E+01  8.6145641E+01  1.2568494E+02  2.4126264E-05  0.0000000E+00  1.0000000E+00
 13  1  5  5   0   0 -2.6835563E+01 -2.3988072E+02  4.3031687E+02  4.9339185E+02  7.9790118E-06  0.0000000E+00  1.0000000E+00
</event>
<event>
9 100 1.0000000E+00 1.0000000E+03 7.8125000E-03 0.0000000E+00
 21 -1  0  0 501 502  0.0000000E+00  0.0000000E+00  4.7645491E+02  4.7645491E+02  0.0000000E+00  0.0000000E+00  1.0000000E+00
 21 -1  0  0 502 501  0.0000000E+00  0.0000000E+00 -5.4691927E+02  5.4691927E+02  0.0000000E+00  0.0000000E+00  1.0000000E+00
 39  2  1  2   0   0 -5.1159077E-13 -9.9475983E-14 -7.0464359E+01  1.0233742E+03  1.0209454E+03  0.0000000E+00  1.0000000E+00
 23  2  3  3   0   0 -4.3680513E+02 -1.2106054E+02 -2.5210853E+02  5.2662485E+02  9.1217570E+01  0.0000000E+00  1.0000000E+00
 23  2  3  3   0   0  4.3680513E+02  1.2106054E+02  1.8164417E+02  4.9674934E+02  9.1164269E+01  0.0000000E+00  1.0000000E+00
-11  1  4  4   0   0 -2.6951895E+01 -1.2383279E+01  5.9526484E+00  3.0252013E+01  2.1579186E-05  0.0000000E+00  1.0000000E+00
 11  1  4  4   0   0 -4.0985324E+02 -1.0867726E+02 -2.5806118E+02  4.9637284E+02  2.8931287E-06  0.0000000E+00  1.0000000E+00
-13  1  5  5   0   0  4.0255805E+02  1.0510382E+02  1.9103988E+02  4.5781659E+02  9.3865488E-07  0.0000000E+00  1.0000000E+00
 13  1  5  5   0   0  3.4247081E+01  1.5956720E+01 -9.3957075E+00  3.8932747E+01  1.2651920E-05  0.0000000E+00  1.0000000E+00
</event>
<event>
9 100 1.0000000E+00 1.0000000E+03 7.8125000E-03 0.0000000E+00
 21 -1  0  0 501 502  0.0000000E+00  0.0000000E+00  5.7431121E+02  5.7431121E+02  0.0000000E+00  0.0000000E+00  1.0000000E+00
 21 -1  0  0 502 501  0.0000000E+00  0.0000000E+00 -4.3407788E+02  4.3407788E+02  0.0000000E+00  0.0000000E+00  1.0000000E+00
 39  2  1  2   0   0  1.0231815E-12 -5.4001248E-13  1.4023333E+02  1.0083891E+03  9.9859059E+02  0.0000000E+00  1.0000000E+00
 23  2  3  3   0   0  4.3383360E+02 -2.1282750E+02 -1.6859287E+01  4.9212022E+02  9.1602044E+01  0.0000000E+00  1.0000000E+00
 23  2  3  3   0   0 -4.3383360E+02  2.1282750E+02  1.5709262E+02  5.1626887E+02  9.1369140E+01  0.0000000E+00  1.0000000E+00
-11  1  4  4   0   0  2.7054472E+02 -1.0561869E+02 -4.7829071E+01  2.9434227E+02  1.1478809E-05  0.0000000E+00  1.0000000E+00
 11  1  4  4   0   0  1.6328888E+02 -1.0720882E+02  3.0969785E+01  1.9777795E+02  1.6939468E-05  0.0000000E+00  1.0000000E+00
-13  1  5  5   0   0  1.1487855E-01  1.0415819E+01  1.2096486E+01  1.5963316E+01  1.7166138E-05  0.0000000E+00  1.0000000E+00
 13  1  5  5   0   0 -4.3394848E+02  2.0241168E+02  1.4499613E+02  5.0030556E+02  2.8857514E-06  0.0000000E+00  1.0000000E+00
</event>
<event>
9 100 1.0000000E+00 1.0000000E+03 7.8125000E-03 0.0000000E+00
 21 -1  0  0 501 502  0.0000000E+00  0.0000000E+00  4.2846623E+02  4.2846623E+02  0.0000000E+00  0.0000000E+00  1.0000000E+00
 21 -1  0  0 502 501  0.0000000E+00  0.0000000E+00 -8.0369953E+02  8.0369953E+02  0.0000000E+00  0.0000000E+00  1.0000000E+00
 39  2  1  2   0   0  8.5265128E-14  1.7053026E-13 -3.7523330E+02  1.2321658E+03  1.1736407E+03  0.0000000E+00  1.0000000E+00
 23  2  3  3   0   0 -2.1108489E+02 -4.2735547E+02 -5.3369605E+02  7.2160032E+02  9.3198850E+01  0.0000000E+00  1.0000000E+00
 23  2  3  3   0   0  2.1108489E+02  4.2735547E+02  1.5846275E+02  5.1056544E+02  9.1526466E+01  0.0000000E+00  1.0000000E+00
-11  1  4  4   0   0 -4.4343779E+01 -1.5555160E+02 -1.3231789E+02  2.0897535E+02  1.3214499E-05  0.0000000E+00  1.0000000E+00
 11  1  4  4   0   0 -1.6674111E+02 -2.7180387E+02 -4.0137816E+02  5.1262498E+02  3.8146973E-06  0.0000000E+00  1.0000000E+00
-13  1  5  5   0   0  3.9671478E+01  5.6812709E+01 -7.8176155E+00  6.9732526E+01  6.3259598E-06  0.0000000E+00  1.0000000E+00
 13  1  5  5   0   0  1.7141341E+02  3.7054276E+02  1.6628036E+02  4.4083291E+02  2.4314020E-06  0.0000000E+00  1.0000000E+00
</event>
<event>
9 100 1.0000000E+00 1.0000000E+03 7.8125000E-03 0.0000000E+00
 21 -1  0  0 501 502  0.0000000E+00  0.0000000E+00  1.1197684E+02  1.1197684E+02  0.0000000E+00  0.0000000E+00  1.0000000E+00
 21 -1  0  0 502 501  0.0000000E+00  0.0000000E+00 -2.2404818E+03  2.2404818E+03  0.0000000E+00  0.0000000E+00  1.0000000E+00
 39  2  1  2   0   0 -2.4868996E-13 -9.4928509E-12 -2.1285050E+03  2.3524587E+03  1.0017626E+03  0.0000000E+00  1.0000000E+00
 23  2  3  3   0   0  1.1715876E+01  4.7288543E+02 -7.3762075E+02  8.8097954E+02  9.1009357E+01  0.0000000E+00  1.0000000E+00
 23  2  3  3   0   0 -1.1715876E+01 -4.7288543E+02 -1.3908842E+03  1.4714791E+03  8.3270332E+01  0.0000000E+00  1.0000000E+00
-11  1  4  4   0   0  4.3294732E+01  1.3128538E+02 -2.2856269E+02  2.6711643E+02  9.3440618E-06  0.0000000E+00  1.0000000E+00
 11  1  4  4   0   0 -3.1578855E+01  3.4160005E+02 -5.0905806E+02  6.1386312E+02  1.2361032E-05  0.0000000E+00  1.0000000E+00
-13  1  5  5   0   0 -4.3268874E+01 -1.7083750E+02 -5.3926990E+02  5.6733559E+02  1.8688124E-05  0.0000000E+00  1.0000000E+00
 13  1  5  5   0   0  3.1552997E+01 -3.0204792E+02 -8.5161433E+02  9.0414352E+02  1.3214499E-05  0.0000000E+00  1.0000000E+00
</event>
<event>
9 100 1.0000000E+00 1.0000000E+03 7.8125000E-03 0.0000000E+00
 21 -1  0  0 501 502  0.0000000E+00  0.0000000E+00  1.5358195E+03  1.5358195E+03  0.0000000E+00  0.0000000E+00  1.0000000E+00
 21 -1  0  0 502 501  0.0000000E+00  0.0000000E+00 -1.6220583E+02  1.6220583E+02  0.0000000E+00  0.0000000E+00  1.0000000E+00
 39  2  1  2   0   0 -2.1600499E-12 -4.8316906E-13  1.3736137E+03  1.6980254E+03  9.9823622E+02  0.0000000E+00  1.0000000E+00
 23  2  3  3   0   0  3.6829308E+02  8.2290821E+01  1.5335431E+02  4.1742764E+02  9.1196036E+01  0.0000000E+00  1.0000000E+00
 23  2  3  3   0   0 -3.6829308E+02 -8.2290821E+01  1.2202594E+03  1.2805977E+03  9.2119459E+01  0.0000000E+00  1.0000000E+00
-11  1  4  4   0   0  1.9299661E+02  8.5772613E+01  1.0320386E+02  2.3506525E+02  1.1543005E-05  0.0000000E+00  1.0000000E+00
 11  1  4  4   0   0  1.7529647E+02 -3.4817922E+00  5.0150455E+01  1.8236240E+02  1.3554259E-05  0.0000000E+00  1.0000000E+00
-13  1  5  5   0   0 -3.6811199E+02 -6.8631324E+01  1.1664002E+03  1.2250331E+03  2.3360155E-06  0.0000000E+00  1.0000000E+00
 13  1  5  5   0   0 -1.8109559E-01 -1.3659497E+01  5.3859229E+01  5.5564658E+01  3.0517578E-05  0.0000000E+00  1.0000000E+00
</event>
<event>
9 100 1.0000000E+00 1.0000000E+03 7.8125000E-03 0.0000000E+00
 21 -1  0  0 501 502  0.0000000E+00  0.0000000E+00  1.3247999E+03  1.3247999E+03  0.0000000E+00  0.0000000E+00  1.0000000E+00
 21 -1  0  0 502 501  0.0000000E+00  0.0000000E+00 -1.8756211E+02  1.8756211E+02  0.0000000E+00  0.0000000E+00  1.0000000E+00
 39  2  1  2   0   0  1.0800250E-12 -3.1263880E-13  1.1372378E+03  1.5123620E+03  9.9695991E+02  0.0000000E+00  1.0000000E+00
 23  2  3  3   0   0 -4.4801077E+02  1.4721545E+02  3.6393353E+02  6.0207211E+02  8.7505276E+01  0.0000000E+00  1.0000000E+00
 23  2  3  3   0   0  4.4801077E+02 -1.4721545E+02  7.7330424E+02  9.1028988E+02  9.0786471E+01  0.0000000E+00  1.0000000E+00
-11  1  4  4   0   0 -4.3754143E+02  1.5459183E+02  3.4121976E+02  5.7599658E+02  1.9073486E-06  0.0000000E+00  1.0000000E+00
 11  1  4  4   0   0 -1.0469345E+01 -7.3763776E+00  2.2713769E+01  2.6075534E+01  1.2651920E-05  0.0000000E+00  1.0000000E+00
-13  1  5  5   0   0  2.8922874E+02 -1.0465477E+02  4.1967936E+02  5.2032360E+02  8.5299224E-06  0.0000000E+00  1.0000000E+00
 13  1  5  5   0   0  1.5878203E+02 -4.2560685E+01  3.5362488E+02  3.8996628E+02  1.3214499E-05  0.0000000E+00  1.0000000E+00
</event>
<event>
9 100 1.0000000E+00 1.0000000E+03 7.8125000E-03 0.0000000E+00
 21 -1  0  0 501 502  0.0000000E+00  0.0000000E+00  1.3360544E+03  1.3360544E+03  0.0000000E+00  0.0000000E+00  1.0000000E+00
 21 -1  0  0 502 501  0.0000000E+00  0.0000000E+00 -1.8507751E+02  1.8507751E+02  0.0000000E+00  0.0000000E+00  1.0000000E+00
 39  2  1  2   0   0  2.9558578E-12 -2.6716407E-12  1.1509769E+03  1.5211319E+03  9.9453228E+02  0.0000000E+00  1.0000000E+00
 23  2  3  3   0   0  3.2893509E+02 -3.0036230E+02  8.8445753E+02  9.9418187E+02  8.7844533E+01  0.0000000E+00  1.0000000E+00
 23  2  3  3   0   0 -3.2893509E+02  3.0036230E+02  2.6651932E+02  5.2695000E+02  9.0708005E+01  0.0000000E+00  1.0000000E+00
-11  1  4  4   0   0  1.6350135E+02 -9.1266796E+01  3.7722552E+02  4.2114299E+02  2.1579186E-05  0.0000000E+00  1.0000000E+00
 11  1  4  4   0   0  1.6543374E+02 -2.0909551E+02  5.0723201E+02  5.7303888E+02  1.7059845E-05  0.0000000E+00  1.0000000E+00
-13  1  5  5   0   0 -9.5281048E+01  8.0608609E+01  2.9836804E+01  1.2832171E+02  1.7892516E-05  0.0000000E+00  1.0000000E+00
 13  1  5  5   0   0 -2.3365404E+02  2.1975370E+02  2.3668251E+02  3.9862829E+02  7.2158556E-06  0.0000000E+00  1.0000000E+00
</event>
<event>
9 100 1.0000000E+00 1.0000000E+03 7.8125000E-03 0.0000000E+00
 21 -1  0  0 501 502  0.0000000E+00  0.0000000E+00  1.8432253E+03  1.8432253E+03  0.0000000E+00  0.0000000E+00  1.0000000E+00
 21 -1  0  0 502 501  0.0000000E+00  0.0000000E+00 -1.2477525E+02  1.2477525E+02  0.0000000E+00  0.0000000E+00  1.0000000E+00
 39  2  1  2   0   0 -3.8369308E-12 -6.1390892E-12  1.7184500E+03  1.9680005E+03  9.5914314E+02  0.0000000E+00  1.0000000E+00
 23  2  3  3   0   0 -2.4479931E+02 -3.9309340E+02  1.0261828E+03  1.1297383E+03  9.3852841E+01  0.0000000E+00  1.0000000E+00
 23  2  3  3   0   0  2.4479931E+02  3.9309340E+02  6.9226716E+02  8.3826217E+02  9.4871073E+01  0.0000000E+00  1.0000000E+00
-11  1  4  4   0   0 -1.3919704E+02 -2.4488410E+02  7.2561967E+02  7.7837519E+02  0.0000000E+00  0.0000000E+00  1.0000000E+00
 11  1  4  4   0   0 -1.0560226E+02 -1.4820930E+02  3.0056317E+02  3.5136314E+02  2.1579186E-05  0.0000000E+00  1.0000000E+00
-13  1  5  5   0   0  2.1506113E+02  3.8635488E+02  6.4507541E+02  7.8207651E+02  9.5367432E-07  0.0000000E+00  1.0000000E+00
 13  1  5  5   0   0  2.9738181E+01  6.7385195E+00  4.7191746E+01  5.6185656E+01  3.1456800E-05  0.0000000E+00  1.0000000E+00
</event>
<event>
9 100 1.0000000E+00 1.0000000E+03 7.8125000E-03 0.0000000E+00
 21 -1  0  0 501 502  0.0000000E+00  0.0000000E+00  8.2703845E+01  8.2703845E+01  0.0000000E+00  0.0000000E+00  1.0000000E+00
 21 -1  0  0 502 501  0.0000000E+00  0.0000000E+00 -3.0108696E+03  3.0108696E+03  0.0000000E+00  0.0000000E+00  1.0000000E+00
 39  2  1  2   0   0 -5.7269745E-12 -2.6147973E-11 -2.9281658E+03  3.0935735E+03  9.9801903E+02  0.0000000E+00  1.0000000E+00
 23  2  3  3   0   0 -7.9183169E+01 -3.6152181E+02 -4.5651396E+02  5.9268516E+02  7.6829123E+01  0.0000000E+00  1.0000000E+00
 23  2  3  3   0   0  7.9183169E+01  3.6152181E+02 -2.4716518E+03  2.5008883E+03  9.1714930E+01  0.0000000E+00  1.0000000E+00
-11  1  4  4   0   0 -3.5699115E+01 -1.2766050E+02 -2.2255031E+02  2.5903719E+02  1.1757687E-05  0.0000000E+00  1.0000000E+00
 11  1  4  4   0   0 -4.3484054E+01 -2.3386131E+02 -2.3396366E+02  3.3364797E+02  8.9462581E-06  0.0000000E+00  1.0000000E+00
-13  1  5  5   0   0  7.7453993E+01  2.2937837E+02 -1.8144719E+03  1.8305524E+03  2.2888184E-05  0.0000000E+00  1.0000000E+00
 13  1  5  5   0   0  1.7291758E+00  1.3214344E+02 -6.5717989E+02  6.7033595E+02  3.0517578E-05  0.0000000E+00  1.0000000E+00
</event>
<event>
9 100 1.0000000E+00 1.0000000E+03 7.8125000E-03 0.0000000E+00
 21 -1  0  0 501 502  0.0000000E+00  0.0000000E+00  5.5332592E+02  5.5332592E+02  0.0000000E+00  0.0000000E+00  1.0000000E+00
 21 -1  0  0 502 501  0.0000000E+00  0.0000000E+00 -4.6419102E+02  4.6419102E+02  0.0000000E+00  0.0000000E+00  1.0000000E+00
 39  2  1  2   0   0  1.4210855E-12 -5.9685590E-13  8.9134897E+01  1.0175169E+03  1.0136053E+03  0.0000000E+00  1.0000000E+00
 23  2  3  3   0   0 -3.5069485E+02  1.4158791E+02  3.7060170E+02  5.3725933E+02  9.0928282E+01  0.0000000E+00  1.0000000E+00
 23  2  3  3   0   0  3.5069485E+02 -1.4158791E+02 -2.8146681E+02  4.8025761E+02  9.1595844E+01  0.0000000E+00  1.0000000E+00
-11  1  4  4   0   0 -5.1235942E+01 -1.0882118E+01  6.0195673E+01  7.9793868E+01  1.7059845E-05  0.0000000E+00  1.0000000E+00
 11  1  4  4   0   0 -2.9945891E+02  1.5247003E+02  3.1040603E+02  4.5746546E+02  4.1019083E-06  0.0000000E+00  1.0000000E+00
-13  1  5  5   0   0  1.0022635E+02 -6.6191216E+00 -4.3990554E+01  1.0965538E+02  8.9462581E-06  0.0000000E+00  1.0000000E+00
 13  1  5  5   0   0  2.5046850E+02 -1.3496879E+02 -2.3747625E+02  3.7060223E+02  2.8210067E-06  0.0000000E+00  1.0000000E+00
</event>
<event>
9 100 1.0000000E+00 1.0000000E+03 7.8125000E-03 0.0000000E+00
 21 -1  0  0 501 502  0.0000000E+00  0.0000000E+00  7.9459330E+02  7.9459330E+02  0.0000000E+00  0.0000000E+00  1.0000000E+00
 21 -1  0  0 502 501  0.0000000E+00  0.0000000E+00 -3.0577133E+02  3.0577133E+02  0.0000000E+00  0.0000000E+00  1.0000000E+00
 39  2  1  2   0   0  4.2632564E-14 -3.4106051E-13  4.8882198E+02  1.1003646E+03  9.8582727E+02  0.0000000E+00  1.0000000E+00
 23  2  3  3   0   0  6.1410598E+01 -4.2309085E+02  5.0025385E+02  6.6435376E+02  9.1295537E+01  0.0000000E+00  1.0000000E+00
 23  2  3  3   0   0 -6.1410598E+01  4.2309085E+02 -1.1431870E+01  4.3601088E+02  8.4839090E+01  0.0000000E+00  1.0000000E+00
-11  1  4  4   0   0  4.4474726E+01 -4.1357770E+02  4.6349264E+02  6.2277600E+02  1.9073486E-06  0.0000000E+00  1.0000000E+00
 11  1  4  4   0   0  1.6935872E+01 -9.5131482E+00  3.6761208E+01  4.1577760E+01  2.2888184E-05  0.0000000E+00  1.0000000E+00
-13  1  5  5   0   0 -3.8701385E+01  3.9006954E+02  6.6571034E+00  3.9204127E+02  1.7520116E-06  0.0000000E+00  1.0000000E+00
 13  1  5  5   0   0 -2.2709213E+01  3.3021305E+01 -1.8088974E+01  4.3969602E+01  6.8173749E-06  0.0000000E+00  1.0000000E+00
</event>
<event>
9 100 1.0000000E+00 1.0000000E+03 7.8125000E-03 0.0000000E+00
 21 -1  0  0 501 502  0.0000000E+00  0.0000000E+00  1.5185474E+03  1.5185474E+03  0.0000000E+00  0.0000000E+00  1.0000000E+00
 21 -1  0  0 502 501  0.0000000E+00  0.0000000E+00 -1.6735741E+02  1.6735741E+02  0.0000000E+00  0.0000000E+00  1.0000000E+00
 39  2  1  2   0   0  5.6843419E-13  4.2632564E-14  1.3511899E+03  1.6859048E+03  1.0082463E+03  0.0000000E+00  1.0000000E+00
 23  2  3  3   0   0  2.4313460E+02  2.3930808E+01  1.3972196E+03  1.4213758E+03  9.1647611E+01  0.0000000E+00  1.0000000E+00
 23  2  3  3   0   0 -2.4313460E+02 -2.3930808E+01 -4.6029679E+01  2.6452900E+02  9.0386649E+01  0.0000000E+00  1.0000000E+00
-11  1  4  4   0   0  2.1159539E+02  3.8154747E+01  1.3103017E+03  1.3278248E+03  4.4731290E-06  0.0000000E+00  1.0000000E+00
 11  1  4  4   0   0  3.1539206E+01 -1.4223938E+01  8.6917964E+01  9.3550919E+01  4.5776367E-05  0.0000000E+00  1.0000000E+00
-13  1  5  5   0   0 -4.8335670E+01 -2.5540720E+01  2.0927743E+01  5.8537473E+01  1.2212990E-05  0.0000000E+00  1.0000000E+00
 13  1  5  5   0   0 -1.9479893E+02  1.6099120E+00 -6.6957422E+01  2.0599153E+02  5.3947966E-06  0.0000000E+00  1.0000000E+00
</event>
<event>
9 100 1.0000000E+00 1.0000000E+03 7.8125000E-03 0.0000000E+00
 21 -1  0  0 501 502  0.0000000E+00  0.0000000E+00  1.5840898E+02  1.5840898E+02  0.0000000E+00  0.0000000E+00  1.0000000E+00
 21 -1  0  0 502 501  0.0000000E+00  0.0000000E+00 -1.5765796E+03  1.5765796E+03  0.0000000E+00  0.0000000E+00  1.0000000E+00
 39  2  1  2   0   0 -7.8159701E-14 -6.3948846E-13 -1.4181707E+03  1.7349886E+03  9.9948863E+02  0.0000000E+00  1.0000000E+00
 23  2  3  3   0   0 -9.7307107E+00 -8.4892671E+01  1.2948156E+02  1.8233183E+02  9.5801721E+01  0.0000000E+00  1.0000000E+00
 23  2  3  3   0   0  9.7307107E+00  8.4892671E+01 -1.5476522E+03  1.5526568E+03  9.0632531E+01  0.0000000E+00  1.0000000E+00
-11  1  4  4   0   0  1.7462904E+01 -9.5596353E+01  8.4988746E+01  1.2909958E+02  6.6927284E-06  0.0000000E+00  1.0000000E+00
 11  1  4  4   0   0 -2.7193615E+01  1.0703682E+01  4.4492818E+01  5.3232249E+01  1.1834787E-05  0.0000000E+00  1.0000000E+00
-13  1  5  5   0   0 -1.5588989E+01  3.9306556E+01 -1.2320684E+03  1.2327938E+03  9.3440618E-06  0.0000000E+00  1.0000000E+00
 13  1  5  5   0   0  2.5319700E+01  4.5586115E+01 -3.1558384E+02  3.1986300E+02  4.5776367E-05  0.0000000E+00  1.0000000E+00
</event>
<event>
9 100 1.0000000E+00 1.0000000E+03 7.8125000E-03 0.0000000E+00
 21 -1  0  0 501 502  0.0000000E+00  0.0000000E+00  4.1368533E+02  4.1368533E+02  0.0000000E+00  0.0000000E+00  1.0000000E+00
 21 -1  0  0 502 501  0.0000000E+00  0.0000000E+00 -6.2408572E+02  6.2408572E+02  0.0000000E+00  0.0000000E+00  1.0000000E+00
 39  2  1  2   0   0  1.3073986E-12  1.1937118E-12 -2.1040039E+02  1.0377710E+03  1.0162187E+03  0.0000000E+00  1.0000000E+00
 23  2  3  3   0   0 -3.2532006E+02 -3.0460481E+02 -3.3653026E+02  5.6577469E+02  9.0725713E+01  0.0000000E+00  1.0000000E+00
 23  2  3  3   0   0  3.2532006E+02  3.0460481E+02  1.2612987E+02  4.7199635E+02  9.0854734E+01  0.0000000E+00  1.0000000E+00
-11  1  4  4   0   0  7.3551267E-01  3.9761747E+00 -9.6120808E+00  1.0427993E+01  1.8688124E-05  0.0000000E+00  1.0000000E+00
 11  1  4  4   0   0 -3.2605557E+02 -3.0858098E+02 -3.2691818E+02  5.5534670E+02  1.4841437E-06  0.0000000E+00  1.0000000E+00
-13  1  5  5   0   0  2.6660048E+01 -1.4718494E+00  1.2677566E+01  2.9557489E+01  1.9073486E-05  0.0000000E+00  1.0000000E+00
 13  1  5  5   0   0  2.9866001E+02  3.0607665E+02  1.1345230E+02  4.4243886E+02  2.5118956E-06  0.0000000E+00  1.0000000E+00
</event>
<event>
9 100 1.0000000E+00 1.0000000E+03 7.8125000E-03 0.0000000E+00
 21 -1  0  0 501 502  0.0000000E+00  0.0000000E+00  6.7733152E+02  6.7733152E+02  0.0000000E+00  0.0000000E+00  1.0000000E+00
 21 -1  0  0 502 501  0.0000000E+00  0.0000000E+00 -3.5686408E+02  3.5686408E+02  0.0000000E+00  0.0000000E+00  1.0000000E+00
 39  2  1  2   0   0 -6.8212103E-13  3.9790393E-13  3.2046744E+02  1.0341956E+03  9.8329098E+02  0.0000000E+00  1.0000000E+00
 23  2  3  3   0   0 -3.2602762E+02  1.7895821E+02 -1.6492417E+02  4.1588985E+02  8.6280549E+01  0.0000000E+00  1.0000000E+00
 23  2  3  3   0   0  3.2602762E+02 -1.7895821E+02  4.8539161E+02  6.1830575E+02  9.1525543E+01  0.0000000E+00  1.0000000E+00
-11  1  4  4   0   0 -2.4160784E+02  1.7242717E+02 -1.3502495E+02  3.2609388E+02  2.3115539E-06  0.0000000E+00  1.0000000E+00
 11  1  4  4   0   0 -8.4419777E+01  6.5310418E+00 -2.9899223E+01  8.9795973E+01  7.3871295E-06  0.0000000E+00  1.0000000E+00
-13  1  5  5   0   0  2.1914740E+02 -1.6569661E+02  3.6358885E+02  4.5571680E+02  3.8146973E-06  0.0000000E+00  1.0000000E+00
 13  1  5  5   0   0  1.0688023E+02 -1.3261602E+01  1.2180276E+02  1.6258895E+02  1.2063132E-05  0.0000000E+00  1.0000000E+00
</event>
<event>
9 100 1.0000000E+00 1.0000000E+03 7.8125000E-03 0.0000000E+00
 21 -1  0  0 501 502  0.0000000E+00  0.0000000E+00  3.3599662E+02  3.3599662E+02  0.0000000E+00  0.0000000E+00  1.0000000E+00
 21 -1  0  0 502 501  0.0000000E+00  0.0000000E+00 -7.5169806E+02  7.5169806E+02  0.0000000E+00  0.0000000E+00  1.0000000E+00
 39  2  1  2   0   0  2.8421709E-14 -5.6843419E-14 -4.1570145E+02  1.0876947E+03  1.0051229E+03  0.0000000E+00  1.0000000E+00
 23  2  3  3   0   0 -6.6563969E+01  3.2693306E+02 -6.0310164E+02  6.9462853E+02  8.6378315E+01  0.0000000E+00  1.0000000E+00
 23  2  3  3   0   0  6.6563969E+01 -3.2693306E+02  1.8740019E+02  3.9306616E+02  8.9811919E+01  0.0000000E+00  1.0000000E+00
-11  1  4  4   0   0 -4.3712871E+01  2.0394370E+02 -4.5661445E+02  5.0199662E+02  5.3947966E-06  0.0000000E+00  1.0000000E+00
 11  1  4  4   0   0 -2.2851098E+01  1.2298936E+02 -1.4648719E+02  1.9263190E+02  7.6293945E-06  0.0000000E+00  1.0000000E+00
-13  1  5  5   0   0 -1.3997842E+01 -7.1048800E+00  8.7086522E+00  1.7951588E+01  9.9108742E-06  0.0000000E+00  1.0000000E+00
 13  1  5  5   0   0  8.0561811E+01 -3.1982818E+02  1.7869154E+02  3.7511457E+02  6.9510363E-07  0.0000000E+00  1.0000000E+00
</event>
<event>
9 100 1.0000000E+00 1.0000000E+03 7.8125000E-03 0.0000000E+00
 21 -1  0  0 501 502  0.0000000E+00  0.0000000E+00  1.1052784E+03  1.1052784E+03  0.0000000E+00  0.0000000E+00  1.0000000E+00
 21 -1  0  0 502 501  0.0000000E+00  0.0000000E+00 -2.2564656E+02  2.2564656E+02  0.0000000E+00  0.0000000E+00  1.0000000E+00
 39  2  1  2   0   0  6.8212103E-13  9.6633812E-13  8.7963186E+02  1.3309250E+03  9.9880384E+02  0.0000000E+00  1.0000000E+00
 23  2  3  3   0   0  2.2338630E+02  3.1466349E+02  8.4436361E+02  9.3289497E+02  9.1807268E+01  0.0000000E+00  1.0000000E+00
 23  2  3  3   0   0 -2.2338630E+02 -3.1466349E+02  3.5268253E+01  3.9803002E+02  9.0936784E+01  0.0000000E+00  1.0000000E+00
-11  1  4  4   0   0  5.9202884E+01  2.6515483E+01  1.4800794E+02  1.6159952E+02  2.9548518E-05  0.0000000E+00  1.0000000E+00
 11  1  4  4   0   0  1.6418341E+02  2.8814800E+02  6.9635566E+02  7.7129545E+02  7.6293945E-06  0.0000000E+00  1.0000000E+00
-13  1  5  5   0   0 -2.1337284E+02 -2.4128694E+02  3.4790697E+01  3.2397183E+02  5.1340069E-06  0.0000000E+00  1.0000000E+00
 13  1  5  5   0   0 -1.0013460E+01 -7.3376548E+01  4.7755594E-01  7.4058188E+01  1.5273683E-05  0.0000000E+00  1.0000000E+00
</event>
<event>
9 100 1.0000000E+00 1.0000000E+03 7.8125000E-03 0.0000000E+00
 21 -1  0  0 501 502  0.0000000E+00  0.0000000E+00  2.3665852E+02  2.3665852E+02  0.0000000E+00  0.0000000E+00  1.0000000E+00
 21 -1  0  0 502 501  0.0000000E+00  0.0000000E+00 -9.9729130E+02  9.9729130E+02  0.0000000E+00  0.0000000E+00  1.0000000E+00
 39  2  1  2   0   0 -4.6185278E-14 -4.4408921E-14 -7.6063278E+02  1.2339498E+03  9.7163262E+02  0.0000000E+00  1.0000000E+00
 23  2  3  3   0   0 -1.0946695E+01 -1.3820053E+01  2.2508116E+02  2.4336840E+02  9.0861552E+01  0.0000000E+00  1.0000000E+00
 23  2  3  3   0   0  1.0946695E+01  1.3820053E+01 -9.8571394E+02  9.9058143E+02  9.6481977E+01  0.0000000E+00  1.0000000E+00
-11  1  4  4   0   0  1.8358696E+01  5.4807761E+00  4.0673984E+00  1.9586331E+01  4.6720309E-06  0.0000000E+00  1.0000000E+00
 11  1  4  4   0   0 -2.9305392E+01 -1.9300829E+01  2.2101377E+02  2.2378206E+02  1.7781775E-06  0.0000000E+00  1.0000000E+00
-13  1  5  5   0   0  2.3756856E+01  3.4849673E+01 -1.9613472E+02  2.0061833E+02  0.0000000E+00  0.0000000E+00  1.0000000E+00
 13  1  5  5   0   0 -1.2810161E+01 -2.1029620E+01 -7.8957923E+02  7.8996310E+02  3.8146973E-06  0.0000000E+00  1.0000000E+00
</event>
<event>
9 100 1.0000000E+00 1.0000000E+03 7.8125000E-03 0.0000000E+00
 21 -1  0  0 501 502  0.0000000E+00  0.0000000E+00  2.4941605E+02  2.4941605E+02  0.0000000E+00  0.0000000E+00  1.0000000E+00
 21 -1  0  0 502 501  0.0000000E+00  0.0000000E+00 -9.6200024E+02  9.6200024E+02  0.0000000E+00  0.0000000E+00  1.0000000E+00
 39  2  1  2   0   0 -3.0695446E-12  7.8159701E-14 -7.1258419E+02  1.2114163E+03  9.7966994E+02  0.0000000E+00  1.0000000E+00
 23  2  3  3   0   0 -4.0106831E+02  1.0430514E+01 -6.8541423E+02  7.9927150E+02  8.9875879E+01  0.0000000E+00  1.0000000E+00
 23  2  3  3   0   0  4.0106831E+02 -1.0430514E+01 -2.7169959E+01  4.1214479E+02  9.0335686E+01  0.0000000E+00  1.0000000E+00
-11  1  4  4   0   0 -3.6253254E+02  3.4484532E+01 -6.2929840E+02  7.2707325E+02  2.8610229E-06  0.0000000E+00  1.0000000E+00
 11  1  4  4   0   0 -3.8535767E+01 -2.4054018E+01 -5.6115829E+01  7.2198251E+01  2.0185481E-05  0.0000000E+00  1.0000000E+00
-13  1  5  5   0   0  1.5917551E+02  4.3688621E+00  3.2599169E+01  1.6253810E+02  6.7434958E-06  0.0000000E+00  1.0000000E+00
 13  1  5  5   0   0  2.4189281E+02 -1.4799376E+01 -5.9769127E+01  2.4960669E+02  4.6720309E-06  0.0000000E+00  1.0000000E+00
</event>
<event>
9 100 1.0000000E+00 1.0000000E+03 7.8125000E-03 0.0000000E+00
 21 -1  0  0 501 502  0.0000000E+00  0.0000000E+00  1.1174658E+03  1.1174658E+03  0.0000000E+00  0.0000000E+00  1.0000000E+00
 21 -1  0  0 502 501  0.0000000E+00  0.0000000E+00 -2.2298959E+02  2.2298959E+02  0.0000000E+00  0.0000000E+00  1.0000000E+00
 39  2  1  2   0   0 -1.1102230E-14 -1.0800250E-12  8.9447620E+02  1.3404554E+03  9.9836515E+02  0.0000000E+00  1.0000000E+00
 23  2  3  3   0   0 -3.2227898E+00 -3.0444563E+02 -6.9617156E+01  3.2533961E+02  9.1114122E+01  0.0000000E+00  1.0000000E+00
 23  2  3  3   0   0  3.2227898E+00  3.0444563E+02  9.6409336E+02  1.0151158E+03  9.1030289E+01  0.0000000E+00  1.0000000E+00
-11  1  4  4   0   0  2.1108299E+01 -2.3966174E+02 -8.3672963E+01  2.5472431E+02  3.9067196E-06  0.0000000E+00  1.0000000E+00
 11  1  4  4   0   0 -2.4331089E+01 -6.4783893E+01  1.4055807E+01  7.0615298E+01  8.9462581E-06  0.0000000E+00  1.0000000E+00
-13  1  5  5   0   0 -3.3447755E-01  2.7722386E+02  9.3448392E+02  9.7473759E+02  1.2157010E-06  0.0000000E+00  1.0000000E+00
 13  1  5  5   0   0  3.5572673E+00  2.7221774E+01  2.9609440E+01  4.0378187E+01  3.4119690E-05  0.0000000E+00  1.0000000E+00
</event>
<event>
9 100 1.0000000E+00 1.0000000E+03 7.8125000E-03 0.0000000E+00
 21 -1  0  0 501 502  0.0000000E+00  0.0000000E+00  1.7140499E+02  1.7140499E+02  0.0000000E+00  0.0000000E+00  1.0000000E+00
 21 -1  0  0 502 501  0.0000000E+00  0.0000000E+00 -1.4578125E+03  1.4578125E+03  0.0000000E+00  0.0000000E+00  1.0000000E+00
 39  2  1  2   0   0 -1.5987212E-14 -1.3073986E-12 -1.2864075E+03  1.6292175E+03  9.9975265E+02  0.0000000E+00  1.0000000E+00
 23  2  3  3   0   0 -1.8216800E+00 -1.6612662E+02  1.0756633E+02  2.1736113E+02  8.9855298E+01  0.0000000E+00  1.0000000E+00
 23  2  3  3   0   0  1.8216800E+00  1.6612662E+02 -1.3939739E+03  1.4118564E+03  1.5024628E+02  0.0000000E+00  1.0000000E+00
-11  1  4  4   0   0  1.2609757E+01 -9.0455218E+01  8.2948252E+00  9.1705816E+01  5.0463701E-06  0.0000000E+00  1.0000000E+00
 11  1  4  4   0   0 -1.4431437E+01 -7.5671401E+01  9.9271502E+01  1.2565532E+02  5.1687916E-06  0.0000000E+00  1.0000000E+00
-13  1  5  5   0   0  2.7407415E+01  1.8786383E+01 -5.2898363E+01  6.2468643E+01  3.7376247E-05  0.0000000E+00  1.0000000E+00
 13  1  5  5   0   0 -2.5585735E+01  1.4734024E+02 -1.3410755E+03  1.3493877E+03  3.9320999E-06  0.0000000E+00  1.0000000E+00
</event>
<event>
9 100 1.0000000E+00 1.0000000E+03 7.8125000E-03 0.0000000E+00
 21 -1  0  0 501 502  0.0000000E+00  0.0000000E+00  1.5113036E+02  1.5113036E+02  0.0000000E+00  0.0000000E+00  1.0000000E+00
 21 -1  0  0 502 501  0.0000000E+00  0.0000000E+00 -1.6809992E+03  1.6809992E+03  0.0000000E+00  0.0000000E+00  1.0000000E+00
 39  2  1  2   0   0  5.0022209E-12 -1.5560886E-12 -1.5298688E+03  1.8321295E+03  1.0080675E+03  0.0000000E+00  1.0000000E+00
 23  2  3  3   0   0  1.6689372E+02 -5.1968485E+01 -1.6142970E+03  1.6263550E+03  9.2312352E+01  0.0000000E+00  1.0000000E+00
 23  2  3  3   0   0 -1.6689372E+02  5.1968485E+01  8.4428205E+01  2.0577451E+02  6.8269973E+01  0.0000000E+00  1.0000000E+00
-11  1  4  4   0   0  3.4942304E+01 -5.4786430E+01 -4.6961244E+02  4.7408687E+02  4.5776367E-05  0.0000000E+00  1.0000000E+00
 11  1  4  4   0   0  1.3195142E+02  2.8179448E+00 -1.1446846E+03  1.1522682E+03  2.0893957E-05  0.0000000E+00  1.0000000E+00
-13  1  5  5   0   0 -2.7914813E+00 -1.1283565E+01  7.3695093E+00  1.3763026E+01  1.3687801E-05  0.0000000E+00  1.0000000E+00
 13  1  5  5   0   0 -1.6410224E+02  6.3252051E+01  7.7058695E+01  1.9201149E+02  3.0706517E-06  0.0000000E+00  1.0000000E+00
</event>
<event>
9 100 1.0000000E+00 1.0000000E+03 7.8125000E-03 0.0000000E+00
 21 -1  0  0 501 502  0.0000000E+00  0.0000000E+00  1.0274383E+03  1.0274383E+03  0.0000000E+00  0.0000000E+00  1.0000000E+00
 21 -1  0  0 502 501  0.0000000E+00  0.0000000E+00 -2.5226658E+02  2.5226658E+02  0.0000000E+00  0.0000000E+00  1.0000000E+00
 39  2  1  2   0   0  4.6043169E-12 -2.9558578E-12  7.7517177E+02  1.2797049E+03  1.0182109E+03  0.0000000E+00  1.0000000E+00
 23  2  3  3   0   0 -3.6846103E+02  2.3978875E+02  8.4163437E+01  4.5564923E+02  8.5267563E+01  0.0000000E+00  1.0000000E+00
 23  2  3  3   0   0  3.6846103E+02 -2.3978875E+02  6.9100833E+02  8.2405570E+02  9.1176257E+01  0.0000000E+00  1.0000000E+00
-11  1  4  4   0   0 -3.5133466E+02  2.4092043E+02  6.6753768E+01  4.3120153E+02  2.1720966E-06  0.0000000E+00  1.0000000E+00
 11  1  4  4   0   0 -1.7126373E+01 -1.1316748E+00  1.7409669E+01  2.4447697E+01  1.0271387E-05  0.0000000E+00  1.0000000E+00
-13  1  5  5   0   0  6.9950627E+01 -7.6332002E+01  2.1797518E+02  2.4131482E+02  1.0789593E-05  0.0000000E+00  1.0000000E+00
 13  1  5  5   0   0  2.9851041E+02 -1.6345675E+02  4.7303315E+02  5.8274088E+02  4.6720309E-06  0.0000000E+00  1.0000000E+00
</event>
<event>
9 100 1.0000000E+00 1.0000000E+03 7.8125000E-03 0.0000000E+00
 21 -1  0  0 501 502  0.0000000E+00  0.0000000E+00  2.9796307E+02  2.9796307E+02  0.0000000E+00  0.0000000E+00  1.0000000E+00
 21 -1  0  0 502 501  0.0000000E+00  0.0000000E+00 -8.3994553E+02  8.3994553E+02  0.0000000E+00  0.0000000E+00  1.0000000E+00
 39  2  1  2   0   0 -2.0463631E-12 -2.1032065E-12 -5.4198245E+02  1.1379086E+03  1.0005453E+03  0.0000000E+00  1.0000000E+00
 23  2  3  3   0   0 -3.4378729E+02 -3.4154451E+02 -3.6721743E+02  6.1447960E+02  8.8849254E+01  0.0000000E+00  1.0000000E+00
 23  2  3  3   0   0  3.4378729E+02  3.4154451E+02 -1.7476503E+02  5.2342899E+02  9.2697062E+01  0.0000000E+00  1.0000000E+00
-11  1  4  4   0   0 -1.1719937E+02 -1.6891202E+02 -1.8305722E+02  2.7527606E+02  1.1121658E-05  0.0000000E+00  1.0000000E+00
 11  1  4  4   0   0 -2.2658792E+02 -1.7263249E+02 -1.8416021E+02  3.3920354E+02  8.5299224E-06  0.0000000E+00  1.0000000E+00
-13  1  5  5   0   0  5.5379724E+01  1.0329950E+02 -6.2667977E+01  1.3290965E+02  1.5843628E-05  0.0000000E+00  1.0000000E+00
 13  1  5  5   0   0  2.8840756E+02  2.3824502E+02 -1.1209705E+02  3.9051934E+02  6.1436170E-06  0.0000000E+00  1.0000000E+00
</event>
<event>
9 100 1.0000000E+00 1.0000000E+03 7.8125000E-03 0.0000000E+00
 21 -1  0  0 501 502  0.0000000E+00  0.0000000E+00  2.1184375E+02  2.1184375E+02  0.0000000E+00  0.0000000E+00  1.0000000E+00
 21 -1  0  0 502 501  0.0000000E+00  0.0000000E+00 -1.2507406E+03  1.2507406E+03  0.0000000E+00  0.0000000E+00  1.0000000E+00
 39  2  1  2   0   0  5.2864380E-12  1.4921397E-12 -1.0388969E+03  1.4625844E+03  1.0294884E+03  0.0000000E+00  1.0000000E+00
 23  2  3  3   0   0 -4.3807948E+02 -1.2211611E+02 -1.9257710E+02  4.9799122E+02  6.3901027E+01  0.0000000E+00  1.0000000E+00
 23  2  3  3   0   0  4.3807948E+02  1.2211611E+02 -8.4631978E+02  9.6459316E+02  8.5771959E+01  0.0000000E+00  1.0000000E+00
-11  1  4  4   0   0 -4.1771094E+02 -1.1152273E+02 -1.9614804E+02  4.7475657E+02  1.0400968E-06  0.0000000E+00  1.0000000E+00
 11  1  4  4   0   0 -2.0368539E+01 -1.0593379E+01  3.5709474E+00  2.3234645E+01  1.2936268E-05  0.0000000E+00  1.0000000E+00
-13  1  5  5   0   0  5.7565843E+01  3.4495142E+01 -7.9163980E+01  1.0378187E+02  1.8688124E-05  0.0000000E+00  1.0000000E+00
 13  1  5  5   0   0  3.8051363E+02  8.7620970E+01 -7.6715580E+02  8.6081129E+02  5.7220459E-06  0.0000000E+00  1.0000000E+00
</event>
<event>
9 100 1.0000000E+00 1.0000000E+03 7.8125000E-03 0.0000000E+00
 21 -1  0  0 501 502  0.0000000E+00  0.0000000E+00  1.9800378E+03  1.9800378E+03  0.0000000E+00  0.0000000E+00  1.0000000E+00
 21 -1  0  0 502 501  0.0000000E+00  0.0000000E+00 -1.3634891E+02  1.3634891E+02  0.0000000E+00  0.0000000E+00  1.0000000E+00
 39  2  1  2   0   0 -5.6274985E-12 -8.6401997E-12  1.8436889E+03  2.1163867E+03  1.0391843E+03  0.0000000E+00  1.0000000E+00
 23  2  3  3   0   0 -2.6671926E+02 -4.0967651E+02  1.2142525E+03  1.3121171E+03  9.0928923E+01  0.0000000E+00  1.0000000E+00
 23  2  3  3   0   0  2.6671926E+02  4.0967651E+02  6.2943639E+02  8.0426964E+02  1.0809939E+02  0.0000000E+00  1.0000000E+00
-11  1  4  4   0   0 -5.5730024E+01 -4.0733388E+01  1.2343602E+02  1.4142664E+02  2.1579186E-05  0.0000000E+00  1.0000000E+00
 11  1  4  4   0   0 -2.1098924E+02 -3.6894312E+02  1.0908165E+03  1.1706904E+03  3.5683226E-06  0.0000000E+00  1.0000000E+00
-13  1  5  5   0   0  1.0898256E+01  8.7612400E+01  9.2034970E+01  1.2753486E+02  2.4126264E-05  0.0000000E+00  1.0000000E+00
 13  1  5  5   0   0  2.5582100E+02  3.2206411E+02  5.3740142E+02  6.7673478E+02  4.8628039E-06  0.0000000E+00  1.0000000E+00
</event>
<event>
9 100 1.0000000E+00 1.0000000E+03 7.8125000E-03 0.0000000E+00
 21 -1  0  0 501 502  0.0000000E+00  0.0000000E+00  1.8353689E+02  1.8353689E+02  0.0000000E+00  0.0000000E+00  1.0000000E+00
 21 -1  0  0 502 501  0.0000000E+00  0.0000000E+00 -1.3623727E+03  1.3623727E+03  0.0000000E+00  0.0000000E+00  1.0000000E+00
 39  2  1  2   0   0 -1.1084467E-12 -1.1084467E-12 -1.1788358E+03  1.5459096E+03  1.0000913E+03  0.0000000E+00  1.0000000E+00
 23  2  3  3   0   0 -2.3577846E+02 -2.3995764E+02 -3.6091096E+01  3.5127081E+02  9.4432344E+01  0.0000000E+00  1.0000000E+00
 23  2  3  3   0   0  2.3577846E+02  2.3995764E+02 -1.1427447E+03  1.1946387E+03  9.0139867E+01  0.0000000E+00  1.0000000E+00
-11  1  4  4   0   0 -2.1140224E+02 -2.2544240E+02 -4.8820782E+00  3.0909387E+02  2.9586968E-06  0.0000000E+00  1.0000000E+00
 11  1  4  4   0   0 -2.4376215E+01 -1.4515239E+01 -3.1209018E+01  4.2176947E+01  1.2501497E-05  0.0000000E+00  1.0000000E+00
-13  1  5  5   0   0  1.6746170E+02  1.0770015E+02 -6.7872877E+02  7.0732983E+02  1.3214499E-05  0.0000000E+00  1.0000000E+00
 13  1  5  5   0   0  6.8316758E+01  1.3225749E+02 -4.6401591E+02  4.8730892E+02  1.0789593E-05  0.0000000E+00  1.0000000E+00
</event>
<event>
9 100 1.0000000E+00 1.0000000E+03 7.8125000E-03 0.0000000E+00
 21 -1  0  0 501 502  0.0000000E+00  0.0000000E+00  2.2859268E+03  2.2859268E+03  0.0000000E+00  0.0000000E+00  1.0000000E+00
 21 -1  0  0 502 501  0.0000000E+00  0.0000000E+00 -1.1017453E+02  1.1017453E+02  0.0000000E+00  0.0000000E+00  1.0000000E+00
 39  2  1  2   0   0  4.4053650E-13  1.5916157E-12  2.1757523E+03  2.3961014E+03  1.0036950E+03  0.0000000E+00  1.0000000E+00
 23  2  3  3   0   0 -1.2610398E+02 -4.5759597E+02  7.6560190E+02  9.0537896E+02  9.0931335E+01  0.0000000E+00  1.0000000E+00
 23  2  3  3   0   0  1.2610398E+02  4.5759597E+02  1.4101504E+03  1.4907224E+03  9.1830328E+01  0.0000000E+00  1.0000000E+00
-11  1  4  4   0   0 -5.1408917E+01 -2.5889702E+02  3.4648950E+02  4.3557493E+02  9.3440618E-06  0.0000000E+00  1.0000000E+00
 11  1  4  4   0   0 -7.4695059E+01 -1.9869895E+02  4.1911240E+02  4.6980403E+02  1.4273290E-05  0.0000000E+00  1.0000000E+00
-13  1  5  5   0   0  6.2511656E+01  1.9624954E+02  4.7668974E+02  5.1928287E+02  1.5258789E-05  0.0000000E+00  1.0000000E+00
 13  1  5  5   0   0  6.3592319E+01  2.6134643E+02  9.3346068E+02  9.7143954E+02  1.2063132E-05  0.0000000E+00  1.0000000E+00
</event>
<event>
9 100 1.0000000E+00 1.0000000E+03 7.8125000E-03 0.0000000E+00
 21 -1  0  0 501 502  0.0000000E+00  0.0000000E+00  2.4460814E+02  2.4460814E+02  0.0000000E+00  0.0000000E+00  1.0000000E+00
 21 -1  0  0 502 501  0.0000000E+00  0.0000000E+00 -1.0220911E+03  1.0220911E+03  0.0000000E+00  0.0000000E+00  1.0000000E+00
 39  2  1  2   0   0 -1.5631940E-12  1.7053026E-12 -7.7748293E+02  1.2666992E+03  1.0000236E+03  0.0000000E+00  1.0000000E+00
 23  2  3  3   0   0 -8.2848093E+01  8.9994488E+01 -9.9173614E+02  1.0034168E+03  9.1334038E+01  0.0000000E+00  1.0000000E+00
 23  2  3  3   0   0  8.2848093E+01 -8.9994488E+01  2.1425321E+02  2.6328239E+02  9.1925859E+01  0.0000000E+00  1.0000000E+00
-11  1  4  4   0   0 -9.2265319E+01  8.6018738E+01 -9.7896498E+02  9.8705853E+02  1.3696105E-06  0.0000000E+00  1.0000000E+00
 11  1  4  4   0   0  9.4172260E+00  3.9757496E+00 -1.2771163E+01  1.6358280E+01  2.8546580E-05  0.0000000E+00  1.0000000E+00
-13  1  5  5   0   0  5.0054120E+01 -1.0463745E+02  1.7624727E+02  2.1099173E+02  2.7392209E-06  0.0000000E+00  1.0000000E+00
 13  1  5  5   0   0  3.2793974E+01  1.4642965E+01  3.8005943E+01  5.2290658E+01  7.1366451E-06  0.0000000E+00  1.0000000E+00
</event>
<event>
9 100 1.0000000E+00 1.0000000E+03 7.8125000E-03 0.0000000E+00
 21 -1  0  0 501 502  0.0000000E+00  0.0000000E+00  3.7812117E+02  3.7812117E+02  0.0000000E+00  0.0000000E+00  1.0000000E+00
 21 -1  0  0 502 501  0.0000000E+00  0.0000000E+00 -6.6763867E+02  6.6763867E+02  0.0000000E+00  0.0000000E+00  1.0000000E+00
 39  2  1  2   0   0 -3.9790393E-13 -5.6843419E-13 -2.8951749E+02  1.0457598E+03  1.0048847E+03  0.0000000E+00  1.0000000E+00
 23  2  3  3   0   0 -1.8513129E+02 -2.5568641E+02  2.5085815E+02  4.1359148E+02  9.2081325E+01  0.0000000E+00  1.0000000E+00
 23  2  3  3   0   0  1.8513129E+02  2.5568641E+02 -5.4037564E+02  6.3216836E+02  8.9341278E+01  0.0000000E+00  1.0000000E+00
-11  1  4  4   0   0  3.3904580E+00 -4.7916659E+01  3.1203764E+01  5.7281553E+01  7.1366451E-06  0.0000000E+00  1.0000000E+00
 11  1  4  4   0   0 -1.8852174E+02 -2.0776975E+02  2.1965438E+02  3.5630993E+02  2.0784850E-06  0.0000000E+00  1.0000000E+00
-13  1  5  5   0   0  6.6721153E+01  1.3968178E+02 -1.9416699E+02  2.4832143E+02  7.6293945E-06  0.0000000E+00  1.0000000E+00
 13  1  5  5   0   0  1.1841013E+02  1.1600463E+02 -3.4620865E+02  3.8384693E+02  2.6973983E-06  0.0000000E+00  1.0000000E+00
</event>
<event>
9 100 1.0000000E+00 1.0000000E+03 7.8125000E-03 0.0000000E+00
 21 -1  0  0 501 502  0.0000000E+00  0.0000000E+00  1.6708913E+02  1.6708913E+02  0.0000000E+00  0.0000000E+00  1.0000000E+00
 21 -1  0  0 502 501  0.0000000E+00  0.0000000E+00 -1.4984379E+03  1.4984379E+03  0.0000000E+00  0.0000000E+00  1.0000000E+00
 39  2  1  2   0   0  6.4659389E-13 -1.6768809E-12 -1.3313488E+03  1.6655271E+03  1.0007451E+03  0.0000000E+00  1.0000000E+00
 23  2  3  3   0   0  5.8618289E+01 -1.5085423E+02 -1.4387243E+03  1.4508287E+03  9.3718690E+01  0.0000000E+00  1.0000000E+00
 23  2  3  3   0   0 -5.8618289E+01  1.5085423E+02  1.0737551E+02  2.1469835E+02  9.1502891E+01  0.0000000E+00  1.0000000E+00
-11  1  4  4   0   0  8.4082379E+01 -1.2345058E+02 -1.1196222E+03  1.1295414E+03  3.8146973E-06  0.0000000E+00  1.0000000E+00
 11  1  4  4   0   0 -2.5464090E+01 -2.7403649E+01 -3.1910211E+02  3.2128731E+02  1.5258789E-05  0.0000000E+00  1.0000000E+00
-13  1  5  5   0   0 -2.0841957E+01  1.4574166E+02  7.8271880E+01  1.6673784E+02  6.2989449E-06  0.0000000E+00  1.0000000E+00
 13  1  5  5   0   0 -3.7776332E+01  5.1125692E+00  2.9103628E+01  4.7960512E+01  1.3621194E-05  0.0000000E+00  1.0000000E+00
</event>
<event>
9 100 1.0000000E+00 1.0000000E+03 7.8125000E-03 0.0000000E+00
 21 -1  0  0 501 502  0.0000000E+00  0.0000000E+00  2.2054500E+02  2.2054500E+02  0.0000000E+00  0.0000000E+00  1.0000000E+00
 21 -1  0  0 502 501  0.0000000E+00  0.0000000E+00 -1.1410319E+03  1.1410319E+03  0.0000000E+00  0.0000000E+00  1.0000000E+00
 39  2  1  2   0   0  2.2737368E-12 -4.5474735E-13 -9.2048692E+02  1.3615769E+03  1.0032924E+03  0.0000000E+00  1.0000000E+00
 23  2  3  3   0   0 -3.4863422E+02  6.9956789E+01  3.3185843E+00  3.6755241E+02  9.2973081E+01  0.0000000E+00  1.0000000E+00
 23  2  3  3   0   0  3.4863422E+02 -6.9956789E+01 -9.2380551E+02  9.9402451E+02  9.0710237E+01  0.0000000E+00  1.0000000E+00
-11  1  4  4   0   0 -3.5365895E+02  7.0203260E+01  8.0456182E+00  3.6064925E+02  1.6763641E-06  0.0000000E+00  1.0000000E+00
 11  1  4  4   0   0  5.0247373E+00 -2.4647096E-01 -4.7270339E+00  6.9031574E+00  1.0808674E-05  0.0000000E+00  1.0000000E+00
-13  1  5  5   0   0  3.3104841E+02 -8.0502821E+01 -9.0147737E+02  9.6370909E+02  6.3079627E-07  0.0000000E+00  1.0000000E+00
 13  1  5  5   0   0  1.7585807E+01  1.0546031E+01 -2.2328137E+01  3.0315427E+01  1.0789593E-05  0.0000000E+00  1.0000000E+00
</event>
<event>
9 100 1.0000000E+00 1.0000000E+03 7.8125000E-03 0.0000000E+00
 21 -1  0  0 501 502  0.0000000E+00  0.0000000E+00  1.3430038E+03  1.3430038E+03  0.0000000E+00  0.0000000E+00  1.0000000E+00
 21 -1  0  0 502 501  0.0000000E+00  0.0000000E+00 -1.8741754E+02  1.8741754E+02  0.0000000E+00  0.0000000E+00  1.0000000E+00
 39  2  1  2   0   0 -2.3305802E-12  5.2295945E-12  1.1555863E+03  1.5304213E+03  1.0033991E+03  0.0000000E+00  1.0000000E+00
 23  2  3  3   0   0  2.0026238E+02 -4.3450470E+02  3.9435327E+02  6.2671394E+02  9.1413957E+01  0.0000000E+00  1.0000000E+00
 23  2  3  3   0   0 -2.0026238E+02  4.3450470E+02  7.6123299E+02  9.0370738E+02  9.1170229E+01  0.0000000E+00  1.0000000E+00
-11  1  4  4   0   0  1.4584233E+02 -2.1953501E+02  2.4066848E+02  3.5691304E+02  6.8770433E-06  0.0000000E+00  1.0000000E+00
 11  1  4  4   0   0  5.4420052E+01 -2.1496970E+02  1.5368479E+02  2.6980090E+02  8.9462581E-06  0.0000000E+00  1.0000000E+00
-13  1  5  5   0   0 -9.8217604E+01  3.0220936E+02  5.3860505E+02  6.2535797E+02  1.3486992E-05  0.0000000E+00  1.0000000E+00
 13  1  5  5   0   0 -1.0204477E+02  1.3229534E+02  2.2262794E+02  2.7834941E+02  1.0789593E-05  0.0000000E+00  1.0000000E+00
</event>
<event>
9 100 1.0000000E+00 1.0000000E+03 7.8125000E-03 0.0000000E+00
 21 -1  0  0 501 502  0.0000000E+00  0.0000000E+00  2.0037141E+03  2.0037141E+03  0.0000000E+00  0.0000000E+00  1.0000000E+00
 21 -1  0  0 502 501  0.0000000E+00  0.0000000E+00 -1.2560910E+02  1.2560910E+02  0.0000000E+00  0.0000000E+00  1.0000000E+00
 39  2  1  2   0   0 -5.8548721E-12  1.6342483E-12  1.8781050E+03  2.1293232E+03  1.0033638E+03  0.0000000E+00  1.0000000E+00
 23  2  3  3   0   0  4.3670178E+02 -1.1841191E+02  5.1965593E+02  6.9487149E+02  8.9856960E+01  0.0000000E+00  1.0000000E+00
 23  2  3  3   0   0 -4.3670178E+02  1.1841191E+02  1.3584491E+03  1.4344517E+03  8.6821594E+01  0.0000000E+00  1.0000000E+00
-11  1  4  4   0   0  3.2941716E+00 -1.3987484E+01  8.8256251E+00  1.6863953E+01  1.2063132E-05  0.0000000E+00  1.0000000E+00
 11  1  4  4   0   0  4.3340761E+02 -1.0442443E+02  5.1083031E+02  6.7800754E+02  1.7520116E-06  0.0000000E+00  1.0000000E+00
-13  1  5  5   0   0 -1.0531831E+02  3.7926445E+01  2.3340586E+02  2.5886031E+02  3.7376247E-05  0.0000000E+00  1.0000000E+00
 13  1  5  5   0   0 -3.3138348E+02  8.0485468E+01  1.1250432E+03  1.1755914E+03  6.6072495E-06  0.0000000E+00  1.0000000E+00
</event>
<event>
9 100 1.0000000E+00 1.0000000E+03 7.8125000E-03 0.0000000E+00
 21 -1  0  0 501 502  0.0000000E+00  0.0000000E+00  5.1517114E+02  5.1517114E+02  0.0000000E+00  0.0000000E+00  1.0000000E+00
 21 -1  0  0 502 501  0.0000000E+00  0.0000000E+00 -4.7825087E+02  4.7825087E+02  0.0000000E+00  0.0000000E+00  1.0000000E+00
 39  2  1  2   0   0 -5.6843419E-13  3.9790393E-13  3.6920268E+01  9.9342201E+02  9.9273571E+02  0.0000000E+00  1.0000000E+00
 23  2  3  3   0   0  3.5312056E+02 -2.2401042E+02 -2.3269268E+02  4.8715407E+02  9.1095612E+01  0.0000000E+00  1.0000000E+00
 23  2  3  3   0   0 -3.5312056E+02  2.2401042E+02  2.6961295E+02  5.0626794E+02  9.3494886E+01  0.0000000E+00  1.0000000E+00
-11  1  4  4   0   0  1.1402571E+02 -3.8605789E+01 -3.3662100E+01  1.2500162E+02  7.1366451E-06  0.0000000E+00  1.0000000E+00
 11  1  4  4   0   0  2.3909485E+02 -1.8540463E+02 -1.9903058E+02  3.6215245E+02  1.1680077E-06  0.0000000E+00  1.0000000E+00
-13  1  5  5   0   0 -1.8876204E+02  1.3575493E+02  9.6408100E+01  2.5170425E+02  5.0463701E-06  0.0000000E+00  1.0000000E+00
 13  1  5  5   0   0 -1.6435851E+02  8.8255488E+01  1.7320485E+02  2.5456369E+02  4.4731290E-06  0.0000000E+00  1.0000000E+00
</event>
<event>
9 100 1.0000000E+00 1.0000000E+03 7.8125000E-03 0.0000000E+00
 21 -1  0  0 501 502  0.0000000E+00  0.0000000E+00  1.9183807E+03  1.9183807E+03  0.0000000E+00  0.0000000E+00  1.0000000E+00
 21 -1  0  0 502 501  0.0000000E+00  0.0000000E+00 -1.2982937E+02  1.2982937E+02  0.0000000E+00  0.0000000E+00  1.0000000E+00
 39  2  1  2   0   0  2.7853275E-12  5.2295945E-12  1.7885514E+03  2.0482101E+03  9.9812256E+02  0.0000000E+00  1.0000000E+00
 23  2  3  3   0   0 -2.3228803E+02 -4.3244499E+02  9.1850912E+02  1.0449739E+03  8.5703405E+01  0.0000000E+00  1.0000000E+00
 23  2  3  3   0   0  2.3228803E+02  4.3244499E+02  8.7004223E+02  1.0032362E+03  9.2428097E+01  0.0000000E+00  1.0000000E+00
-11  1  4  4   0   0 -1.2321647E+02 -3.1088877E+02  6.4033479E+02  7.2240070E+02  1.0092740E-05  0.0000000E+00  1.0000000E+00
 11  1  4  4   0   0 -1.0907156E+02 -1.2155622E+02  2.7817433E+02  3.2257322E+02  1.5258789E-05  0.0000000E+00  1.0000000E+00
-13  1  5  5   0   0  4.6070226E+01  1.7971730E+02  3.1591546E+02  3.6636506E+02  2.6428998E-05  0.0000000E+00  1.0000000E+00
 13  1  5  5   0   0  1.8621781E+02  2.5272769E+02  5.5412677E+02  6.3687113E+02  1.7481139E-05  0.0000000E+00  1.0000000E+00
</event>
<event>
9 100 1.0000000E+00 1.0000000E+03 7.8125000E-03 0.0000000E+00
 21 -1  0  0 501 502  0.0000000E+00  0.0000000E+00  1.0885307E+03  1.0885307E+03  0.0000000E+00  0.0000000E+00  1.0000000E+00
 21 -1  0  0 502 501  0.0000000E+00  0.0000000E+00 -2.3285693E+02  2.3285693E+02  0.0000000E+00  0.0000000E+00  1.0000000E+00
 39  2  1  2   0   0  7.3896445E-13  2.2168933E-12  8.5567376E+02  1.3213876E+03  1.0069199E+03  0.0000000E+00  1.0000000E+00
 23  2  3  3   0   0  1.4074623E+02  4.0448914E+02  7.5324465E+02  8.7141072E+02  9.2510342E+01  0.0000000E+00  1.0000000E+00
 23  2  3  3   0   0 -1.4074623E+02 -4.0448914E+02  1.0242910E+02  4.4997690E+02  9.2555505E+01  0.0000000E+00  1.0000000E+00
-11  1  4  4   0   0  1.0455452E+02  3.7661960E+02  6.9523980E+02  7.9757906E+02  6.7434958E-07  0.0000000E+00  1.0000000E+00
 11  1  4  4   0   0  3.6191708E+01  2.7869535E+01  5.8004850E+01  7.3831655E+01  2.1579186E-05  0.0000000E+00  1.0000000E+00
-13  1  5  5   0   0 -1.4134816E+02 -2.9760987E+02  5.9517409E+01  3.3480332E+02  3.4052984E-06  0.0000000E+00  1.0000000E+00
 13  1  5  5   0   0  6.0193123E-01 -1.0687927E+02  4.2911696E+01  1.1517358E+02  0.0000000E+00  0.0000000E+00  1.0000000E+00
</event>
<event>
9 100 1.0000000E+00 1.0000000E+03 7.8125000E-03 0.0000000E+00
 21 -1  0  0 501 502  0.0000000E+00  0.0000000E+00  9.4895716E+02  9.4895716E+02  0.0000000E+00  0.0000000E+00  1.0000000E+00
 21 -1  0  0 502 501  0.0000000E+00  0.0000000E+00 -2.5984564E+02  2.5984564E+02  0.0000000E+00  0.0000000E+00  1.0000000E+00
 39  2  1  2   0   0 -1.7621460E-12 -2.3305802E-12  6.8911152E+02  1.2088028E+03  9.9314124E+02  0.0000000E+00  1.0000000E+00
 23  2  3  3   0   0  2.4280132E+02  3.2008122E+02  6.8237921E+00  4.1188345E+02  9.0536973E+01  0.0000000E+00  1.0000000E+00
 23  2  3  3   0   0 -2.4280132E+02 -3.2008122E+02  6.8228773E+02  7.9691935E+02  9.0329596E+01  0.0000000E+00  1.0000000E+00
-11  1  4  4   0   0  1.3147772E+02  2.0995642E+02  4.2335442E+01  2.5131729E+02  5.5812358E-06  0.0000000E+00  1.0000000E+00
 11  1  4  4   0   0  1.1132360E+02  1.1012480E+02 -3.5511650E+01  1.6056617E+02  5.7418797E-06  0.0000000E+00  1.0000000E+00
-13  1  5  5   0   0 -1.8443421E+02 -2.6654778E+02  6.0444378E+02  6.8586878E+02  3.0157830E-06  0.0000000E+00  1.0000000E+00
 13  1  5  5   0   0 -5.8367114E+01 -5.3533445E+01  7.7843946E+01  1.1105057E+02  1.5258789E-05  0.0000000E+00  1.0000000E+00
</event>
<event>
9 100 1.0000000E+00 1.0000000E+03 7.8125000E-03 0.0000000E+00
 21 -1  0  0 501 502  0.0000000E+00  0.0000000E+00  6.0134437E+02  6.0134437E+02  0.0000000E+00  0.0000000E+00  1.0000000E+00
 21 -1  0  0 502 501  0.0000000E+00  0.0000000E+00 -4.1274498E+02  4.1274498E+02  0.0000000E+00  0.0000000E+00  1.0000000E+00
 39  2  1  2   0   0  7.9580786E-13  1.0800250E-12  1.8859939E+02  1.0140893E+03  9.9639724E+02  0.0000000E+00  1.0000000E+00
 23  2  3  3   0   0  2.6983817E+02  3.7263835E+02  2.6692842E+02  5.3890248E+02  8.6562866E+01  0.0000000E+00  1.0000000E+00
 23  2  3  3   0   0 -2.6983817E+02 -3.7263835E+02 -7.8329030E+01  4.7518686E+02  8.9415527E+01  0.0000000E+00  1.0000000E+00
-11  1  4  4   0   0  2.0163478E+02  3.2341076E+02  2.4083210E+02  4.5083389E+02  2.2868307E-06  0.0000000E+00  1.0000000E+00
 11  1  4  4   0   0  6.8203393E+01  4.9227592E+01  2.6096323E+01  8.8068591E+01  4.6720309E-06  0.0000000E+00  1.0000000E+00
-13  1  5  5   0   0 -2.3318707E+02 -3.5852813E+02 -8.2894104E+01  4.3564901E+02  1.7691639E-06  0.0000000E+00  1.0000000E+00
 13  1  5  5   0   0 -3.6651096E+01 -1.4110217E+01  4.5650740E+00  3.9537842E+01  1.2865770E-05  0.0000000E+00  1.0000000E+00
</event>
<event>
9 100 1.0000000E+00 1.0000000E+03 7.8125000E-03 0.0000000E+00
 21 -1  0  0 501 502  0.0000000E+00  0.0000000E+00  9.2058924E+02  9.2058924E+02  0.0000000E+00  0.0000000E+00  1.0000000E+00
 21 -1  0  0 502 501  0.0000000E+00  0.0000000E+00 -2.7591773E+02  2.7591773E+02  0.0000000E+00  0.0000000E+00  1.0000000E+00
 39  2  1  2   0   0  1.7053026E-13  1.7053026E-13  6.4467152E+02  1.1965070E+03  1.0079819E+03  0.0000000E+00  1.0000000E+00
 23  2  3  3   0   0 -1.8007336E+02 -1.9689948E+02 -1.7344623E+02  3.3110112E+02  9.1370306E+01  0.0000000E+00  1.0000000E+00
 23  2  3  3   0   0  1.8007336E+02  1.9689948E+02  8.1811775E+02  8.6540585E+02  9.1732339E+01  0.0000000E+00  1.0000000E+00
-11  1  4  4   0   0 -1.5096268E+02 -1.7973056E+02 -1.1000185E+02  2.5921653E+02  4.7204470E-06  0.0000000E+00  1.0000000E+00
 11  1  4  4   0   0 -2.9110684E+01 -1.7168924E+01 -6.3444382E+01  7.1884585E+01  1.3951053E-05  0.0000000E+00  1.0000000E+00
-13  1  5  5   0   0  1.5149135E+02  1.6774412E+02  5.5695929E+02  6.0107517E+02  6.6072495E-06  0.0000000E+00  1.0000000E+00
 13  1  5  5   0   0  2.8582010E+01  2.9155367E+01  2.6115846E+02  2.6433068E+02  1.0789593E-05  0.0000000E+00  1.0000000E+00
</event>
<event>
9 100 1.0000000E+00 1.0000000E+03 7.8125000E-03 0.0000000E+00
 21 -1  0  0 501 502  0.0000000E+00  0.0000000E+00  1.4266467E+03  1.4266467E+03  0.0000000E+00  0.0000000E+00  1.0000000E+00
 21 -1  0  0 502 501  0.0000000E+00  0.0000000E+00 -1.8360773E+02  1.8360773E+02  0.0000000E+00  0.0000000E+00  1.0000000E+00
 39  2  1  2   0   0  5.6843419E-14  5.6843419E-14  1.2430390E+03  1.6102545E+03  1.0236081E+03  0.0000000E+00  1.0000000E+00
 23  2  3  3   0   0 -9.9364387E+01 -1.1681673E+02  1.3746950E+03  1.3860074E+03  8.7810952E+01  0.0000000E+00  1.0000000E+00
 23  2  3  3   0   0  9.9364387E+01  1.1681673E+02 -1.3165601E+02  2.2424704E+02  9.7128787E+01  0.0000000E+00  1.0000000E+00
-11  1  4  4   0   0 -4.7275441E+01 -1.0582187E+02  7.3285910E+02  7.4196745E+02  1.0789593E-05  0.0000000E+00  1.0000000E+00
 11  1  4  4   0   0 -5.2088946E+01 -1.0994854E+01  6.4183593E+02  6.4403999E+02  1.0789593E-05  0.0000000E+00  1.0000000E+00
-13  1  5  5   0   0  1.1757833E+02  1.1175961E+02 -1.1306268E+02  1.9773225E+02  2.8808227E-06  0.0000000E+00  1.0000000E+00
 13  1  5  5   0   0 -1.8213941E+01  5.0571170E+00 -1.8593334E+01  2.6514791E+01  7.3871295E-06  0.0000000E+00  1.0000000E+00
</event>
<event>
9 100 1.0000000E+00 1.0000000E+03 7.8125000E-03 0.0000000E+00
 21 -1  0  0 501 502  0.0000000E+00  0.0000000E+00  2.0785696E+03  2.0785696E+03  0.0000000E+00  0.0000000E+00  1.0000000E+00
 21 -1  0  0 502 501  0.0000000E+00  0.0000000E+00 -1.1992863E+02  1.1992863E+02  0.0000000E+00  0.0000000E+00  1.0000000E+00
 39  2  1  2   0   0  1.7195134E-12  2.4442670E-12  1.9586410E+03  2.1984982E+03  9.9855895E+02  0.0000000E+00  1.0000000E+00
 23  2  3  3   0   0  1.0279425E+02  1.4800656E+02 -2.5911638E+01  2.0374660E+02  9.1480408E+01  0.0000000E+00  1.0000000E+00
 23  2  3  3   0   0 -1.0279425E+02 -1.4800656E+02  1.9845526E+03  1.9947516E+03  9.0068685E+01  0.0000000E+00  1.0000000E+00
-11  1  4  4   0   0  1.1494406E+02  1.1134031E+02 -5.6477207E+00  1.6012713E+02  3.9320999E-06  0.0000000E+00  1.0000000E+00
 11  1  4  4   0   0 -1.2149810E+01  3.6666255E+01 -2.0263917E+01  4.3619473E+01  8.4089036E-06  0.0000000E+00  1.0000000E+00
-13  1  5  5   0   0 -7.2631046E+00 -4.8501788E+01  2.5274213E+02  2.5745633E+02  3.0517578E-05  0.0000000E+00  1.0000000E+00
 13  1  5  5   0   0 -9.5531144E+01 -9.9504774E+01  1.7318105E+03  1.7372953E+03  3.8146973E-06  0.0000000E+00  1.0000000E+00
</event>
<event>
9 100 1.0000000E+00 1.0000000E+03 7.8125000E-03 0.0000000E+00
 21 -1  0  0 501 502  0.0000000E+00  0.0000000E+00  1.0438475E+03  1.0438475E+03  0.0000000E+00  0.0000000E+00  1.0000000E+00
 21 -1  0  0 502 501  0.0000000E+00  0.0000000E+00 -2.4475732E+02  2.4475732E+02  0.0000000E+00  0.0000000E+00  1.0000000E+00
 39  2  1  2   0   0 -4.9737992E-14 -1.2505552E-12  7.9909020E+02  1.2886048E+03  1.0109190E+03  0.0000000E+00  1.0000000E+00
 23  2  3  3   0   0 -1.8604869E+01 -4.6883134E+02  6.0968902E+02  7.7472017E+02  9.1223210E+01  0.0000000E+00  1.0000000E+00
 23  2  3  3   0   0  1.8604869E+01  4.6883134E+02  1.8940118E+02  5.1388467E+02  8.9753441E+01  0.0000000E+00  1.0000000E+00
-11  1  4  4   0   0 -1.6523093E+01 -3.2795446E+02  4.8999408E+02  5.8984857E+02  2.6973983E-06  0.0000000E+00  1.0000000E+00
 11  1  4  4   0   0 -2.0817760E+00 -1.4087688E+02  1.1969494E+02  1.8487160E+02  1.0789593E-05  0.0000000E+00  1.0000000E+00
-13  1  5  5   0   0  3.7293044E+01  3.6805011E+02  1.1558329E+02  3.8757083E+02  2.3360155E-06  0.0000000E+00  1.0000000E+00
 13  1  5  5   0   0 -1.8688175E+01  1.0078123E+02  7.3817889E+01  1.2631383E+02  8.4226235E-06  0.0000000E+00  1.0000000E+00
</event>
<event>
9 100 1.0000000E+00 1.0000000E+03 7.8125000E-03 0.0000000E+00
 21 -1  0  0 501 502  0.0000000E+00  0.0000000E+00  2.0344082E+03  2.0344082E+03  0.0000000E+00  0.0000000E+00  1.0000000E+00
 21 -1  0  0 502 501  0.0000000E+00  0.0000000E+00 -1.2584223E+02  1.2584223E+02  0.0000000E+00  0.0000000E+00  1.0000000E+00
 39  2  1  2   0   0 -2.4016344E-12 -8.6970431E-12  1.9085659E+03  2.1602504E+03  1.0119574E+03  0.0000000E+00  1.0000000E+00
 23  2  3  3   0   0  9.5976144E+01  3.4551074E+02  2.1624756E+02  4.2805417E+02  8.8759638E+01  0.0000000E+00  1.0000000E+00
 23  2  3  3   0   0 -9.5976144E+01 -3.4551074E+02  1.6923184E+03  1.7321962E+03  8.9292526E+01  0.0000000E+00  1.0000000E+00
-11  1  4  4   0   0  4.5419589E+01  1.3859692E+02  1.3900418E+02  2.0148004E+02  9.8186780E-06  0.0000000E+00  1.0000000E+00
 11  1  4  4   0   0  5.0556555E+01  2.0691382E+02  7.7243370E+01  2.2657412E+02  8.9462581E-06  0.0000000E+00  1.0000000E+00
-13  1  5  5   0   0 -1.0345401E+02 -2.2560503E+02  1.0727099E+03  1.1010481E+03  7.6293945E-06  0.0000000E+00  1.0000000E+00
 13  1  5  5   0   0  7.4778611E+00 -1.1990571E+02  6.1960848E+02  6.3114813E+02  3.7376247E-05  0.0000000E+00  1.0000000E+00
</event>
<event>
9 100 1.0000000E+00 1.0000000E+03 7.8125000E-03 0.0000000E+00
 21 -1  0  0 501 502  0.0000000E+00  0.0000000E+00  8.3440237E+01  8.3440237E+01  0.0000000E+00  0.0000000E+00  1.0000000E+00
 21 -1  0  0 502 501  0.0000000E+00  0.0000000E+00 -2.9209903E+03  2.9209903E+03  0.0000000E+00  0.0000000E+00  1.0000000E+00
 39  2  1  2   0   0  4.1211479E-12  2.1543656E-11 -2.8375500E+03  3.0044305E+03  9.8737656E+02  0.0000000E+00  1.0000000E+00
 23  2  3  3   0   0  8.0425789E+01  4.1812056E+02 -2.0299929E+03  2.0764102E+03  9.6512639E+01  0.0000000E+00  1.0000000E+00
 23  2  3  3   0   0 -8.0425789E+01 -4.1812056E+02 -8.0755709E+02  9.2802035E+02  1.6667393E+02  0.0000000E+00  1.0000000E+00
-11  1  4  4   0   0  2.6411909E+01  3.4019881E+02 -1.6302257E+03  1.6655536E+03  1.6184390E-05  0.0000000E+00  1.0000000E+00
 11  1  4  4   0   0  5.4013880E+01  7.7921750E+01 -3.9976720E+02  4.1085655E+02  8.8973265E-05  0.0000000E+00  1.0000000E+00
-13  1  5  5   0   0  2.2599921E+01 -2.9845873E+02 -5.3365984E+02  6.1186698E+02  1.5258789E-05  0.0000000E+00  1.0000000E+00
 13  1  5  5   0   0 -1.0302571E+02 -1.1966183E+02 -2.7389725E+02  3.1615337E+02  1.0789593E-05  0.0000000E+00  1.0000000E+00
</event>
<event>
9 100 1.0000000E+00 1.0000000E+03 7.8125000E-03 0.0000000E+00
 21 -1  0  0 501 502  0.0000000E+00  0.0000000E+00  6.0976391E+02  6.0976391E+02  0.0000000E+00  0.0000000E+00  1.0000000E+00
 21 -1  0  0 502 501  0.0000000E+00  0.0000000E+00 -4.1084780E+02  4.1084780E+02  0.0000000E+00  0.0000000E+00  1.0000000E+00
 39  2  1  2   0   0  2.2737368E-13  2.8421709E-13  1.9891611E+02  1.0206117E+03  1.0010398E+03  0.0000000E+00  1.0000000E+00
 23  2  3  3   0   0  3.0427350E+02  3.3770981E+02 -9.0877447E+01  4.7276793E+02  9.2846760E+01  0.0000000E+00  1.0000000E+00
 23  2  3  3   0   0 -3.0427350E+02 -3.3770981E+02  2.8979356E+02  5.4784378E+02  9.7581870E+01  0.0000000E+00  1.0000000E+00
-11  1  4  4   0   0  3.4918780E+01  9.5401787E+01 -1.6910142E+01  1.0298920E+02  1.4368552E-05  0.0000000E+00  1.0000000E+00
 11  1  4  4   0   0  2.6935472E+02  2.4230802E+02 -7.3967304E+01  3.6977873E+02  5.6218272E-06  0.0000000E+00  1.0000000E+00
-13  1  5  5   0   0 -1.4110907E+01 -8.5380306E+00 -7.1853725E+00  1.7990143E+01  8.5299224E-06  0.0000000E+00  1.0000000E+00
 13  1  5  5   0   0 -2.9016260E+02 -3.2917178E+02  2.9697893E+02  5.2985364E+02  9.3105432E-07  0.0000000E+00  1.0000000E+00
</event>
<event>
9 100 1.0000000E+00 1.0000000E+03 7.8125000E-03 0.0000000E+00
 21 -1  0  0 501 502  0.0000000E+00  0.0000000E+00  1.6904099E+02  1.6904099E+02  0.0000000E+00  0.0000000E+00  1.0000000E+00
 21 -1  0  0 502 501  0.0000000E+00  0.0000000E+00 -1.4261297E+03  1.4261297E+03  0.0000000E+00  0.0000000E+00  1.0000000E+00
 39  2  1  2   0   0 -4.9027449E-13 -6.0254024E-12 -1.2570888E+03  1.5951707E+03  9.8198652E+02  0.0000000E+00  1.0000000E+00
 23  2  3  3   0   0  2.3267728E+01  2.8645969E+02 -1.0409640E+00  3.0333229E+02  9.6999237E+01  0.0000000E+00  1.0000000E+00
 23  2  3  3   0   0 -2.3267728E+01 -2.8645969E+02 -1.2560478E+03  1.2918384E+03  9.2682074E+01  0.0000000E+00  1.0000000E+00
-11  1  4  4   0   0 -1.8615681E+01  2.8918509E+01 -2.3173090E+01  4.1470663E+01  1.1643520E-05  0.0000000E+00  1.0000000E+00
 11  1  4  4   0   0  4.1883409E+01  2.5754118E+02  2.2132126E+01  2.6186162E+02  3.9465297E-06  0.0000000E+00  1.0000000E+00
-13  1  5  5   0   0 -1.7033288E+01 -6.1208215E+01 -1.4720041E+02  1.6032635E+02  2.1579186E-05  0.0000000E+00  1.0000000E+00
 13  1  5  5   0   0 -6.2344398E+00 -2.2525147E+02 -1.1088474E+03  1.1315121E+03  4.2649612E-06  0.0000000E+00  1.0000000E+00
</event>
<event>
9 100 1.0000000E+00 1.0000000E+03 7.8125000E-03 0.0000000E+00
 21 -1  0  0 501 502  0.0000000E+00  0.0000000E+00  3.8720413E+02  3.8720413E+02  0.0000000E+00  0.0000000E+00  1.0000000E+00
 21 -1  0  0 502 501  0.0000000E+00  0.0000000E+00 -6.5150564E+02  6.5150564E+02  0.0000000E+00  0.0000000E+00  1.0000000E+00
 39  2  1  2   0   0 -1.7053026E-13  6.2527761E-13 -2.6430151E+02  1.0387098E+03  1.0045211E+03  0.0000000E+00  1.0000000E+00
 23  2  3  3   0   0  1.4036310E+02 -4.7321861E+02 -1.5352570E+02  5.2492439E+02  9.1311684E+01  0.0000000E+00  1.0000000E+00
 23  2  3  3   0   0 -1.4036310E+02  4.7321861E+02 -1.1077581E+02  5.1378538E+02  8.9813599E+01  0.0000000E+00  1.0000000E+00
-11  1  4  4   0   0  8.9966877E+01 -2.2201359E+02 -3.3107578E+01  2.4182676E+02  1.0619668E-05  0.0000000E+00  1.0000000E+00
 11  1  4  4   0   0  5.0396222E+01 -2.5120502E+02 -1.2041812E+02  2.8309763E+02  4.8158192E-06  0.0000000E+00  1.0000000E+00
-13  1  5  5   0   0 -7.2638662E+01  2.2787817E+02 -8.0222234E+00  2.3930982E+02  1.3820054E-05  0.0000000E+00  1.0000000E+00
 13  1  5  5   0   0 -6.7724436E+01  2.4534044E+02 -1.0275359E+02  2.7447556E+02  1.3706477E-05  0.0000000E+00  1.0000000E+00
</event>
<event>
9 100 1.0000000E+00 1.0000000E+03 7.8125000E-03 0.0000000E+00
 21 -1  0  0 501 502  0.0000000E+00  0.0000000E+00  1.2135701E+03  1.2135701E+03  0.0000000E+00  0.0000000E+00  1.0000000E+00
 21 -1  0  0 502 501  0.0000000E+00  0.0000000E+00 -2.0364021E+02  2.0364021E+02  0.0000000E+00  0.0000000E+00  1.0000000E+00
 39  2  1  2   0   0 -1.9326762E-12  2.5011104E-12  1.0099299E+03  1.4172103E+03  9.9424678E+02  0.0000000E+00  1.0000000E+00
 23  2  3  3   0   0 -9.2733320E+01  1.1970987E+02  1.1676205E+03  1.1803665E+03  8.3651142E+01  0.0000000E+00  1.0000000E+00
 23  2  3  3   0   0  9.2733320E+01 -1.1970987E+02 -1.5769067E+02  2.3684375E+02  9.1097153E+01  0.0000000E+00  1.0000000E+00
-11  1  4  4   0   0  1.4728619E+01  6.8190088E+00  7.9477303E+01  8.1117648E+01  3.0517578E-05  0.0000000E+00  1.0000000E+00
 11  1  4  4   0   0 -1.0746194E+02  1.1289086E+02  1.0881432E+03  1.0992489E+03  9.5367432E-07  0.0000000E+00  1.0000000E+00
-13  1  5  5   0   0 -1.6386622E+01 -3.2380718E+01 -2.4545957E+01  4.3812513E+01  1.2507321E-05  0.0000000E+00  1.0000000E+00
 13  1  5  5   0   0  1.0911994E+02 -8.7329151E+01 -1.3314472E+02  1.9303124E+02  4.5236745E-06  0.0000000E+00  1.0000000E+00
</event>
<event>
9 100 1.0000000E+00 1.0000000E+03 7.8125000E-03 0.0000000E+00
 21 -1  0  0 501 502  0.0000000E+00  0.0000000E+00  5.2058375E+02  5.2058375E+02  0.0000000E+00  0.0000000E+00  1.0000000E+00
 21 -1  0  0 502 501  0.0000000E+00  0.0000000E+00 -5.2439620E+02  5.2439620E+02  0.0000000E+00  0.0000000E+00  1.0000000E+00
 39  2  1  2   0   0 -5.9685590E-13 -1.4921397E-13 -3.8124516E+00  1.0449799E+03  1.0449730E+03  0.0000000E+00  1.0000000E+00
 23  2  3  3   0   0  2.2889441E+02  4.9989591E+01 -4.0550959E+02  4.7719873E+02  9.1591448E+01  0.0000000E+00  1.0000000E+00
 23  2  3  3   0   0 -2.2889441E+02 -4.9989591E+01  4.0169714E+02  5.6778121E+02  3.2576572E+02  0.0000000E+00  1.0000000E+00
-11  1  4  4   0   0  1.5326463E+02  2.1252747E+01 -3.3834690E+02  3.7204885E+02  6.1805160E-06  0.0000000E+00  1.0000000E+00
 11  1  4  4   0   0  7.5629784E+01  2.8736843E+01 -6.7162692E+01  1.0514988E+02  1.3214499E-05  0.0000000E+00  1.0000000E+00
-13  1  5  5   0   0  6.2158985E+01 -8.7739141E+01  1.1668746E+02  1.5867533E+02  4.7798020E-05  0.0000000E+00  1.0000000E+00
 13  1  5  5   0   0 -2.9105340E+02  3.7749550E+01  2.8500967E+02  4.0910588E+02  1.9729768E-05  0.0000000E+00  1.0000000E+00
</event>
<event>
9 100 1.0000000E+00 1.0000000E+03 7.8125000E-03 0.0000000E+00
 21 -1  0  0 501 502  0.0000000E+00  0.0000000E+00  1.2148942E+02  1.2148942E+02  0.0000000E+00  0.0000000E+00  1.0000000E+00
 21 -1  0  0 502 501  0.0000000E+00  0.0000000E+00 -2.0529223E+03  2.0529223E+03  0.0000000E+00  0.0000000E+00  1.0000000E+00
 39  2  1  2   0   0 -4.2632564E-13  3.8369308E-13 -1.9314329E+03  2.1744117E+03  9.9881595E+02  0.0000000E+00  1.0000000E+00
 23  2  3  3   0   0  1.3130339E+02 -1.1330639E+02  3.3905392E+01  1.9934254E+02  9.2243998E+01  0.0000000E+00  1.0000000E+00
 23  2  3  3   0   0 -1.3130339E+02  1.1330639E+02 -1.9653383E+03  1.9750692E+03  9.0910832E+01  0.0000000E+00  1.0000000E+00
-11  1  4  4   0   0  1.3306192E+02 -8.5035483E+01  3.7322229E+00  1.5795707E+02  4.3702847E-06  0.0000000E+00  1.0000000E+00
 11  1  4  4   0   0 -1.7585320E+00 -2.8270909E+01  3.0173169E+01  4.1385467E+01  9.9908480E-06  0.0000000E+00  1.0000000E+00
-13  1  5  5   0   0 -5.1471441E+01  2.6245639E+01 -1.1234544E+03  1.1249391E+03  2.1579186E-05  0.0000000E+00  1.0000000E+00
 13  1  5  5   0   0 -7.9831946E+01  8.7060753E+01 -8.4188382E+02  8.5013003E+02  0.0000000E+00  0.0000000E+00  1.0000000E+00
</event>
<event>
9 100 1.0000000E+00 1.0000000E+03 7.8125000E-03 0.0000000E+00
 21 -1  0  0 501 502  0.0000000E+00  0.0000000E+00  9.8096263E+02  9.8096263E+02  0.0000000E+00  0.0000000E+00  1.0000000E+00
 21 -1  0  0 502 501  0.0000000E+00  0.0000000E+00 -2.6401431E+02  2.6401431E+02  0.0000000E+00  0.0000000E+00  1.0000000E+00
 39  2  1  2   0   0 -1.5631940E-12 -2.6147973E-12  7.1694832E+02  1.2449769E+03  1.0178176E+03  0.0000000E+00  1.0000000E+00
 23  2  3  3   0   0 -1.4167671E+02 -2.3856321E+02  8.6815259E+02  9.1598019E+02  9.1357008E+01  0.0000000E+00  1.0000000E+00
 23  2  3  3   0   0  1.4167671E+02  2.3856321E+02 -1.5120427E+02  3.2899674E+02  9.1604774E+01  0.0000000E+00  1.0000000E+00
-11  1  4  4   0   0 -1.4275003E+02 -1.7282441E+02  6.2043211E+02  6.5968315E+02  4.6720309E-06  0.0000000E+00  1.0000000E+00
 11  1  4  4   0   0  1.0733218E+00 -6.5738797E+01  2.4772047E+02  2.5629704E+02  0.0000000E+00  0.0000000E+00  1.0000000E+00
-13  1  5  5   0   0  7.3148211E+01  1.2218171E+02 -2.5854753E+01  1.4473251E+02  5.8788433E-06  0.0000000E+00  1.0000000E+00
 13  1  5  5   0   0  6.8528501E+01  1.1638149E+02 -1.2534951E+02  1.8426423E+02  5.7911672E-06  0.0000000E+00  1.0000000E+00
</event>
<event>
9 100 1.0000000E+00 1.0000000E+03 7.8125000E-03 0.0000000E+00
 21 -1  0  0 501 502  0.0000000E+00  0.0000000E+00  5.5180814E+02  5.5180814E+02  0.0000000E+00  0.0000000E+00  1.0000000E+00
 21 -1  0  0 502 501  0.0000000E+00  0.0000000E+00 -4.4896818E+02  4.4896818E+02  0.0000000E+00  0.0000000E+00  1.0000000E+00
 39  2  1  2   0   0  1.1937118E-12  5.9685590E-13  1.0283996E+02  1.0007763E+03  9.9547837E+02  0.0000000E+00  1.0000000E+00
 23  2  3  3   0   0 -3.1703401E+02 -1.3996643E+02 -2.9525343E+02  4.6458977E+02  9.2563003E+01  0.0000000E+00  1.0000000E+00
 23  2  3  3   0   0  3.1703401E+02  1.3996643E+02  3.9809338E+02  5.3618655E+02  9.4427275E+01  0.0000000E+00  1.0000000E+00
-11  1  4  4   0   0 -9.4286552E+01 -1.9822727E+01 -3.7584040E+01  1.0341883E+02  1.7481139E-05  0.0000000E+00  1.0000000E+00
 11  1  4  4   0   0 -2.2274745E+02 -1.2014370E+02 -2.5766939E+02  3.6117094E+02  5.9937501E-06  0.0000000E+00  1.0000000E+00
-13  1  5  5   0   0  2.5653577E+01  6.4279158E+00  8.1439560E+01  8.5626083E+01  2.5303839E-05  0.0000000E+00  1.0000000E+00
 13  1  5  5   0   0  2.9138043E+02  1.3353851E+02  3.1665382E+02  4.5056047E+02  6.1064951E-06  0.0000000E+00  1.0000000E+00
</event>
<event>
9 100 1.0000000E+00 1.0000000E+03 7.8125000E-03 0.0000000E+00
 21 -1  0  0 501 502  0.0000000E+00  0.0000000E+00  1.7477616E+02  1.7477616E+02  0.0000000E+00  0.0000000E+00  1.0000000E+00
 21 -1  0  0 502 501  0.0000000E+00  0.0000000E+00 -1.4511149E+03  1.4511149E+03  0.0000000E+00  0.0000000E+00  1.0000000E+00
 39  2  1  2   0   0  4.5474735E-13 -1.5347723E-12 -1.2763387E+03  1.6258910E+03  1.0072145E+03  0.0000000E+00  1.0000000E+00
 23  2  3  3   0   0 -1.2322886E+02  4.0532499E+02 -1.0525243E+03  1.1382275E+03  9.0999719E+01  0.0000000E+00  1.0000000E+00
 23  2  3  3   0   0  1.2322886E+02 -4.0532499E+02 -2.2381447E+02  4.8766350E+02  9.0824399E+01  0.0000000E+00  1.0000000E+00
-11  1  4  4   0   0 -1.3238941E+02  3.9956026E+02 -1.0381272E+03  1.1202158E+03  2.9200193E-07  0.0000000E+00  1.0000000E+00
 11  1  4  4   0   0  9.1605461E+00  5.7647290E+00 -1.4397009E+01  1.8011706E+01  1.5258789E-05  0.0000000E+00  1.0000000E+00
-13  1  5  5   0   0  9.7906639E+01 -1.7153416E+02 -1.1500766E+02  2.2855292E+02  1.0789593E-05  0.0000000E+00  1.0000000E+00
 13  1  5  5   0   0  2.5322222E+01 -2.3379083E+02 -1.0880682E+02  2.5911058E+02  6.8770433E-06  0.0000000E+00  1.0000000E+00
</event>
<event>
9 100 1.0000000E+00 1.0000000E+03 7.8125000E-03 0.0000000E+00
 21 -1  0  0 501 502  0.0000000E+00  0.0000000E+00  1.7762623E+03  1.7762623E+03  0.0000000E+00  0.0000000E+00  1.0000000E+00
 21 -1  0  0 502 501  0.0000000E+00  0.0000000E+00 -1.4163706E+02  1.4163706E+02  0.0000000E+00  0.0000000E+00  1.0000000E+00
 39  2  1  2   0   0 -1.0658141E-13 -1.5916157E-12  1.6346252E+03  1.9178994E+03  1.0031641E+03  0.0000000E+00  1.0000000E+00
 23  2  3  3   0   0  2.5746066E+01  3.7932386E+02  2.1673023E+02  4.4698624E+02  9.0968393E+01  0.0000000E+00  1.0000000E+00
 23  2  3  3   0   0 -2.5746066E+01 -3.7932386E+02  1.4178950E+03  1.4709131E+03  9.2788539E+01  0.0000000E+00  1.0000000E+00
-11  1  4  4   0   0  7.0308577E+00  2.4879982E+02  9.1641611E+01  2.6523380E+02  1.0873560E-05  0.0000000E+00  1.0000000E+00
 11  1  4  4   0   0  1.8715208E+01  1.3052404E+02  1.2508862E+02  1.8175243E+02  1.4957797E-05  0.0000000E+00  1.0000000E+00
-13  1  5  5   0   0 -1.6979708E+01 -3.6647811E+02  1.2620043E+03  1.3142486E+03  5.3947966E-06  0.0000000E+00  1.0000000E+00
 13  1  5  5   0   0 -8.7663575E+00 -1.2845752E+01  1.5589067E+02  1.5666449E+02  3.0517578E-05  0.0000000E+00  1.0000000E+00
</event>
<event>
9 100 1.0000000E+00 1.0000000E+03 7.8125000E-03 0.0000000E+00
 21 -1  0  0 501 502  0.0000000E+00  0.0000000E+00  5.6091169E+02  5.6091169E+02  0.0000000E+00  0.0000000E+00  1.0000000E+00
 21 -1  0  0 502 501  0.0000000E+00  0.0000000E+00 -4.5031122E+02  4.5031122E+02  0.0000000E+00  0.0000000E+00  1.0000000E+00
 39  2  1  2   0   0  7.1054274E-15  2.2737368E-13  1.1060047E+02  1.0112229E+03  1.0051564E+03  0.0000000E+00  1.0000000E+00
 23  2  3  3   0   0  9.7835577E+00  1.8705079E+02  5.1539517E+02  5.5562234E+02  8.9444322E+01  0.0000000E+00  1.0000000E+00
 23  2  3  3   0   0 -9.7835577E+00 -1.8705079E+02 -4.0479470E+02  4.5560057E+02  9.2894645E+01  0.0000000E+00  1.0000000E+00
-11  1  4  4   0   0  2.7722364E+01  1.7887905E+02  4.0684227E+02  4.4529415E+02  5.8788433E-06  0.0000000E+00  1.0000000E+00
 11  1  4  4   0   0 -1.7938807E+01  8.1717397E+00  1.0855290E+02  1.1032820E+02  1.6184390E-05  0.0000000E+00  1.0000000E+00
-13  1  5  5   0   0 -2.7280112E+01 -1.0236156E+02 -1.3099596E+02  1.6846968E+02  1.3754087E-05  0.0000000E+00  1.0000000E+00
 13  1  5  5   0   0  1.7496554E+01 -8.4689228E+01 -2.7379874E+02  2.8713089E+02  1.0092740E-05  0.0000000E+00  1.0000000E+00
</event>
<event>
9 100 1.0000000E+00 1.0000000E+03 7.8125000E-03 0.0000000E+00
 21 -1  0  0 501 502  0.0000000E+00  0.0000000E+00  1.9245816E+02  1.9245816E+02  0.0000000E+00  0.0000000E+00  1.0000000E+00
 21 -1  0  0 502 501  0.0000000E+00  0.0000000E+00 -1.3518996E+03  1.3518996E+03  0.0000000E+00  0.0000000E+00  1.0000000E+00
 39  2  1  2   0   0 -1.5916157E-12 -2.1316282E-13 -1.1594414E+03  1.5443577E+03  1.0201649E+03  0.0000000E+00  1.0000000E+00
 23  2  3  3   0   0 -2.1764365E+02 -2.7366167E+01  1.0268155E+02  2.5991045E+02  9.4298847E+01  0.0000000E+00  1.0000000E+00
 23  2  3  3   0   0  2.1764365E+02  2.7366167E+01 -1.2621230E+03  1.2844473E+03  9.3449308E+01  0.0000000E+00  1.0000000E+00
-11  1  4  4   0   0 -1.2944370E+02  3.0867968E+01  5.7967713E+01  1.4515081E+02  9.3196966E-06  0.0000000E+00  1.0000000E+00
 11  1  4  4   0   0 -8.8199953E+01 -5.8234134E+01  4.4713838E+01  1.1475963E+02  1.1384331E-05  0.0000000E+00  1.0000000E+00
-13  1  5  5   0   0 -7.8373322E+00 -2.6401048E+00 -9.5348181E+01  9.5706163E+01  3.4119690E-05  0.0000000E+00  1.0000000E+00
 13  1  5  5   0   0  2.2548098E+02  3.0006271E+01 -1.1667748E+03  1.1887411E+03  5.5608291E-06  0.0000000E+00  1.0000000E+00
</event>
<event>
9 100 1.0000000E+00 1.0000000E+03 7.8125000E-03 0.0000000E+00
 21 -1  0  0 501 502  0.0000000E+00  0.0000000E+00  6.3219658E+02  6.3219658E+02  0.0000000E+00  0.0000000E+00  1.0000000E+00
 21 -1  0  0 502 501  0.0000000E+00  0.0000000E+00 -3.7160591E+02  3.7160591E+02  0.0000000E+00  0.0000000E+00  1.0000000E+00
 39  2  1  2   0   0  1.7621460E-12 -6.2527761E-13  2.6059067E+02  1.0038025E+03  9.6938741E+02  0.0000000E+00  1.0000000E+00
 23  2  3  3   0   0  4.1970592E+02 -1.4612080E+02  3.0583542E+02  5.4725607E+02  9.1921458E+01  0.0000000E+00  1.0000000E+00
 23  2  3  3   0   0 -4.1970592E+02  1.4612080E+02 -4.5244754E+01  4.5654642E+02  9.4250710E+01  0.0000000E+00  1.0000000E+00
-11  1  4  4   0   0  3.6519275E+02 -1.0078927E+02  2.8263016E+02  4.7265635E+02  7.5394575E-07  0.0000000E+00  1.0000000E+00
 11  1  4  4   0   0  5.4513173E+01 -4.5331538E+01  2.3205265E+01  7.4599723E+01  1.1444092E-05  0.0000000E+00  1.0000000E+00
-13  1  5  5   0   0 -3.9550656E+02  1.0966347E+02 -4.3878390E+01  4.1276728E+02  2.6427620E-06  0.0000000E+00  1.0000000E+00
 13  1  5  5   0   0 -2.4199365E+01  3.6457331E+01 -1.3663641E+00  4.3779141E+01  1.4642861E-05  0.0000000E+00  1.0000000E+00
</event>
<event>
9 100 1.0000000E+00 1.0000000E+03 7.8125000E-03 0.0000000E+00
 21 -1  0  0 501 502  0.0000000E+00  0.0000000E+00  3.3721510E+02  3.3721510E+02  0.0000000E+00  0.0000000E+00  1.0000000E+00
 21 -1  0  0 502 501  0.0000000E+00  0.0000000E+00 -7.5086000E+02  7.5086000E+02  0.0000000E+00  0.0000000E+00  1.0000000E+00
 39  2  1  2   0   0 -2.9842795E-13  7.9580786E-13 -4.1364490E+02  1.0880751E+03  1.0063823E+03  0.0000000E+00  1.0000000E+00
 23  2  3  3   0   0  1.2611872E+02 -4.2899735E+02 -4.3651360E+02  6.3126155E+02  8.9455861E+01  0.0000000E+00  1.0000000E+00
 23  2  3  3   0   0 -1.2611872E+02  4.2899735E+02  2.2868705E+01  4.5681356E+02  9.0614502E+01  0.0000000E+00  1.0000000E+00
-11  1  4  4   0   0  8.0150170E+01 -3.5084002E+02 -3.0625669E+02  4.7255257E+02  4.2649612E-06  0.0000000E+00  1.0000000E+00
 11  1  4  4   0   0  4.5968549E+01 -7.8157338E+01 -1.3025691E+02  1.5870898E+02  7.6293945E-06  0.0000000E+00  1.0000000E+00
-13  1  5  5   0   0 -4.4988158E+01  4.4524994E+01  3.9440779E+00  6.3418966E+01  1.5634152E-06  0.0000000E+00  1.0000000E+00
 13  1  5  5   0   0 -8.1130560E+01  3.8447236E+02  1.8924627E+01  3.9339459E+02  3.3680580E-06  0.0000000E+00  1.0000000E+00
</event>
<event>
9 100 1.0000000E+00 1.0000000E+03 7.8125000E-03 0.0000000E+00
 21 -1  0  0 501 502  0.0000000E+00  0.0000000E+00  2.2982348E+02  2.2982348E+02  0.0000000E+00  0.0000000E+00  1.0000000E+00
 21 -1  0  0 502 501  0.0000000E+00  0.0000000E+00 -1.0730097E+03  1.0730097E+03  0.0000000E+00  0.0000000E+00  1.0000000E+00
 39  2  1  2   0   0  8.5265128E-14 -4.9737992E-14 -8.4318625E+02  1.3028332E+03  9.9318242E+02  0.0000000E+00  1.0000000E+00
 23  2  3  3   0   0 -1.1795682E+02  5.3616778E+01  1.9624850E+02  2.4897920E+02  8.1783840E+01  0.0000000E+00  1.0000000E+00
 23  2  3  3   0   0  1.1795682E+02 -5.3616778E+01 -1.0394348E+03  1.0538540E+03  1.1573713E+02  0.0000000E+00  1.0000000E+00
-11  1  4  4   0   0 -1.0586530E+02  5.4232141E+01  2.0287735E+02  2.3517612E+02  1.9840380E-06  0.0000000E+00  1.0000000E+00
 11  1  4  4   0   0 -1.2091522E+01 -6.1536234E-01 -6.6288447E+00  1.3803085E+01  7.6293945E-06  0.0000000E+00  1.0000000E+00
-13  1  5  5   0   0  1.3198014E+02 -3.8977482E+01 -6.7658855E+02  6.9044194E+02  1.0789593E-05  0.0000000E+00  1.0000000E+00
 13  1  5  5   0   0 -1.4023321E+01 -1.4639296E+01 -3.6284620E+02  3.6341207E+02  1.0789593E-05  0.0000000E+00  1.0000000E+00
</event>
<event>
9 100 1.0000000E+00 1.0000000E+03 7.8125000E-03 0.0000000E+00
 21 -1  0  0 501 502  0.0000000E+00  0.0000000E+00  3.0752331E+02  3.0752331E+02  0.0000000E+00  0.0000000E+00  1.0000000E+00
 21 -1  0  0 502 501  0.0000000E+00  0.0000000E+00 -8.1934531E+02  8.1934531E+02  0.0000000E+00  0.0000000E+00  1.0000000E+00
 39  2  1  2   0   0 -1.9895197E-13 -9.6633812E-13 -5.1182200E+02  1.1268686E+03  1.0039279E+03  0.0000000E+00  1.0000000E+00
 23  2  3  3   0   0  8.8320840E+01  3.8850052E+02 -5.7808402E+02  7.1266686E+02  1.2239157E+02  0.0000000E+00  1.0000000E+00
 23  2  3  3   0   0 -8.8320840E+01 -3.8850052E+02  6.6262026E+01  4.1420176E+02  9.1865210E+01  0.0000000E+00  1.0000000E+00
-11  1  4  4   0   0  8.2635592E+01  1.1240667E+02 -1.6983883E+02  2.1979338E+02  1.0789593E-05  0.0000000E+00  1.0000000E+00
 11  1  4  4   0   0  5.6852488E+00  2.7609385E+02 -4.0824519E+02  4.9287348E+02  8.7405695E-06  0.0000000E+00  1.0000000E+00
-13  1  5  5   0   0 -8.5239086E+01 -3.8752516E+02  7.5946804E+01  4.0399179E+02  1.2215317E-06  0.0000000E+00  1.0000000E+00
 13  1  5  5   0   0 -3.0817547E+00 -9.7536065E-01 -9.6847771E+00  1.0209968E+01  9.5843083E-06  0.0000000E+00  1.0000000E+00
</event>
<event>
9 100 1.0000000E+00 1.0000000E+03 7.8125000E-03 0.0000000E+00
 21 -1  0  0 501 502  0.0000000E+00  0.0000000E+00  7.4431231E+02  7.4431231E+02  0.0000000E+00  0.0000000E+00  1.0000000E+00
 21 -1  0  0 502 501  0.0000000E+00  0.0000000E+00 -3.2044909E+02  3.2044909E+02  0.0000000E+00  0.0000000E+00  1.0000000E+00
 39  2  1  2   0   0  1.0231815E-12 -8.8107299E-13  4.2386322E+02  1.0647614E+03  9.7675832E+02  0.0000000E+00  1.0000000E+00
 23  2  3  3   0   0  2.7204068E+02 -2.4768024E+02 -1.2395141E+02  3.9836900E+02  8.9343577E+01  0.0000000E+00  1.0000000E+00
 23  2  3  3   0   0 -2.7204068E+02  2.4768024E+02  5.4781463E+02  6.6639240E+02  9.2878045E+01  0.0000000E+00  1.0000000E+00
-11  1  4  4   0   0  2.0979674E+02 -1.9791802E+02 -5.6362550E+01  2.9387574E+02  3.4385216E-06  0.0000000E+00  1.0000000E+00
 11  1  4  4   0   0  6.2243938E+01 -4.9762224E+01 -6.7588864E+01  1.0449326E+02  8.7145171E-06  0.0000000E+00  1.0000000E+00
-13  1  5  5   0   0 -6.6628972E+01  7.8662105E+01  2.2929963E+02  2.5140697E+02  1.0092740E-05  0.0000000E+00  1.0000000E+00
 13  1  5  5   0   0 -2.0541171E+02  1.6901814E+02  3.1851500E+02  4.1498543E+02  8.5299224E-06  0.0000000E+00  1.0000000E+00
</event>
<event>
9 100 1.0000000E+00 1.0000000E+03 7.8125000E-03 0.0000000E+00
 21 -1  0  0 501 502  0.0000000E+00  0.0000000E+00  3.2169426E+02  3.2169426E+02  0.0000000E+00  0.0000000E+00  1.0000000E+00
 21 -1  0  0 502 501  0.0000000E+00  0.0000000E+00 -7.8107097E+02  7.8107097E+02  0.0000000E+00  0.0000000E+00  1.0000000E+00
 39  2  1  2   0   0  0.0000000E+00  0.0000000E+00 -4.5937671E+02  1.1027652E+03  1.0025289E+03  0.0000000E+00  1.0000000E+00
 23  2  3  3   0   0  3.8603710E+01  4.6343873E+02 -4.1333718E+02  6.2917270E+02  9.3514485E+01  0.0000000E+00  1.0000000E+00
 23  2  3  3   0   0 -3.8603710E+01 -4.6343873E+02 -4.6039527E+01  4.7359253E+02  7.6841012E+01  0.0000000E+00  1.0000000E+00
-11  1  4  4   0   0  5.6441865E+01  3.0567275E+02 -2.3023312E+02  3.8681883E+02  1.1444092E-05  0.0000000E+00  1.0000000E+00
 11  1  4  4   0   0 -1.7838155E+01  1.5776599E+02 -1.8310406E+02  2.4235388E+02  1.0092740E-05  0.0000000E+00  1.0000000E+00
-13  1  5  5   0   0 -3.2456251E+01 -3.3430452E+02 -6.7364270E+01  3.4256512E+02  3.9609069E-06  0.0000000E+00  1.0000000E+00
 13  1  5  5   0   0 -6.1474591E+00 -1.2913422E+02  2.1324742E+01  1.3102741E+02  1.1203137E-05  0.0000000E+00  1.0000000E+00
</event>
<event>
9 100 1.0000000E+00 1.0000000E+03 7.8125000E-03 0.0000000E+00
 21 -1  0  0 501 502  0.0000000E+00  0.0000000E+00  3.6996176E+02  3.6996176E+02  0.0000000E+00  0.0000000E+00  1.0000000E+00
 21 -1  0  0 502 501  0.0000000E+00  0.0000000E+00 -6.7309433E+02  6.7309433E+02  0.0000000E+00  0.0000000E+00  1.0000000E+00
 39  2  1  2   0   0 -1.5063506E-12 -1.1368684E-12 -3.0313257E+02  1.0430561E+03  9.9803640E+02  0.0000000E+00  1.0000000E+00
 23  2  3  3   0   0 -2.1866162E+02 -1.6889894E+02 -5.7548281E+02  6.4457640E+02  8.9210549E+01  0.0000000E+00  1.0000000E+00
 23  2  3  3   0   0  2.1866162E+02  1.6889894E+02  2.7235024E+02  3.9847969E+02  9.0948650E+01  0.0000000E+00  1.0000000E+00
-11  1  4  4   0   0 -1.8140972E+01 -3.0703704E+01 -2.7890084E+01  4.5273271E+01  1.5258789E-05  0.0000000E+00  1.0000000E+00
 11  1  4  4   0   0 -2.0052065E+02 -1.3819524E+02 -5.4759272E+02  5.9930313E+02  2.2868307E-06  0.0000000E+00  1.0000000E+00
-13  1  5  5   0   0  3.5742775E+01 -7.2210477E+00  4.2230696E+01  5.5795351E+01  1.4774259E-05  0.0000000E+00  1.0000000E+00
 13  1  5  5   0   0  1.8291884E+02  1.7611999E+02  2.3011954E+02  3.4268434E+02  4.5736613E-06  0.0000000E+00  1.0000000E+00
</event>
<event>
9 100 1.0000000E+00 1.0000000E+03 7.8125000E-03 0.0000000E+00
 21 -1  0  0 501 502  0.0000000E+00  0.0000000E+00  2.2121935E+02  2.2121935E+02  0.0000000E+00  0.0000000E+00  1.0000000E+00
 21 -1  0  0 502 501  0.0000000E+00  0.0000000E+00 -1.1314898E+03  1.1314898E+03  0.0000000E+00  0.0000000E+00  1.0000000E+00
 39  2  1  2   0   0  2.3874236E-12  1.9895197E-12 -9.1027041E+02  1.3527091E+03  1.0006147E+03  0.0000000E+00  1.0000000E+00
 23  2  3  3   0   0 -3.7237044E+02 -3.1047402E+02 -3.4406987E+02  6.0167062E+02  9.2572078E+01  0.0000000E+00  1.0000000E+00
 23  2  3  3   0   0  3.7237044E+02  3.1047402E+02 -5.6620053E+02  7.5103850E+02  9.1771001E+01  0.0000000E+00  1.0000000E+00
-11  1  4  4   0   0 -3.3328295E+02 -2.8670054E+02 -3.3995317E+02  5.5573634E+02  3.8779682E-06  0.0000000E+00  1.0000000E+00
 11  1  4  4   0   0 -3.9087492E+01 -2.3773479E+01 -4.1167057E+00  4.5934275E+01  2.3515373E-05  0.0000000E+00  1.0000000E+00
-13  1  5  5   0   0  4.2863093E+01  4.8453515E+00 -6.3058624E+01  7.6400997E+01  9.3440618E-06  0.0000000E+00  1.0000000E+00
 13  1  5  5   0   0  3.2950735E+02  3.0562867E+02 -5.0314191E+02  6.7463750E+02  9.5367432E-07  0.0000000E+00  1.0000000E+00
</event>
<event>
9 100 1.0000000E+00 1.0000000E+03 7.8125000E-03 0.0000000E+00
 21 -1  0  0 501 502  0.0000000E+00  0.0000000E+00  5.8542548E+02  5.8542548E+02  0.0000000E+00  0.0000000E+00  1.0000000E+00
 21 -1  0  0 502 501  0.0000000E+00  0.0000000E+00 -4.2754482E+02  4.2754482E+02  0.0000000E+00  0.0000000E+00  1.0000000E+00
 39  2  1  2   0   0  9.0949470E-13  6.5369932E-13  1.5788065E+02  1.0129703E+03  1.0005911E+03  0.0000000E+00  1.0000000E+00
 23  2  3  3   0   0  3.1780293E+02  2.3643109E+02  3.7398381E+02  5.5265169E+02  9.3067900E+01  0.0000000E+00  1.0000000E+00
 23  2  3  3   0   0 -3.1780293E+02 -2.3643109E+02 -2.1610316E+02  4.6031861E+02  9.1072944E+01  0.0000000E+00  1.0000000E+00
-11  1  4  4   0   0  3.0981029E+02  2.0747585E+02  3.2221459E+02  4.9279903E+02  3.5040232E-06  0.0000000E+00  1.0000000E+00
 11  1  4  4   0   0  7.9926440E+00  2.8955243E+01  5.1769223E+01  5.9852660E+01  8.5299224E-06  0.0000000E+00  1.0000000E+00
-13  1  5  5   0   0 -3.1632721E+02 -2.1906048E+02 -2.1886965E+02  4.4266728E+02  1.3930793E-06  0.0000000E+00  1.0000000E+00
 13  1  5  5   0   0 -1.4757263E+00 -1.7370614E+01  2.7664929E+00  1.7651331E+01  7.1366451E-06  0.0000000E+00  1.0000000E+00
</event>
<event>
9 100 1.0000000E+00 1.0000000E+03 7.8125000E-03 0.0000000E+00
 21 -1  0  0 501 502  0.0000000E+00  0.0000000E+00  9.1786133E+01  9.1786133E+01  0.0000000E+00  0.0000000E+00  1.0000000E+00
 21 -1  0  0 502 501  0.0000000E+00  0.0000000E+00 -2.7022301E+03  2.7022301E+03  0.0000000E+00  0.0000000E+00  1.0000000E+00
 39  2  1  2   0   0 -2.2453150E-12  1.7621460E-12 -2.6104440E+03  2.7940162E+03  9.9604669E+02  0.0000000E+00  1.0000000E+00
 23  2  3  3   0   0 -1.9859457E+02  1.5320856E+02 -1.2366748E+02  2.9304285E+02  8.7565959E+01  0.0000000E+00  1.0000000E+00
 23  2  3  3   0   0  1.9859457E+02 -1.5320856E+02 -2.4867765E+03  2.5009734E+03  8.8870233E+01  0.0000000E+00  1.0000000E+00
-11  1  4  4   0   0 -3.8140830E+01 -6.1317886E+00 -2.6924332E+01  4.7087592E+01  1.4525934E-05  0.0000000E+00  1.0000000E+00
 11  1  4  4   0   0 -1.6045374E+02  1.5934035E+02 -9.6743152E+01  2.4595526E+02  4.4091325E-06  0.0000000E+00  1.0000000E+00
-13  1  5  5   0   0  9.8114584E+01 -4.7326903E+01 -1.4330953E+03  1.4372294E+03  2.6428998E-05  0.0000000E+00  1.0000000E+00
 13  1  5  5   0   0  1.0047999E+02 -1.0588166E+02 -1.0536812E+03  1.0637440E+03  3.0517578E-05  0.0000000E+00  1.0000000E+00
</event>
<event>
9 100 1.0000000E+00 1.0000000E+03 7.8125000E-03 0.0000000E+00
 21 -1  0  0 501 502  0.0000000E+00  0.0000000E+00  1.1839070E+03  1.1839070E+03  0.0000000E+00  0.0000000E+00  1.0000000E+00
 21 -1  0  0 502 501  0.0000000E+00  0.0000000E+00 -1.8434395E+02  1.8434395E+02  0.0000000E+00  0.0000000E+00  1.0000000E+00
 39  2  1  2   0   0  2.5579538E-13 -1.3642421E-12  9.9956305E+02  1.3682510E+03  9.3433634E+02  0.0000000E+00  1.0000000E+00
 23  2  3  3   0   0 -7.0631104E+01  3.9262503E+02  1.6987686E+02  4.4313715E+02  9.1483448E+01  0.0000000E+00  1.0000000E+00
 23  2  3  3   0   0  7.0631104E+01 -3.9262503E+02  8.2968619E+02  9.2511381E+02  9.1176871E+01  0.0000000E+00  1.0000000E+00
-11  1  4  4   0   0  1.8666981E+00  1.6152836E+02  1.0405140E+02  1.9214991E+02  8.3139399E-06  0.0000000E+00  1.0000000E+00
 11  1  4  4   0   0 -7.2497802E+01  2.3109667E+02  6.5825456E+01  2.5098724E+02  6.6072495E-06  0.0000000E+00  1.0000000E+00
-13  1  5  5   0   0  7.3913040E+01 -1.6015049E+02  3.3953299E+02  3.8261464E+02  1.0789593E-05  0.0000000E+00  1.0000000E+00
 13  1  5  5   0   0 -3.2819365E+00 -2.3247454E+02  4.9015321E+02  5.4249917E+02  9.3440618E-06  0.0000000E+00  1.0000000E+00
</event>
<event>
9 100 1.0000000E+00 1.0000000E+03 7.8125000E-03 0.0000000E+00
 21 -1  0  0 501 502  0.0000000E+00  0.0000000E+00  1.9344454E+02  1.9344454E+02  0.0000000E+00  0.0000000E+00  1.0000000E+00
 21 -1  0  0 502 501  0.0000000E+00  0.0000000E+00 -1.2404852E+03  1.2404852E+03  0.0000000E+00  0.0000000E+00  1.0000000E+00
 39  2  1  2   0   0 -4.8316906E-13 -8.6686214E-13 -1.0470407E+03  1.4339298E+03  9.7972465E+02  0.0000000E+00  1.0000000E+00
 23  2  3  3   0   0  6.4111020E+01  1.1571412E+02 -1.2007825E+03  1.2114975E+03  9.1364856E+01  0.0000000E+00  1.0000000E+00
 23  2  3  3   0   0 -6.4111020E+01 -1.1571412E+02  1.5374185E+02  2.2243227E+02  9.1321282E+01  0.0000000E+00  1.0000000E+00
-11  1  4  4   0   0  6.0211065E+01  6.5442365E+01 -4.3171306E+02  4.4077686E+02  2.1579186E-05  0.0000000E+00  1.0000000E+00
 11  1  4  4   0   0  3.8999543E+00  5.0271755E+01 -7.6906945E+02  7.7072063E+02  1.6184390E-05  0.0000000E+00  1.0000000E+00
-13  1  5  5   0   0 -2.2259237E+01 -7.9152456E+00  8.4295729E+01  8.7543673E+01  4.5736613E-06  0.0000000E+00  1.0000000E+00
 13  1  5  5   0   0 -4.1851782E+01 -1.0779887E+02  6.9446119E+01  1.3488859E+02  3.0157830E-06  0.0000000E+00  1.0000000E+00
</event>
<event>
9 100 1.0000000E+00 1.0000000E+03 7.8125000E-03 0.0000000E+00
 21 -1  0  0 501 502  0.0000000E+00  0.0000000E+00  1.0310796E+02  1.0310796E+02  0.0000000E+00  0.0000000E+00  1.0000000E+00
 21 -1  0  0 502 501  0.0000000E+00  0.0000000E+00 -2.4605696E+03  2.4605696E+03  0.0000000E+00  0.0000000E+00  1.0000000E+00
 39  2  1  2   0   0 -1.4722445E-11 -2.2311042E-12 -2.3574616E+03  2.5636776E+03  1.0073814E+03  0.0000000E+00  1.0000000E+00
 23  2  3  3   0   0  4.1002121E+02  6.2099715E+01 -4.8822152E+02  6.4682259E+02  8.9696388E+01  0.0000000E+00  1.0000000E+00
 23  2  3  3   0   0 -4.1002121E+02 -6.2099715E+01 -1.8692401E+03  1.9168550E+03  9.1107608E+01  0.0000000E+00  1.0000000E+00
-11  1  4  4   0   0  2.2680128E+02  2.1954956E+01 -3.3225630E+02  4.0288347E+02  1.2063132E-05  0.0000000E+00  1.0000000E+00
 11  1  4  4   0   0  1.8321993E+02  4.0144759E+01 -1.5596522E+02  2.4393912E+02  1.9451216E-05  0.0000000E+00  1.0000000E+00
-13  1  5  5   0   0 -3.4693812E+02 -2.5287873E+01 -1.6304241E+03  1.6671197E+03  8.5299224E-06  0.0000000E+00  1.0000000E+00
 13  1  5  5   0   0 -6.3083088E+01 -3.6811842E+01 -2.3881607E+02  2.4973526E+02  5.2857996E-05  0.0000000E+00  1.0000000E+00
</event>
<event>
9 100 1.0000000E+00 1.0000000E+03 7.8125000E-03 0.0000000E+00
 21 -1  0  0 501 502  0.0000000E+00  0.0000000E+00  7.3055301E+02  7.3055301E+02  0.0000000E+00  0.0000000E+00  1.0000000E+00
 21 -1  0  0 502 501  0.0000000E+00  0.0000000E+00 -3.3439152E+02  3.3439152E+02  0.0000000E+00  0.0000000E+00  1.0000000E+00
 39  2  1  2   0   0 -8.5265128E-14 -1.7053026E-13  3.9616149E+02  1.0649445E+03  9.8851551E+02  0.0000000E+00  1.0000000E+00
 23  2  3  3   0   0 -9.1980564E+01 -2.1720374E+02 -2.5954153E+02  3.6237100E+02  9.1175928E+01  0.0000000E+00  1.0000000E+00
 23  2  3  3   0   0  9.1980564E+01  2.1720374E+02  6.5570302E+02  7.0257352E+02  8.9583622E+01  0.0000000E+00  1.0000000E+00
-11  1  4  4   0   0 -2.9447311E+01 -7.8386517E+01 -3.4275514E+01  9.0478733E+01  4.6720309E-06  0.0000000E+00  1.0000000E+00
 11  1  4  4   0   0 -6.2533253E+01 -1.3881722E+02 -2.2526601E+02  2.7189227E+02  3.4714269E-06  0.0000000E+00  1.0000000E+00
-13  1  5  5   0   0  6.6784013E+01  1.1991395E+02  4.8920406E+02  5.0809455E+02  7.1366451E-06  0.0000000E+00  1.0000000E+00
 13  1  5  5   0   0  2.5196550E+01  9.7289790E+01  1.6649896E+02  1.9447897E+02  1.6184390E-05  0.0000000E+00  1.0000000E+00
</event>
<event>
9 100 1.0000000E+00 1.0000000E+03 7.8125000E-03 0.0000000E+00
 21 -1  0  0 501 502  0.0000000E+00  0.0000000E+00  5.0342237E+02  5.0342237E+02  0.0000000E+00  0.0000000E+00  1.0000000E+00
 21 -1  0  0 502 501  0.0000000E+00  0.0000000E+00 -4.9613527E+02  4.9613527E+02  0.0000000E+00  0.0000000E+00  1.0000000E+00
 39  2  1  2   0   0  2.8421709E-13  1.4210855E-13  7.2871052E+00  9.9955764E+02  9.9953107E+02  0.0000000E+00  1.0000000E+00
 23  2  3  3   0   0  4.1065162E+02  2.4729792E+02  1.1206474E+02  5.0068465E+02  9.1299465E+01  0.0000000E+00  1.0000000E+00
 23  2  3  3   0   0 -4.1065162E+02 -2.4729792E+02 -1.0477763E+02  4.9887299E+02  9.0027158E+01  0.0000000E+00  1.0000000E+00
-11  1  4  4   0   0  2.2425339E+01  1.1577248E+01 -1.4615382E+01  2.9163982E+01  1.9263277E-05  0.0000000E+00  1.0000000E+00
 11  1  4  4   0   0  3.8822628E+02  2.3572068E+02  1.2668012E+02  4.7152066E+02  2.3602235E-06  0.0000000E+00  1.0000000E+00
-13  1  5  5   0   0 -7.7023528E+01 -6.5370973E+01 -5.6668314E+01  1.1583301E+02  1.2848085E-05  0.0000000E+00  1.0000000E+00
 13  1  5  5   0   0 -3.3362809E+02 -1.8192695E+02 -4.8109320E+01  3.8303998E+02  5.5608291E-06  0.0000000E+00  1.0000000E+00
</event>
<event>
9 100 1.0000000E+00 1.0000000E+03 7.8125000E-03 0.0000000E+00
 21 -1  0  0 501 502  0.0000000E+00  0.0000000E+00  1.9973120E+02  1.9973120E+02  0.0000000E+00  0.0000000E+00  1.0000000E+00
 21 -1  0  0 502 501  0.0000000E+00  0.0000000E+00 -1.3216860E+03  1.3216860E+03  0.0000000E+00  0.0000000E+00  1.0000000E+00
 39  2  1  2   0   0  1.2505552E-12 -1.4779289E-12 -1.1219548E+03  1.5214172E+03  1.0275834E+03  0.0000000E+00  1.0000000E+00
 23  2  3  3   0   0  1.6513491E+02 -1.9877692E+02 -1.2041302E+03  1.2353987E+03  9.7459936E+01  0.0000000E+00  1.0000000E+00
 23  2  3  3   0   0 -1.6513491E+02  1.9877692E+02  8.2175414E+01  2.8601855E+02  9.0950596E+01  0.0000000E+00  1.0000000E+00
-11  1  4  4   0   0  4.5811236E+01 -4.0660617E+01 -1.3744177E+02  1.5047324E+02  2.6428998E-05  0.0000000E+00  1.0000000E+00
 11  1  4  4   0   0  1.1932367E+02 -1.5811631E+02 -1.0666885E+03  1.0849254E+03  6.0315660E-06  0.0000000E+00  1.0000000E+00
-13  1  5  5   0   0 -9.9679123E+01  1.8013248E+02  6.0010055E+01  2.1444078E+02  4.4476409E-06  0.0000000E+00  1.0000000E+00
 13  1  5  5   0   0 -6.5455787E+01  1.8644438E+01  2.2165359E+01  7.1577778E+01  7.8352340E-06  0.0000000E+00  1.0000000E+00
</event>
<event>
9 100 1.0000000E+00 1.0000000E+03 7.8125000E-03 0.0000000E+00
 21 -1  0  0 501 502  0.0000000E+00  0.0000000E+00  1.0080499E+03  1.0080499E+03  0.0000000E+00  0.0000000E+00  1.0000000E+00
 21 -1  0  0 502 501  0.0000000E+00  0.0000000E+00 -2.4527173E+02  2.4527173E+02  0.0000000E+00  0.0000000E+00  1.0000000E+00
 39  2  1  2   0   0  1.3642421E-12 -1.1368684E-13  7.6277819E+02  1.2533216E+03  9.9447704E+02  0.0000000E+00  1.0000000E+00
 23  2  3  3   0   0  3.5928433E+02 -3.1677424E+01 -3.4077686E+01  3.7395460E+02  9.2693379E+01  0.0000000E+00  1.0000000E+00
 23  2  3  3   0   0 -3.5928433E+02  3.1677424E+01  7.9685587E+02  8.7936705E+02  9.0655534E+01  0.0000000E+00  1.0000000E+00
-11  1  4  4   0   0  9.1042236E+01  1.7915133E+01  2.2234610E+01  9.5414981E+01  6.6757202E-06  0.0000000E+00  1.0000000E+00
 11  1  4  4   0   0  2.6824209E+02 -4.9592557E+01 -5.6312295E+01  2.7853962E+02  3.3463642E-06  0.0000000E+00  1.0000000E+00
-13  1  5  5   0   0 -3.3634001E+02  4.1528848E+01  6.7875207E+02  7.5865250E+02  4.8628039E-06  0.0000000E+00  1.0000000E+00
 13  1  5  5   0   0 -2.2944325E+01 -9.8514246E+00  1.1810380E+02  1.2071454E+02  3.1456800E-05  0.0000000E+00  1.0000000E+00
</event>
<event>
9 100 1.0000000E+00 1.0000000E+03 7.8125000E-03 0.0000000E+00
 21 -1  0  0 501 502  0.0000000E+00  0.0000000E+00  8.3148056E+02  8.3148056E+02  0.0000000E+00  0.0000000E+00  1.0000000E+00
 21 -1  0  0 502 501  0.0000000E+00  0.0000000E+00 -3.0251041E+02  3.0251041E+02  0.0000000E+00  0.0000000E+00  1.0000000E+00
 39  2  1  2   0   0  1.7053026E-13  8.5265128E-14  5.2897015E+02  1.1339910E+03  1.0030584E+03  0.0000000E+00  1.0000000E+00
 23  2  3  3   0   0 -2.4457234E+02 -1.1607866E+02 -2.0083941E+02  3.5017233E+02  9.4838322E+01  0.0000000E+00  1.0000000E+00
 23  2  3  3   0   0  2.4457234E+02  1.1607866E+02  7.2980956E+02  7.8381864E+02  9.1977021E+01  0.0000000E+00  1.0000000E+00
-11  1  4  4   0   0 -9.3756072E+01 -2.3950283E+01 -2.3019580E+01  9.9467171E+01  9.3440618E-06  0.0000000E+00  1.0000000E+00
 11  1  4  4   0   0 -1.5081627E+02 -9.2128381E+01 -1.7781983E+02  2.5070516E+02  4.6353870E-06  0.0000000E+00  1.0000000E+00
-13  1  5  5   0   0  1.5051727E+02  3.9187903E+01  5.0333570E+02  5.2681872E+02  9.7256079E-06  0.0000000E+00  1.0000000E+00
 13  1  5  5   0   0  9.4055069E+01  7.6890761E+01  2.2647386E+02  2.5699991E+02  1.5258789E-05  0.0000000E+00  1.0000000E+00
</event>
<event>
9 100 1.0000000E+00 1.0000000E+03 7.8125000E-03 0.0000000E+00
 21 -1  0  0 501 502  0.0000000E+00  0.0000000E+00  5.7700218E+02  5.7700218E+02  0.0000000E+00  0.0000000E+00  1.0000000E+00
 21 -1  0  0 502 501  0.0000000E+00  0.0000000E+00 -2.0294834E+03  2.0294834E+03  0.0000000E+00  0.0000000E+00  1.0000000E+00
 39  2  1  2   0   0  1.1368684E-12 -5.6843419E-13 -1.4524813E+03  2.6064856E+03  2.1642702E+03  0.0000000E+00  1.0000000E+00
 23  2  3  3   0   0  9.3632437E+02 -5.2072442E+02 -5.8070067E+02  1.2221576E+03  9.2728949E+01  0.0000000E+00  1.0000000E+00
 23  2  3  3   0   0 -9.3632437E+02  5.2072442E+02 -8.7178059E+02  1.3843280E+03  9.2225074E+01  0.0000000E+00  1.0000000E+00
-11  1  4  4   0   0  4.0329591E+02 -1.8379111E+02 -2.7260296E+02  5.2032599E+02  1.6627880E-05  0.0000000E+00  1.0000000E+00
 11  1  4  4   0   0  5.3302846E+02 -3.3693330E+02 -3.0809771E+02  7.0183160E+02  1.5258789E-05  0.0000000E+00  1.0000000E+00
-13  1  5  5   0   0 -5.7310914E+02  2.6882989E+02 -5.2943772E+02  8.2524414E+02  1.7481139E-05  0.0000000E+00  1.0000000E+00
 13  1  5  5   0   0 -3.6321523E+02  2.5189453E+02 -3.4234286E+02  5.5908389E+02  3.1456800E-05  0.0000000E+00  1.0000000E+00
</event>
<event>
9 100 1.0000000E+00 1.0000000E+03 7.8125000E-03 0.0000000E+00
 21 -1  0  0 501 502  0.0000000E+00  0.0000000E+00  2.5411952E+02  2.5411952E+02  0.0000000E+00  0.0000000E+00  1.0000000E+00
 21 -1  0  0 502 501  0.0000000E+00  0.0000000E+00 -9.3940340E+02  9.3940340E+02  0.0000000E+00  0.0000000E+00  1.0000000E+00
 39  2  1  2   0   0  2.8990144E-12 -1.4566126E-13 -6.8528388E+02  1.1935229E+03  9.7718112E+02  0.0000000E+00  1.0000000E+00
 23  2  3  3   0   0 -4.3217433E+02  2.1225168E+01 -8.9277423E+01  4.5120563E+02  9.1601889E+01  0.0000000E+00  1.0000000E+00
 23  2  3  3   0   0  4.3217433E+02 -2.1225168E+01 -5.9600646E+02  7.4231728E+02  9.2661141E+01  0.0000000E+00  1.0000000E+00
-11  1  4  4   0   0 -3.0106153E+02  4.1177500E+01 -9.5266186E+01  3.1844823E+02  2.8808227E-06  0.0000000E+00  1.0000000E+00
 11  1  4  4   0   0 -1.3111280E+02 -1.9952332E+01  5.9887626E+00  1.3275740E+02  5.2234894E-06  0.0000000E+00  1.0000000E+00
-13  1  5  5   0   0  1.4465879E+02 -7.3339829E+00 -2.7738086E+02  3.1292186E+02  1.1444092E-05  0.0000000E+00  1.0000000E+00
 13  1  5  5   0   0  2.8751554E+02 -1.3891185E+01 -3.1862560E+02  4.2939542E+02  0.0000000E+00  0.0000000E+00  1.0000000E+00
</event>
<event>
9 100 1.0000000E+00 1.0000000E+03 7.8125000E-03 0.0000000E+00
 21 -1  0  0 501 502  0.0000000E+00  0.0000000E+00  2.6316535E+02  2.6316535E+02  0.0000000E+00  0.0000000E+00  1.0000000E+00
 21 -1  0  0 502 501  0.0000000E+00  0.0000000E+00 -9.4534403E+02  9.4534403E+02  0.0000000E+00  0.0000000E+00  1.0000000E+00
 39  2  1  2   0   0  8.8107299E-13  1.5916157E-12 -6.8217867E+02  1.2085094E+03  9.9756062E+02  0.0000000E+00  1.0000000E+00
 23  2  3  3   0   0  1.3046819E+02  2.3740994E+02 -8.3739401E+02  8.8472661E+02  9.0149943E+01  0.0000000E+00  1.0000000E+00
 23  2  3  3   0   0 -1.3046819E+02 -2.3740994E+02  1.5521534E+02  3.2378277E+02  8.5779099E+01  0.0000000E+00  1.0000000E+00
-11  1  4  4   0   0  1.2175582E+02  2.4122146E+02 -8.2939350E+02  8.7229918E+02  1.1055015E-06  0.0000000E+00  1.0000000E+00
 11  1  4  4   0   0  8.7123638E+00 -3.8115136E+00 -8.0005097E+00  1.2427432E+01  1.0789593E-05  0.0000000E+00  1.0000000E+00
-13  1  5  5   0   0 -3.3217005E+01 -2.7826990E+01 -3.4995111E+00  4.3473640E+01  1.1284027E-05  0.0000000E+00  1.0000000E+00
 13  1  5  5   0   0 -9.7251183E+01 -2.0958295E+02  1.5871485E+02  2.8030913E+02  3.4555276E-06  0.0000000E+00  1.0000000E+00
</event>
<event>
9 100 1.0000000E+00 1.0000000E+03 7.8125000E-03 0.0000000E+00
 21 -1  0  0 501 502  0.0000000E+00  0.0000000E+00  7.8210563E+02  7.8210563E+02  0.0000000E+00  0.0000000E+00  1.0000000E+00
 21 -1  0  0 502 501  0.0000000E+00  0.0000000E+00 -3.2176337E+02  3.2176337E+02  0.0000000E+00  0.0000000E+00  1.0000000E+00
 39  2  1  2   0   0  1.8189894E-12  8.5265128E-13  4.6034226E+02  1.1038690E+03  1.0033004E+03  0.0000000E+00  1.0000000E+00
 23  2  3  3   0   0 -4.4310442E+02 -2.1695817E+02  2.3351831E+02  5.5336175E+02  9.0917852E+01  0.0000000E+00  1.0000000E+00
 23  2  3  3   0   0  4.4310442E+02  2.1695817E+02  2.2682395E+02  5.5050725E+02  9.0535933E+01  0.0000000E+00  1.0000000E+00
-11  1  4  4   0   0 -4.2130635E+02 -1.9111248E+02  2.3621736E+02  5.1944361E+02  3.0962878E-06  0.0000000E+00  1.0000000E+00
 11  1  4  4   0   0 -2.1798068E+01 -2.5845697E+01 -2.6990519E+00  3.3918148E+01  2.0893957E-05  0.0000000E+00  1.0000000E+00
-13  1  5  5   0   0  3.5953144E+02  2.0961216E+02  1.7217307E+02  4.5038170E+02  6.3974418E-06  0.0000000E+00  1.0000000E+00
 13  1  5  5   0   0  8.3572979E+01  7.3460157E+00  5.4650880E+01  1.0012555E+02  2.1067354E-05  0.0000000E+00  1.0000000E+00
</event>
<event>
9 100 1.0000000E+00 1.0000000E+03 7.8125000E-03 0.0000000E+00
 21 -1  0  0 501 502  0.0000000E+00  0.0000000E+00  5.9652818E+02  5.9652818E+02  0.0000000E+00  0.0000000E+00  1.0000000E+00
 21 -1  0  0 502 501  0.0000000E+00  0.0000000E+00 -4.2197305E+02  4.2197305E+02  0.0000000E+00  0.0000000E+00  1.0000000E+00
 39  2  1  2   0   0  1.5347723E-12 -7.9580786E-13  1.7455512E+02  1.0185012E+03  1.0034317E+03  0.0000000E+00  1.0000000E+00
 23  2  3  3   0   0  2.7995724E+02 -1.4976571E+02 -2.9224197E+02  4.4645461E+02  1.1450122E+02  0.0000000E+00  1.0000000E+00
 23  2  3  3   0   0 -2.7995724E+02  1.4976571E+02  4.6679709E+02  5.7204662E+02  9.2368701E+01  0.0000000E+00  1.0000000E+00
-11  1  4  4   0   0  3.3079285E+01  1.5108378E+01 -5.7296629E+01  6.7863141E+01  1.2651920E-05  0.0000000E+00  1.0000000E+00
 11  1  4  4   0   0  2.4687796E+02 -1.6487409E+02 -2.3494534E+02  3.7859147E+02  3.4385216E-06  0.0000000E+00  1.0000000E+00
-13  1  5  5   0   0 -1.8241789E+02  1.0965804E+02  3.7962563E+02  4.3522040E+02  4.7683716E-06  0.0000000E+00  1.0000000E+00
 13  1  5  5   0   0 -9.7539350E+01  4.0107673E+01  8.7171460E+01  1.3682622E+02  0.0000000E+00  0.0000000E+00  1.0000000E+00
</event>
<event>
9 100 1.0000000E+00 1.0000000E+03 7.8125000E-03 0.0000000E+00
 21 -1  0  0 501 502  0.0000000E+00  0.0000000E+00  8.9841524E+02  8.9841524E+02  0.0000000E+00  0.0000000E+00  1.0000000E+00
 21 -1  0  0 502 501  0.0000000E+00  0.0000000E+00 -2.7372890E+02  2.7372890E+02  0.0000000E+00  0.0000000E+00  1.0000000E+00
 39  2  1  2   0   0  1.7053026E-12  2.2737368E-13  6.2468634E+02  1.1721441E+03  9.9181090E+02  0.0000000E+00  1.0000000E+00
 23  2  3  3   0   0  4.2904347E+02  5.5390237E+01  4.9561939E+01  4.4668576E+02  9.9626304E+01  0.0000000E+00  1.0000000E+00
 23  2  3  3   0   0 -4.2904347E+02 -5.5390237E+01  5.7512440E+02  7.2545839E+02  9.1517306E+01  0.0000000E+00  1.0000000E+00
-11  1  4  4   0   0  3.9070114E+01  2.6529908E+01 -1.6659392E+01  5.0078390E+01  5.7220459E-06  0.0000000E+00  1.0000000E+00
 11  1  4  4   0   0  3.8997336E+02  2.8860329E+01  6.6221332E+01  3.9660737E+02  1.0925712E-06  0.0000000E+00  1.0000000E+00
-13  1  5  5   0   0 -1.4945590E+02 -3.3669257E+01  2.7439292E+02  3.1426447E+02  5.3947966E-06  0.0000000E+00  1.0000000E+00
 13  1  5  5   0   0 -2.7958758E+02 -2.1720980E+01  3.0073149E+02  4.1119392E+02  3.8146973E-06  0.0000000E+00  1.0000000E+00
</event>
<event>
9 100 1.0000000E+00 1.0000000E+03 7.8125000E-03 0.0000000E+00
 21 -1  0  0 501 502  0.0000000E+00  0.0000000E+00  3.4128755E+02  3.4128755E+02  0.0000000E+00  0.0000000E+00  1.0000000E+00
 21 -1  0  0 502 501  0.0000000E+00  0.0000000E+00 -7.2304586E+02  7.2304586E+02  0.0000000E+00  0.0000000E+00  1.0000000E+00
 39  2  1  2   0   0 -1.4210855E-14  0.0000000E+00 -3.8175831E+02  1.0643334E+03  9.9351205E+02  0.0000000E+00  1.0000000E+00
 23  2  3  3   0   0  6.9940124E+01  4.7674817E+02 -2.8197820E+02  5.6457786E+02  8.4000030E+01  0.0000000E+00  1.0000000E+00
 23  2  3  3   0   0 -6.9940124E+01 -4.7674817E+02 -9.9780108E+01  4.9975556E+02  8.7287474E+01  0.0000000E+00  1.0000000E+00
-11  1  4  4   0   0 -7.5439943E+00  2.2591896E+02 -1.1715534E+02  2.5460098E+02  1.1444092E-05  0.0000000E+00  1.0000000E+00
 11  1  4  4   0   0  7.7484118E+01  2.5082922E+02 -1.6482287E+02  3.0997687E+02  1.0092740E-05  0.0000000E+00  1.0000000E+00
-13  1  5  5   0   0 -3.8234466E+01 -2.0112474E+02  5.5945856E-01  2.0472750E+02  1.3283146E-05  0.0000000E+00  1.0000000E+00
 13  1  5  5   0   0 -3.1705658E+01 -2.7562343E+02 -1.0033957E+02  2.9502806E+02  9.7474355E-06  0.0000000E+00  1.0000000E+00
</event>
<event>
9 100 1.0000000E+00 1.0000000E+03 7.8125000E-03 0.0000000E+00
 21 -1  0  0 501 502  0.0000000E+00  0.0000000E+00  9.0126099E+02  9.0126099E+02  0.0000000E+00  0.0000000E+00  1.0000000E+00
 21 -1  0  0 502 501  0.0000000E+00  0.0000000E+00 -2.7406656E+02  2.7406656E+02  0.0000000E+00  0.0000000E+00  1.0000000E+00
 39  2  1  2   0   0  8.5265128E-13  3.4106051E-13  6.2719443E+02  1.1753275E+03  9.9399295E+02  0.0000000E+00  1.0000000E+00
 23  2  3  3   0   0 -3.9295533E+02 -1.4953374E+02  1.9823197E+01  4.3082081E+02  9.1866099E+01  0.0000000E+00  1.0000000E+00
 23  2  3  3   0   0  3.9295533E+02  1.4953374E+02  6.0737123E+02  7.4450674E+02  9.2823682E+01  0.0000000E+00  1.0000000E+00
-11  1  4  4   0   0 -2.6916966E+02 -1.0900056E+02  5.5747526E+01  2.9570460E+02  6.9100269E-06  0.0000000E+00  1.0000000E+00
 11  1  4  4   0   0 -1.2378567E+02 -4.0533180E+01 -3.5924329E+01  1.3511620E+02  1.5303427E-05  0.0000000E+00  1.0000000E+00
-13  1  5  5   0   0  2.5467171E+02  5.8652514E+01  3.2287198E+02  4.1538430E+02  9.3440618E-06  0.0000000E+00  1.0000000E+00
 13  1  5  5   0   0  1.3828362E+02  9.0881226E+01  2.8449925E+02  3.2912244E+02  1.3214499E-05  0.0000000E+00  1.0000000E+00
</event>
<event>
9 100 1.0000000E+00 1.0000000E+03 7.8125000E-03 0.0000000E+00
 21 -1  0  0 501 502  0.0000000E+00  0.0000000E+00  1.2870821E+02  1.2870821E+02  0.0000000E+00  0.0000000E+00  1.0000000E+00
 21 -1  0  0 502 501  0.0000000E+00  0.0000000E+00 -1.9454792E+03  1.9454792E+03  0.0000000E+00  0.0000000E+00  1.0000000E+00
 39  2  1  2   0   0 -6.4517280E-12  3.8085091E-12 -1.8167710E+03  2.0741875E+03  1.0007980E+03  0.0000000E+00  1.0000000E+00
 23  2  3  3   0   0 -2.2869295E+02  1.3494485E+02 -1.7672414E+03  1.7893928E+03  9.0961142E+01  0.0000000E+00  1.0000000E+00
 23  2  3  3   0   0  2.2869295E+02 -1.3494485E+02 -4.9529660E+01  2.8479466E+02  9.0245412E+01  0.0000000E+00  1.0000000E+00
-11  1  4  4   0   0 -5.6051092E+00 -9.6575825E+00 -3.1736257E+01  3.3643367E+01  4.3158373E-05  0.0000000E+00  1.0000000E+00
 11  1  4  4   0   0 -2.2308784E+02  1.4460243E+02 -1.7355051E+03  1.7557494E+03  4.3310886E-06  0.0000000E+00  1.0000000E+00
-13  1  5  5   0   0  1.9450026E+02 -1.0660592E+02 -7.4337335E+01  2.3392566E+02  6.0315660E-06  0.0000000E+00  1.0000000E+00
 13  1  5  5   0   0  3.4192690E+01 -2.8338932E+01  2.4807675E+01  5.0869006E+01  1.7192608E-05  0.0000000E+00  1.0000000E+00
</event>
<event>
9 100 1.0000000E+00 1.0000000E+03 7.8125000E-03 0.0000000E+00
 21 -1  0  0 501 502  0.0000000E+00  0.0000000E+00  3.1408644E+02  3.1408644E+02  0.0000000E+00  0.0000000E+00  1.0000000E+00
 21 -1  0  0 502 501  0.0000000E+00  0.0000000E+00 -7.8713798E+02  7.8713798E+02  0.0000000E+00  0.0000000E+00  1.0000000E+00
 39  2  1  2   0   0 -5.5422333E-13  2.1032065E-12 -4.7305154E+02  1.1012244E+03  9.9444330E+02  0.0000000E+00  1.0000000E+00
 23  2  3  3   0   0  8.6573304E+01 -3.1055102E+02  1.7127991E+02  3.7616878E+02  9.0715335E+01  0.0000000E+00  1.0000000E+00
 23  2  3  3   0   0 -8.6573304E+01  3.1055102E+02 -6.4433145E+02  7.2505565E+02  8.1276113E+01  0.0000000E+00  1.0000000E+00
-11  1  4  4   0   0 -1.9455612E+00 -6.3833544E+01  7.1073701E+01  9.5550916E+01  1.0873560E-05  0.0000000E+00  1.0000000E+00
 11  1  4  4   0   0  8.8518865E+01 -2.4671747E+02  1.0020621E+02  2.8061786E+02  4.9554371E-06  0.0000000E+00  1.0000000E+00
-13  1  5  5   0   0 -4.8278852E+01  2.5393304E+02 -5.5784084E+02  6.1481643E+02  5.0463701E-06  0.0000000E+00  1.0000000E+00
 13  1  5  5   0   0 -3.8294451E+01  5.6617979E+01 -8.6490603E+01  1.1023922E+02  1.3214499E-05  0.0000000E+00  1.0000000E+00
</event>
<event>
9 100 1.0000000E+00 1.0000000E+03 7.8125000E-03 0.0000000E+00
 21 -1  0  0 501 502  0.0000000E+00  0.0000000E+00  9.8061656E+02  9.8061656E+02  0.0000000E+00  0.0000000E+00  1.0000000E+00
 21 -1  0  0 502 501  0.0000000E+00  0.0000000E+00 -2.6165132E+02  2.6165132E+02  0.0000000E+00  0.0000000E+00  1.0000000E+00
 39  2  1  2   0   0  1.5916157E-12 -1.0302870E-13  7.1896524E+02  1.2422679E+03  1.0130738E+03  0.0000000E+00  1.0000000E+00
 23  2  3  3   0   0 -4.6018313E+02  2.7109038E+01  5.9103061E+02  7.5553283E+02  9.4917156E+01  0.0000000E+00  1.0000000E+00
 23  2  3  3   0   0  4.6018313E+02 -2.7109038E+01  1.2793463E+02  4.8673505E+02  8.9667874E+01  0.0000000E+00  1.0000000E+00
-11  1  4  4   0   0 -1.5191794E+02 -2.6590293E+01  1.5323298E+02  2.1740849E+02  9.3440618E-06  0.0000000E+00  1.0000000E+00
 11  1  4  4   0   0 -3.0826518E+02  5.3699331E+01  4.3779763E+02  5.3812434E+02  3.3036247E-06  0.0000000E+00  1.0000000E+00
-13  1  5  5   0   0  3.2154624E+02 -5.3339132E+01  6.5568836E+01  3.3247003E+02  2.9394217E-06  0.0000000E+00  1.0000000E+00
 13  1  5  5   0   0  1.3863689E+02  2.6230094E+01  6.2365793E+01  1.5426502E+02  4.8628039E-06  0.0000000E+00  1.0000000E+00
</event>
<event>
9 100 1.0000000E+00 1.0000000E+03 7.8125000E-03 0.0000000E+00
 21 -1  0  0 501 502  0.0000000E+00  0.0000000E+00  1.6860340E+03  1.6860340E+03  0.0000000E+00  0.0000000E+00  1.0000000E+00
 21 -1  0  0 502 501  0.0000000E+00  0.0000000E+00 -1.5024585E+02  1.5024585E+02  0.0000000E+00  0.0000000E+00  1.0000000E+00
 39  2  1  2   0   0  1.1368684E-12 -1.2505552E-12  1.5357882E+03  1.8362799E+03  1.0066174E+03  0.0000000E+00  1.0000000E+00
 23  2  3  3   0   0 -2.5472358E+02  2.6313146E+02  1.6043569E+02  4.1032628E+02  9.2226754E+01  0.0000000E+00  1.0000000E+00
 23  2  3  3   0   0  2.5472358E+02 -2.6313146E+02  1.3753525E+03  1.4259536E+03  8.7332458E+01  0.0000000E+00  1.0000000E+00
-11  1  4  4   0   0 -1.1042212E+02  1.7898277E+02  9.7686944E+01  2.3188492E+02  6.9100269E-06  0.0000000E+00  1.0000000E+00
 11  1  4  4   0   0 -1.4430146E+02  8.4148696E+01  6.2748742E+01  1.7844136E+02  1.0271387E-05  0.0000000E+00  1.0000000E+00
-13  1  5  5   0   0  2.6032230E+02 -2.5381363E+02  1.3543748E+03  1.4023267E+03  1.6345154E-06  0.0000000E+00  1.0000000E+00
 13  1  5  5   0   0 -5.5987206E+00 -9.3178306E+00  2.0977684E+01  2.3626910E+01  2.6428998E-05  0.0000000E+00  1.0000000E+00
</event>
<event>
9 100 1.0000000E+00 1.0000000E+03 7.8125000E-03 0.0000000E+00
 21 -1  0  0 501 502  0.0000000E+00  0.0000000E+00  7.5543440E+02  7.5543440E+02  0.0000000E+00  0.0000000E+00  1.0000000E+00
 21 -1  0  0 502 501  0.0000000E+00  0.0000000E+00 -3.3993589E+02  3.3993589E+02  0.0000000E+00  0.0000000E+00  1.0000000E+00
 39  2  1  2   0   0 -4.5474735E-13  3.4106051E-13  4.1549850E+02  1.0953703E+03  1.0135073E+03  0.0000000E+00  1.0000000E+00
 23  2  3  3   0   0 -2.2013875E+02  1.7341534E+02 -2.3747505E+02  3.7893287E+02  9.3068644E+01  0.0000000E+00  1.0000000E+00
 23  2  3  3   0   0  2.2013875E+02 -1.7341534E+02  6.5297355E+02  7.1643742E+02  9.1510471E+01  0.0000000E+00  1.0000000E+00
-11  1  4  4   0   0 -1.2481947E+02  7.5048166E+01 -6.7190982E+01  1.6039562E+02  4.2649612E-06  0.0000000E+00  1.0000000E+00
 11  1  4  4   0   0 -9.5319279E+01  9.8367175E+01 -1.7028407E+02  2.1853725E+02  2.3360155E-06  0.0000000E+00  1.0000000E+00
-13  1  5  5   0   0  5.1980735E+01 -4.4820282E+00  7.6185653E+01  9.2338178E+01  1.0789593E-05  0.0000000E+00  1.0000000E+00
 13  1  5  5   0   0  1.6815801E+02 -1.6893331E+02  5.7678790E+02  6.2409924E+02  0.0000000E+00  0.0000000E+00  1.0000000E+00
</event>
<event>
9 100 1.0000000E+00 1.0000000E+03 7.8125000E-03 0.0000000E+00
 21 -1  0  0 501 502  0.0000000E+00  0.0000000E+00  4.6254716E+02  4.6254716E+02  0.0000000E+00  0.0000000E+00  1.0000000E+00
 21 -1  0  0 502 501  0.0000000E+00  0.0000000E+00 -5.4458613E+02  5.4458613E+02  0.0000000E+00  0.0000000E+00  1.0000000E+00
 39  2  1  2   0   0  1.4210855E-12  5.4001248E-13 -8.2038969E+01  1.0071333E+03  1.0037864E+03  0.0000000E+00  1.0000000E+00
 23  2  3  3   0   0  4.3688283E+02  1.6365041E+02 -2.0303353E+02  5.1676201E+02  9.0400774E+01  0.0000000E+00  1.0000000E+00
 23  2  3  3   0   0 -4.3688283E+02 -1.6365041E+02  1.2099456E+02  4.9037128E+02  9.0422557E+01  0.0000000E+00  1.0000000E+00
-11  1  4  4   0   0  3.0863585E+02  9.5301875E+01 -9.8334010E+01  3.3765088E+02  2.3360155E-06  0.0000000E+00  1.0000000E+00
 11  1  4  4   0   0  1.2824698E+02  6.8348535E+01 -1.0469952E+02  1.7911114E+02  1.1680077E-05  0.0000000E+00  1.0000000E+00
-13  1  5  5   0   0 -3.2166828E+02 -9.9175854E+01  4.9504919E+01  3.4023091E+02  6.1064951E-06  0.0000000E+00  1.0000000E+00
 13  1  5  5   0   0 -1.1521455E+02 -6.4474557E+01  7.1489645E+01  1.5014037E+02  9.4649473E-06  0.0000000E+00  1.0000000E+00
</event>
<event>
9 100 1.0000000E+00 1.0000000E+03 7.8125000E-03 0.0000000E+00
 21 -1  0  0 501 502  0.0000000E+00  0.0000000E+00  1.8922164E+02  1.8922164E+02  0.0000000E+00  0.0000000E+00  1.0000000E+00
 21 -1  0  0 502 501  0.0000000E+00  0.0000000E+00 -1.3093776E+03  1.3093776E+03  0.0000000E+00  0.0000000E+00  1.0000000E+00
 39  2  1  2   0   0  4.0074610E-12  6.3380412E-12 -1.1201560E+03  1.4985993E+03  9.9551509E+02  0.0000000E+00  1.0000000E+00
 23  2  3  3   0   0  1.2250886E+02  1.9620709E+02 -1.2091385E+03  1.2346348E+03  9.3816042E+01  0.0000000E+00  1.0000000E+00
 23  2  3  3   0   0 -1.2250886E+02 -1.9620709E+02  8.8982544E+01  2.6396446E+02  9.0849898E+01  0.0000000E+00  1.0000000E+00
-11  1  4  4   0   0 -1.5533420E+01  2.7918550E+01 -1.5272573E+02  1.5603166E+02  1.5258789E-05  0.0000000E+00  1.0000000E+00
 11  1  4  4   0   0  1.3804228E+02  1.6828854E+02 -1.0564128E+03  1.0786031E+03  2.6973983E-06  0.0000000E+00  1.0000000E+00
-13  1  5  5   0   0 -1.1895725E+02 -2.0463796E+02  7.7045046E+01  2.4892461E+02  1.0925712E-06  0.0000000E+00  1.0000000E+00
 13  1  5  5   0   0 -3.5516067E+00  8.4308690E+00  1.1937498E+01  1.5039857E+01  1.9073486E-06  0.0000000E+00  1.0000000E+00
</event>
<event>
9 100 1.0000000E+00 1.0000000E+03 7.8125000E-03 0.0000000E+00
 21 -1  0  0 501 502  0.0000000E+00  0.0000000E+00  9.4099520E+02  9.4099520E+02  0.0000000E+00  0.0000000E+00  1.0000000E+00
 21 -1  0  0 502 501  0.0000000E+00  0.0000000E+00 -2.7222989E+02  2.7222989E+02  0.0000000E+00  0.0000000E+00  1.0000000E+00
 39  2  1  2   0   0  9.6633812E-13 -3.8369308E-13  6.6876530E+02  1.2132251E+03  1.0122589E+03  0.0000000E+00  1.0000000E+00
 23  2  3  3   0   0 -3.1300080E+02  1.2204155E+02 -1.0552678E+02  3.6353093E+02  9.0306135E+01  0.0000000E+00  1.0000000E+00
 23  2  3  3   0   0  3.1300080E+02 -1.2204155E+02  7.7429208E+02  8.4969416E+02  9.7919813E+01  0.0000000E+00  1.0000000E+00
-11  1  4  4   0   0 -1.1816261E+02  9.4022689E+01 -4.8161290E+01  1.5849977E+02  2.0230487E-06  0.0000000E+00  1.0000000E+00
 11  1  4  4   0   0 -1.9483819E+02  2.8018859E+01 -5.7365494E+01  2.0503116E+02  3.9895059E-06  0.0000000E+00  1.0000000E+00
-13  1  5  5   0   0  2.4485354E+02 -1.2712928E+02  5.5151734E+02  6.1667373E+02  2.6973983E-06  0.0000000E+00  1.0000000E+00
 13  1  5  5   0   0  6.8147254E+01  5.0877326E+00  2.2277474E+02  2.3302042E+02  7.6293945E-06  0.0000000E+00  1.0000000E+00
</event>
<event>
9 100 1.0000000E+00 1.0000000E+03 7.8125000E-03 0.0000000E+00
 21 -1  0  0 501 502  0.0000000E+00  0.0000000E+00  7.7966322E+02  7.7966322E+02  0.0000000E+00  0.0000000E+00  1.0000000E+00
 21 -1  0  0 502 501  0.0000000E+00  0.0000000E+00 -3.1973310E+02  3.1973310E+02  0.0000000E+00  0.0000000E+00  1.0000000E+00
 39  2  1  2   0   0 -5.6843419E-14 -1.7053026E-13  4.5993013E+02  1.0993963E+03  9.9856725E+02  0.0000000E+00  1.0000000E+00
 23  2  3  3   0   0  1.9403973E+02  4.4066081E+02  3.4149902E+02  5.9553662E+02  7.8796688E+01  0.0000000E+00  1.0000000E+00
 23  2  3  3   0   0 -1.9403973E+02 -4.4066081E+02  1.1843111E+02  5.0385970E+02  8.9528240E+01  0.0000000E+00  1.0000000E+00
-11  1  4  4   0   0  1.2592938E+02  2.6845099E+02  2.5523738E+02  3.9124194E+02  6.7434958E-06  0.0000000E+00  1.0000000E+00
 11  1  4  4   0   0  6.8110350E+01  1.7220982E+02  8.6261645E+01  2.0429467E+02  1.3754087E-05  0.0000000E+00  1.0000000E+00
-13  1  5  5   0   0 -1.6716082E+02 -3.8426021E+02  1.3311427E+02  4.3967950E+02  2.8758855E-06  0.0000000E+00  1.0000000E+00
 13  1  5  5   0   0 -2.6878909E+01 -5.6400594E+01 -1.4683168E+01  6.4180201E+01  1.0956884E-05  0.0000000E+00  1.0000000E+00
</event>
<event>
9 100 1.0000000E+00 1.0000000E+03 7.8125000E-03 0.0000000E+00
 21 -1  0  0 501 502  0.0000000E+00  0.0000000E+00  5.4864445E+02  5.4864445E+02  0.0000000E+00  0.0000000E+00  1.0000000E+00
 21 -1  0  0 502 501  0.0000000E+00  0.0000000E+00 -4.5456233E+02  4.5456233E+02  0.0000000E+00  0.0000000E+00  1.0000000E+00
 39  2  1  2   0   0  4.8316906E-13 -1.7053026E-13  9.4082120E+01  1.0032068E+03  9.9878545E+02  0.0000000E+00  1.0000000E+00
 23  2  3  3   0   0  2.3712121E+02 -8.0215208E+01  4.7187216E+02  5.4117896E+02  8.6892984E+01  0.0000000E+00  1.0000000E+00
 23  2  3  3   0   0 -2.3712121E+02  8.0215208E+01 -3.7779004E+02  4.6202781E+02  8.9907951E+01  0.0000000E+00  1.0000000E+00
-11  1  4  4   0   0  2.0853252E+02 -9.8905513E+01  4.1320200E+02  4.7329061E+02  3.3036247E-06  0.0000000E+00  1.0000000E+00
 11  1  4  4   0   0  2.8588683E+01  1.8690306E+01  5.8670158E+01  6.7888347E+01  1.7892516E-05  0.0000000E+00  1.0000000E+00
-13  1  5  5   0   0 -2.3341782E+02  5.4124000E+01 -3.4179376E+02  4.1741618E+02  3.7242173E-06  0.0000000E+00  1.0000000E+00
 13  1  5  5   0   0 -3.7033825E+00  2.6091208E+01 -3.5996272E+01  4.4611632E+01  1.4774259E-05  0.0000000E+00  1.0000000E+00
</event>
<event>
9 100 1.0000000E+00 1.0000000E+03 7.8125000E-03 0.0000000E+00
 21 -1  0  0 501 502  0.0000000E+00  0.0000000E+00  2.4341795E+02  2.4341795E+02  0.0000000E+00  0.0000000E+00  1.0000000E+00
 21 -1  0  0 502 501  0.0000000E+00  0.0000000E+00 -1.0265206E+03  1.0265206E+03  0.0000000E+00  0.0000000E+00  1.0000000E+00
 39  2  1  2   0   0 -2.6147973E-12 -3.5242920E-12 -7.8310269E+02  1.2699386E+03  9.9974706E+02  0.0000000E+00  1.0000000E+00
 23  2  3  3   0   0  2.5177815E+02  3.4520284E+02 -8.2708131E+01  4.4436366E+02  8.9784144E+01  0.0000000E+00  1.0000000E+00
 23  2  3  3   0   0 -2.5177815E+02 -3.4520284E+02 -7.0039455E+02  8.2557492E+02  9.2000979E+01  0.0000000E+00  1.0000000E+00
-11  1  4  4   0   0  1.4073614E+02  1.4225340E+02 -4.4901195E+00  2.0015706E+02  7.9218138E-06  0.0000000E+00  1.0000000E+00
 11  1  4  4   0   0  1.1104201E+02  2.0294944E+02 -7.8218012E+01  2.4420659E+02  2.7592509E-06  0.0000000E+00  1.0000000E+00
-13  1  5  5   0   0 -1.8390157E+02 -2.4251949E+02 -5.7057856E+02  6.4668028E+02  7.6293945E-06  0.0000000E+00  1.0000000E+00
 13  1  5  5   0   0 -6.7876577E+01 -1.0268335E+02 -1.2981599E+02  1.7889464E+02  2.2888184E-05  0.0000000E+00  1.0000000E+00
</event>
<event>
9 100 1.0000000E+00 1.0000000E+03 7.8125000E-03 0.0000000E+00
 21 -1  0  0 501 502  0.0000000E+00  0.0000000E+00  4.2054628E+02  4.2054628E+02  0.0000000E+00  0.0000000E+00  1.0000000E+00
 21 -1  0  0 502 501  0.0000000E+00  0.0000000E+00 -5.9918743E+02  5.9918743E+02  0.0000000E+00  0.0000000E+00  1.0000000E+00
 39  2  1  2   0   0 -2.1316282E-14 -1.1368684E-13 -1.7864115E+02  1.0197337E+03  1.0039642E+03  0.0000000E+00  1.0000000E+00
 23  2  3  3   0   0  3.3544649E+01  4.0552834E+02 -3.7220460E+02  5.5892677E+02  9.1018645E+01  0.0000000E+00  1.0000000E+00
 23  2  3  3   0   0 -3.3544649E+01 -4.0552834E+02  1.9356345E+02  4.6080694E+02  9.6424881E+01  0.0000000E+00  1.0000000E+00
-11  1  4  4   0   0  2.9078567E+01  3.2428181E+02 -3.4183284E+02  4.7207409E+02  4.4858188E-06  0.0000000E+00  1.0000000E+00
 11  1  4  4   0   0  4.4660817E+00  8.1246523E+01 -3.0371754E+01  8.6852673E+01  1.5258789E-05  0.0000000E+00  1.0000000E+00
-13  1  5  5   0   0 -1.7178107E+01 -1.0122308E+02  9.6696955E+01  1.4103723E+02  5.0463701E-06  0.0000000E+00  1.0000000E+00
 13  1  5  5   0   0 -1.6366542E+01 -3.0430526E+02  9.6866493E+01  3.1976972E+02  6.4681339E-06  0.0000000E+00  1.0000000E+00
</event>
<event>
9 100 1.0000000E+00 1.0000000E+03 7.8125000E-03 0.0000000E+00
 21 -1  0  0 501 502  0.0000000E+00  0.0000000E+00  5.5110408E+02  5.5110408E+02  0.0000000E+00  0.0000000E+00  1.0000000E+00
 21 -1  0  0 502 501  0.0000000E+00  0.0000000E+00 -4.6449390E+02  4.6449390E+02  0.0000000E+00  0.0000000E+00  1.0000000E+00
 39  2  1  2   0   0  6.8212103E-13  1.4210855E-13  8.6610181E+01  1.0155980E+03  1.0118982E+03  0.0000000E+00  1.0000000E+00
 23  2  3  3   0   0  3.6832326E+02  9.3151511E+01  3.6596138E+02  5.3504005E+02  8.9447690E+01  0.0000000E+00  1.0000000E+00
 23  2  3  3   0   0 -3.6832326E+02 -9.3151511E+01 -2.7935120E+02  4.8055793E+02  9.2518135E+01  0.0000000E+00  1.0000000E+00
-11  1  4  4   0   0  2.4650749E+02  8.2370270E+01  2.9692359E+02  3.9460666E+02  5.2234894E-06  0.0000000E+00  1.0000000E+00
 11  1  4  4   0   0  1.2181577E+02  1.0781241E+01  6.9037797E+01  1.4043338E+02  1.5258789E-05  0.0000000E+00  1.0000000E+00
-13  1  5  5   0   0 -1.7325855E+02 -1.8425611E+01 -7.9683957E+01  1.9159217E+02  1.0789593E-05  0.0000000E+00  1.0000000E+00
 13  1  5  5   0   0 -1.9506471E+02 -7.4725900E+01 -1.9966724E+02  2.8896576E+02  6.9428538E-06  0.0000000E+00  1.0000000E+00
</event>
<event>
9 100 1.0000000E+00 1.0000000E+03 7.8125000E-03 0.0000000E+00
 21 -1  0  0 501 502  0.0000000E+00  0.0000000E+00  2.0339760E+03  2.0339760E+03  0.0000000E+00  0.0000000E+00  1.0000000E+00
 21 -1  0  0 502 501  0.0000000E+00  0.0000000E+00 -1.1886353E+02  1.1886353E+02  0.0000000E+00  0.0000000E+00  1.0000000E+00
 39  2  1  2   0   0  3.4674486E-12  1.4097168E-11  1.9151124E+03  2.1528395E+03  9.8339325E+02  0.0000000E+00  1.0000000E+00
 23  2  3  3   0   0  7.3103058E+01  2.9459796E+02  1.7804390E+03  1.8082461E+03  8.7515303E+01  0.0000000E+00  1.0000000E+00
 23  2  3  3   0   0 -7.3103058E+01 -2.9459796E+02  1.3467345E+02  3.4459342E+02  9.2063409E+01  0.0000000E+00  1.0000000E+00
-11  1  4  4   0   0  8.3865105E+01  2.0653556E+02  1.3973472E+03  1.4150157E+03  1.5258789E-05  0.0000000E+00  1.0000000E+00
 11  1  4  4   0   0 -1.0762047E+01  8.8062396E+01  3.8309181E+02  3.9323039E+02  4.8252528E-05  0.0000000E+00  1.0000000E+00
-13  1  5  5   0   0 -8.0964832E+01 -1.9549155E+02  1.2233278E+02  2.4441268E+02  6.9877390E-06  0.0000000E+00  1.0000000E+00
 13  1  5  5   0   0  7.8617737E+00 -9.9106406E+01  1.2340670E+01  1.0018073E+02  1.5078915E-05  0.0000000E+00  1.0000000E+00
</event>
<event>
9 100 1.0000000E+00 1.0000000E+03 7.8125000E-03 0.0000000E+00
 21 -1  0  0 501 502  0.0000000E+00  0.0000000E+00  5.3089741E+02  5.3089741E+02  0.0000000E+00  0.0000000E+00  1.0000000E+00
 21 -1  0  0 502 501  0.0000000E+00  0.0000000E+00 -4.6170593E+02  4.6170593E+02  0.0000000E+00  0.0000000E+00  1.0000000E+00
 39  2  1  2   0   0 -1.1723955E-13 -9.3791641E-13  6.9191478E+01  9.9260334E+02  9.9018884E+02  0.0000000E+00  1.0000000E+00
 23  2  3  3   0   0  2.5125160E+01  1.8155501E+02  4.8636511E+02  5.2773850E+02  9.1451673E+01  0.0000000E+00  1.0000000E+00
 23  2  3  3   0   0 -2.5125160E+01 -1.8155501E+02 -4.1717363E+02  4.6486485E+02  9.2043435E+01  0.0000000E+00  1.0000000E+00
-11  1  4  4   0   0  5.8704503E+01  1.0116646E+02  3.0078427E+02  3.2272597E+02  5.3947966E-06  0.0000000E+00  1.0000000E+00
 11  1  4  4   0   0 -3.3579343E+01  8.0388548E+01  1.8558084E+02  2.0501253E+02  3.8146973E-06  0.0000000E+00  1.0000000E+00
-13  1  5  5   0   0  3.1533614E+00 -1.6763151E+02 -3.0159223E+02  3.4506252E+02  6.1805160E-06  0.0000000E+00  1.0000000E+00
 13  1  5  5   0   0 -2.8278521E+01 -1.3923497E+01 -1.1558140E+02  1.1980233E+02  1.4774259E-05  0.0000000E+00  1.0000000E+00
</event>
<event>
9 100 1.0000000E+00 1.0000000E+03 7.8125000E-03 0.0000000E+00
 21 -1  0  0 501 502  0.0000000E+00  0.0000000E+00  3.1983400E+03  3.1983400E+03  0.0000000E+00  0.0000000E+00  1.0000000E+00
 21 -1  0  0 502 501  0.0000000E+00  0.0000000E+00 -8.2489944E+01  8.2489944E+01  0.0000000E+00  0.0000000E+00  1.0000000E+00
 39  2  1  2   0   0 -2.8649083E-11  2.1458391E-12  3.1158501E+03  3.2808300E+03  1.0272894E+03  0.0000000E+00  1.0000000E+00
 23  2  3  3   0   0  4.1887945E+02 -3.1449113E+01  6.5852329E+02  7.8641329E+02  9.1344957E+01  0.0000000E+00  1.0000000E+00
 23  2  3  3   0   0 -4.1887945E+02  3.1449113E+01  2.4573268E+03  2.4944167E+03  8.4915054E+01  0.0000000E+00  1.0000000E+00
-11  1  4  4   0   0  4.0600009E+02 -3.0348294E+01  6.5763008E+02  7.7345615E+02  2.1313870E-06  0.0000000E+00  1.0000000E+00
 11  1  4  4   0   0  1.2879354E+01 -1.1008194E+00  8.9320622E-01  1.2957136E+01  1.0789593E-05  0.0000000E+00  1.0000000E+00
-13  1  5  5   0   0 -1.5003859E+02  4.9722913E+01  9.9354080E+02  1.0060354E+03  3.0517578E-05  0.0000000E+00  1.0000000E+00
 13  1  5  5   0   0 -2.6884086E+02 -1.8273800E+01  1.4637860E+03  1.4883813E+03  3.4119690E-05  0.0000000E+00  1.0000000E+00
</event>
<event>
9 100 1.0000000E+00 1.0000000E+03 7.8125000E-03 0.0000000E+00
 21 -1  0  0 501 502  0.0000000E+00  0.0000000E+00  1.8213948E+03  1.8213948E+03  0.0000000E+00  0.0000000E+00  1.0000000E+00
 21 -1  0  0 502 501  0.0000000E+00  0.0000000E+00 -1.3655949E+02  1.3655949E+02  0.0000000E+00  0.0000000E+00  1.0000000E+00
 39  2  1  2   0   0  2.0463631E-12 -2.1600499E-12  1.6848353E+03  1.9579543E+03  9.9745425E+02  0.0000000E+00  1.0000000E+00
 23  2  3  3   0   0 -2.7867488E+02  3.0439710E+02  3.2568844E+02  5.3449274E+02  9.6396291E+01  0.0000000E+00  1.0000000E+00
 23  2  3  3   0   0  2.7867488E+02 -3.0439710E+02  1.3591468E+03  1.4234615E+03  9.2980106E+01  0.0000000E+00  1.0000000E+00
-11  1  4  4   0   0 -9.6010519E+01  7.1277707E+01  1.4345955E+02  1.8675967E+02  7.6293945E-06  0.0000000E+00  1.0000000E+00
 11  1  4  4   0   0 -1.8266437E+02  2.3311939E+02  1.8222889E+02  3.4773307E+02  6.6072495E-06  0.0000000E+00  1.0000000E+00
-13  1  5  5   0   0  1.8806228E+02 -2.3892579E+02  1.0995632E+03  1.1408296E+03  6.6072495E-06  0.0000000E+00  1.0000000E+00
 13  1  5  5   0   0  9.0612605E+01 -6.5471310E+01  2.5958359E+02  2.8263188E+02  3.4119690E-05  0.0000000E+00  1.0000000E+00
</event>
<event>
9 100 1.0000000E+00 1.0000000E+03 7.8125000E-03 0.0000000E+00
 21 -1  0  0 501 502  0.0000000E+00  0.0000000E+00  3.1750497E+02  3.1750497E+02  0.0000000E+00  0.0000000E+00  1.0000000E+00
 21 -1  0  0 502 501  0.0000000E+00  0.0000000E+00 -8.1887228E+02  8.1887228E+02  0.0000000E+00  0.0000000E+00  1.0000000E+00
 39  2  1  2   0   0 -2.2737368E-13 -1.7053026E-13 -5.0136731E+02  1.1363773E+03  1.0197961E+03  0.0000000E+00  1.0000000E+00
 23  2  3  3   0   0 -2.2550199E+02 -2.5862356E+02 -6.5841904E+02  7.4799647E+02  9.0806328E+01  0.0000000E+00  1.0000000E+00
 23  2  3  3   0   0  2.2550199E+02  2.5862356E+02  1.5705173E+02  3.8838078E+02  9.1853658E+01  0.0000000E+00  1.0000000E+00
-11  1  4  4   0   0 -1.1493578E+02 -1.4980866E+02 -2.6755770E+02  3.2747517E+02  1.3214499E-05  0.0000000E+00  1.0000000E+00
 11  1  4  4   0   0 -1.1056621E+02 -1.0881490E+02 -3.9086134E+02  4.2052129E+02  3.8146973E-06  0.0000000E+00  1.0000000E+00
-13  1  5  5   0   0  1.9594684E+01  4.3103531E+00 -8.3516661E+00  2.1732030E+01  1.1757687E-05  0.0000000E+00  1.0000000E+00
 13  1  5  5   0   0  2.0590730E+02  2.5431321E+02  1.6540340E+02  3.6664875E+02  1.7192608E-06  0.0000000E+00  1.0000000E+00
</event>
<event>
9 100 1.0000000E+00 1.0000000E+03 7.8125000E-03 0.0000000E+00
 21 -1  0  0 501 502  0.0000000E+00  0.0000000E+00  1.3567277E+03  1.3567277E+03  0.0000000E+00  0.0000000E+00  1.0000000E+00
 21 -1  0  0 502 501  0.0000000E+00  0.0000000E+00 -2.0901239E+02  2.0901239E+02  0.0000000E+00  0.0000000E+00  1.0000000E+00
 39  2  1  2   0   0  1.3358203E-12 -8.2422957E-13  1.1477153E+03  1.5657401E+03  1.0650313E+03  0.0000000E+00  1.0000000E+00
 23  2  3  3   0   0  2.4140541E+02 -1.3927710E+02  1.2269981E+03  1.2615876E+03  9.1675521E+01  0.0000000E+00  1.0000000E+00
 23  2  3  3   0   0 -2.4140541E+02  1.3927710E+02 -7.9282807E+01  3.0415242E+02  9.2456733E+01  0.0000000E+00  1.0000000E+00
-11  1  4  4   0   0  2.3336261E+02 -1.0406277E+02  1.1152874E+03  1.1441823E+03  3.0157830E-06  0.0000000E+00  1.0000000E+00
 11  1  4  4   0   0  8.0428032E+00 -3.5214334E+01  1.1171063E+02  1.1740529E+02  0.0000000E+00  0.0000000E+00  1.0000000E+00
-13  1  5  5   0   0 -1.1879702E+02  3.9185670E+01  4.2924104E+00  1.2516659E+02  5.7220459E-06  0.0000000E+00  1.0000000E+00
 13  1  5  5   0   0 -1.2260838E+02  1.0009143E+02 -8.3575217E+01  1.7898583E+02  3.7522532E-06  0.0000000E+00  1.0000000E+00
</event>
<event>
9 100 1.0000000E+00 1.0000000E+03 7.8125000E-03 0.0000000E+00
 21 -1  0  0 501 502  0.0000000E+00  0.0000000E+00  4.9130166E+02  4.9130166E+02  0.0000000E+00  0.0000000E+00  1.0000000E+00
 21 -1  0  0 502 501  0.0000000E+00  0.0000000E+00 -5.0709660E+02  5.0709660E+02  0.0000000E+00  0.0000000E+00  1.0000000E+00
 39  2  1  2   0   0  5.6843419E-14  0.0000000E+00 -1.5794947E+01  9.9839826E+02  9.9827331E+02  0.0000000E+00  1.0000000E+00
 23  2  3  3   0   0  2.7112212E+02  7.1222109E+01  3.9490139E+02  4.9288802E+02  9.1715297E+01  0.0000000E+00  1.0000000E+00
 23  2  3  3   0   0 -2.7112212E+02 -7.1222109E+01 -4.1069634E+02  5.0551024E+02  9.1045755E+01  0.0000000E+00  1.0000000E+00
-11  1  4  4   0   0  1.9075916E+02  7.4066989E+01  2.2040569E+02  3.0075512E+02  3.8146973E-06  0.0000000E+00  1.0000000E+00
 11  1  4  4   0   0  8.0362959E+01 -2.8448794E+00  1.7449571E+02  1.9213290E+02  5.3947966E-06  0.0000000E+00  1.0000000E+00
-13  1  5  5   0   0 -2.3568185E+02 -2.6442427E+01 -3.1932448E+02  3.9776031E+02  0.0000000E+00  0.0000000E+00  1.0000000E+00
 13  1  5  5   0   0 -3.5440273E+01 -4.4779682E+01 -9.1371855E+01  1.0774994E+02  6.6072495E-06  0.0000000E+00  1.0000000E+00
</event>
<event>
9 100 1.0000000E+00 1.0000000E+03 7.8125000E-03 0.0000000E+00
 21 -1  0  0 501 502  0.0000000E+00  0.0000000E+00  8.5219227E+02  8.5219227E+02  0.0000000E+00  0.0000000E+00  1.0000000E+00
 21 -1  0  0 502 501  0.0000000E+00  0.0000000E+00 -3.5496904E+02  3.5496904E+02  0.0000000E+00  0.0000000E+00  1.0000000E+00
 39  2  1  2   0   0 -1.2505552E-12 -6.3948846E-13  4.9722323E+02  1.2071613E+03  1.1000034E+03  0.0000000E+00  1.0000000E+00
 23  2  3  3   0   0  2.0729773E+02  1.0030249E+02 -2.9089894E+02  3.8106285E+02  8.6912396E+01  0.0000000E+00  1.0000000E+00
 23  2  3  3   0   0 -2.0729773E+02 -1.0030249E+02  7.8812217E+02  8.2609846E+02  9.0935019E+01  0.0000000E+00  1.0000000E+00
-11  1  4  4   0   0  5.7097978E+01 -1.1335475E+01 -5.6536907E+01  8.1148592E+01  1.1757687E-05  0.0000000E+00  1.0000000E+00
 11  1  4  4   0   0  1.5019976E+02  1.1163796E+02 -2.3436203E+02  2.9991426E+02  4.5236745E-06  0.0000000E+00  1.0000000E+00
-13  1  5  5   0   0 -4.1479648E+01  8.4166494E+00  7.7178023E+01  8.8021864E+01  1.7059845E-05  0.0000000E+00  1.0000000E+00
 13  1  5  5   0   0 -1.6581809E+02 -1.0871914E+02  7.1094414E+02  7.3807660E+02  4.3702847E-06  0.0000000E+00  1.0000000E+00
</event>
<event>
9 100 1.0000000E+00 1.0000000E+03 7.8125000E-03 0.0000000E+00
 21 -1  0  0 501 502  0.0000000E+00  0.0000000E+00  6.6757040E+02  6.6757040E+02  0.0000000E+00  0.0000000E+00  1.0000000E+00
 21 -1  0  0 502 501  0.0000000E+00  0.0000000E+00 -4.0637433E+02  4.0637433E+02  0.0000000E+00  0.0000000E+00  1.0000000E+00
 39  2  1  2   0   0  3.4106051E-13  3.4106051E-13  2.6119607E+02  1.0739447E+03  1.0416976E+03  0.0000000E+00  1.0000000E+00
 23  2  3  3   0   0 -3.1476697E+02 -3.3360550E+02  3.6696403E+02  5.9448023E+02  9.1505603E+01  0.0000000E+00  1.0000000E+00
 23  2  3  3   0   0  3.1476697E+02  3.3360550E+02 -1.0576796E+02  4.7946449E+02  9.1260439E+01  0.0000000E+00  1.0000000E+00
-11  1  4  4   0   0 -2.3294261E+02 -2.7715970E+02  2.4508065E+02  4.3720051E+02  7.6293945E-06  0.0000000E+00  1.0000000E+00
 11  1  4  4   0   0 -8.1824358E+01 -5.6445797E+01  1.2188338E+02  1.5727972E+02  1.1444092E-05  0.0000000E+00  1.0000000E+00
-13  1  5  5   0   0  1.3723024E+02  1.7173301E+02 -7.6899624E+00  2.1996250E+02  8.8440118E-06  0.0000000E+00  1.0000000E+00
 13  1  5  5   0   0  1.7753672E+02  1.6187248E+02 -9.8077994E+01  2.5950199E+02  9.8012947E-06  0.0000000E+00  1.0000000E+00
</event>
<event>
9 100 1.0000000E+00 1.0000000E+03 7.8125000E-03 0.0000000E+00
 21 -1  0  0 501 502  0.0000000E+00  0.0000000E+00  4.0038110E+02  4.0038110E+02  0.0000000E+00  0.0000000E+00  1.0000000E+00
 21 -1  0  0 502 501  0.0000000E+00  0.0000000E+00 -6.2608545E+02  6.2608545E+02  0.0000000E+00  0.0000000E+00  1.0000000E+00
 39  2  1  2   0   0  7.9580786E-13 -6.5369932E-13 -2.2570435E+02  1.0264666E+03  1.0013447E+03  0.0000000E+00  1.0000000E+00
 23  2  3  3   0   0  2.7334836E+02 -2.0755605E+02  2.4780296E+02  4.3424533E+02  9.6767064E+01  0.0000000E+00  1.0000000E+00
 23  2  3  3   0   0 -2.7334836E+02  2.0755605E+02 -4.7350730E+02  5.9222122E+02  9.3370042E+01  0.0000000E+00  1.0000000E+00
-11  1  4  4   0   0  1.2025126E+02 -3.4088430E+01  7.9296436E+01  1.4802132E+02  1.9073486E-06  0.0000000E+00  1.0000000E+00
 11  1  4  4   0   0  1.5309710E+02 -1.7346762E+02  1.6850652E+02  2.8622401E+02  7.0080464E-06  0.0000000E+00  1.0000000E+00
-13  1  5  5   0   0 -2.0139899E+02  1.9833477E+02 -3.8897654E+02  4.8083364E+02  4.3702847E-06  0.0000000E+00  1.0000000E+00
 13  1  5  5   0   0 -7.1949373E+01  9.2212805E+00 -8.4530758E+01  1.1138758E+02  1.3214499E-05  0.0000000E+00  1.0000000E+00
</event>
<event>
9 100 1.0000000E+00 1.0000000E+03 7.8125000E-03 0.0000000E+00
 21 -1  0  0 501 502  0.0000000E+00  0.0000000E+00  1.9893509E+02  1.9893509E+02  0.0000000E+00  0.0000000E+00  1.0000000E+00
 21 -1  0  0 502 501  0.0000000E+00  0.0000000E+00 -1.2580077E+03  1.2580077E+03  0.0000000E+00  0.0000000E+00  1.0000000E+00
 39  2  1  2   0   0  2.8421709E-13  8.5265128E-14 -1.0590726E+03  1.4569428E+03  1.0005236E+03  0.0000000E+00  1.0000000E+00
 23  2  3  3   0   0 -4.1936776E+02 -1.3735021E+02 -8.4582424E+02  9.5844794E+02  9.2029402E+01  0.0000000E+00  1.0000000E+00
 23  2  3  3   0   0  4.1936776E+02  1.3735021E+02 -2.1324836E+02  4.9849485E+02  9.1037632E+01  0.0000000E+00  1.0000000E+00
-11  1  4  4   0   0 -9.4068267E+00 -1.6621821E+01 -1.5509286E+01  2.4603075E+01  2.6428998E-05  0.0000000E+00  1.0000000E+00
 11  1  4  4   0   0 -4.0996093E+02 -1.2072839E+02 -8.3031496E+02  9.3384487E+02  1.2273348E-06  0.0000000E+00  1.0000000E+00
-13  1  5  5   0   0  2.1253745E+02  2.5343962E+01 -8.2544522E+01  2.2940811E+02  7.6293945E-06  0.0000000E+00  1.0000000E+00
 13  1  5  5   0   0  2.0683031E+02  1.1200625E+02 -1.3070384E+02  2.6908673E+02  7.7476868E-06  0.0000000E+00  1.0000000E+00
</event>
<event>
9 100 1.0000000E+00 1.0000000E+03 7.8125000E-03 0.0000000E+00
 21 -1  0  0 501 502  0.0000000E+00  0.0000000E+00  1.1820468E+02  1.1820468E+02  0.0000000E+00  0.0000000E+00  1.0000000E+00
 21 -1  0  0 502 501  0.0000000E+00  0.0000000E+00 -2.1972965E+03  2.1972965E+03  0.0000000E+00  0.0000000E+00  1.0000000E+00
 39  2  1  2   0   0 -2.8421709E-13 -5.6843419E-13 -2.0790919E+03  2.3155012E+03  1.0192757E+03  0.0000000E+00  1.0000000E+00
 23  2  3  3   0   0 -2.2693381E+02 -4.4390585E+02 -1.1655401E+03  1.2709159E+03  9.0510478E+01  0.0000000E+00  1.0000000E+00
 23  2  3  3   0   0  2.2693381E+02  4.4390585E+02 -9.1355178E+02  1.0445853E+03  8.9611992E+01  0.0000000E+00  1.0000000E+00
-11  1  4  4   0   0 -1.5992629E+02 -3.6062262E+02 -8.3452174E+02  9.2306643E+02  6.6072495E-06  0.0000000E+00  1.0000000E+00
 11  1  4  4   0   0 -6.7007529E+01 -8.3283232E+01 -3.3101832E+02  3.4784944E+02  1.5258789E-05  0.0000000E+00  1.0000000E+00
-13  1  5  5   0   0  9.2894804E+01  9.5582823E+01 -2.3553803E+02  2.7063571E+02  1.8688124E-05  0.0000000E+00  1.0000000E+00
 13  1  5  5   0   0  1.3403901E+02  3.4832303E+02 -6.7801375E+02  7.7394963E+02  9.7256079E-06  0.0000000E+00  1.0000000E+00
</event>
<event>
9 100 1.0000000E+00 1.0000000E+03 7.8125000E-03 0.0000000E+00
 21 -1  0  0 501 502  0.0000000E+00  0.0000000E+00  8.3852268E+02  8.3852268E+02  0.0000000E+00  0.0000000E+00  1.0000000E+00
 21 -1  0  0 502 501  0.0000000E+00  0.0000000E+00 -2.8863918E+02  2.8863918E+02  0.0000000E+00  0.0000000E+00  1.0000000E+00
 39  2  1  2   0   0 -2.1600499E-12  1.7905677E-12  5.4988350E+02  1.1271619E+03  9.8393191E+02  0.0000000E+00  1.0000000E+00
 23  2  3  3   0   0  2.1229157E+02 -1.7619229E+02  7.2927930E+02  7.8526024E+02  9.3133804E+01  0.0000000E+00  1.0000000E+00
 23  2  3  3   0   0 -2.1229157E+02  1.7619229E+02 -1.7939580E+02  3.4190163E+02  9.2749314E+01  0.0000000E+00  1.0000000E+00
-11  1  4  4   0   0  8.5933582E+01 -5.4044227E+01  3.9210161E+02  4.0502966E+02  5.3947966E-06  0.0000000E+00  1.0000000E+00
 11  1  4  4   0   0  1.2635799E+02 -1.2214806E+02  3.3717770E+02  3.8023057E+02  7.6293945E-06  0.0000000E+00  1.0000000E+00
-13  1  5  5   0   0 -1.6038692E+01  1.8876530E+01 -5.7063589E+01  6.2207847E+01  9.4408941E-06  0.0000000E+00  1.0000000E+00
 13  1  5  5   0   0 -1.9625288E+02  1.5731576E+02 -1.2233221E+02  2.7969378E+02  2.5231851E-06  0.0000000E+00  1.0000000E+00
</event>
<event>
9 100 1.0000000E+00 1.0000000E+03 7.8125000E-03 0.0000000E+00
 21 -1  0  0 501 502  0.0000000E+00  0.0000000E+00  5.4123581E+02  5.4123581E+02  0.0000000E+00  0.0000000E+00  1.0000000E+00
 21 -1  0  0 502 501  0.0000000E+00  0.0000000E+00 -4.3690465E+02  4.3690465E+02  0.0000000E+00  0.0000000E+00  1.0000000E+00
 39  2  1  2   0   0 -7.3896445E-13  1.5916157E-12  1.0433115E+02  9.7814046E+02  9.7256042E+02  0.0000000E+00  1.0000000E+00
 23  2  3  3   0   0  1.6533266E+02 -3.6913047E+02 -2.0304915E+02  4.6181097E+02  9.1914232E+01  0.0000000E+00  1.0000000E+00
 23  2  3  3   0   0 -1.6533266E+02  3.6913047E+02  3.0738030E+02  5.1632949E+02  9.2310872E+01  0.0000000E+00  1.0000000E+00
-11  1  4  4   0   0  1.1144104E+02 -1.8171029E+02 -6.4901433E+01  2.2282264E+02  1.9073486E-06  0.0000000E+00  1.0000000E+00
 11  1  4  4   0   0  5.3891625E+01 -1.8742018E+02 -1.3814771E+02  2.3898833E+02  8.9969455E-06  0.0000000E+00  1.0000000E+00
-13  1  5  5   0   0 -1.7478559E+02  3.2004624E+02  2.7562939E+02  4.5711175E+02  2.1056559E-06  0.0000000E+00  1.0000000E+00
 13  1  5  5   0   0  9.4529234E+00  4.9084229E+01  3.1750912E+01  5.9217731E+01  1.4273290E-05  0.0000000E+00  1.0000000E+00
</event>
<event>
9 100 1.0000000E+00 1.0000000E+03 7.8125000E-03 0.0000000E+00
 21 -1  0  0 501 502  0.0000000E+00  0.0000000E+00  7.4524590E+02  7.4524590E+02  0.0000000E+00  0.0000000E+00  1.0000000E+00
 21 -1  0  0 502 501  0.0000000E+00  0.0000000E+00 -3.3262891E+02  3.3262891E+02  0.0000000E+00  0.0000000E+00  1.0000000E+00
 39  2  1  2   0   0  5.6843419E-14 -2.8421709E-14  4.1261699E+02  1.0778748E+03  9.9577172E+02  0.0000000E+00  1.0000000E+00
 23  2  3  3   0   0 -2.6133885E+02  1.9395392E+02 -1.8899212E+02  3.8768645E+02  9.3094819E+01  0.0000000E+00  1.0000000E+00
 23  2  3  3   0   0  2.6133885E+02 -1.9395392E+02  6.0160911E+02  6.9018836E+02  9.2251459E+01  0.0000000E+00  1.0000000E+00
-11  1  4  4   0   0 -1.2895203E+02  4.5347271E+01 -5.2851057E+01  1.4655455E+02  9.1473227E-06  0.0000000E+00  1.0000000E+00
 11  1  4  4   0   0 -1.3238682E+02  1.4860665E+02 -1.3614106E+02  2.4113190E+02  7.7182837E-06  0.0000000E+00  1.0000000E+00
-13  1  5  5   0   0  1.8631960E+02 -8.2146727E+01  3.6329230E+02  4.1646653E+02  9.7256079E-06  0.0000000E+00  1.0000000E+00
 13  1  5  5   0   0  7.5019253E+01 -1.1180719E+02  2.3831681E+02  2.7372182E+02  1.3214499E-05  0.0000000E+00  1.0000000E+00
</event>
<event>
9 100 1.0000000E+00 1.0000000E+03 7.8125000E-03 0.0000000E+00
 21 -1  0  0 501 502  0.0000000E+00  0.0000000E+00  3.2101772E+02  3.2101772E+02  0.0000000E+00  0.0000000E+00  1.0000000E+00
 21 -1  0  0 502 501  0.0000000E+00  0.0000000E+00 -7.7391140E+02  7.7391140E+02  0.0000000E+00  0.0000000E+00  1.0000000E+00
 39  2  1  2   0   0  2.8421709E-13  1.7053026E-13 -4.5289368E+02  1.0949291E+03  9.9687365E+02  0.0000000E+00  1.0000000E+00
 23  2  3  3   0   0 -1.6044716E+02 -9.5548509E+01 -7.2432522E+02  7.5289138E+02  8.5589767E+01  0.0000000E+00  1.0000000E+00
 23  2  3  3   0   0  1.6044716E+02  9.5548509E+01  2.7143154E+02  3.4203773E+02  9.1879913E+01  0.0000000E+00  1.0000000E+00
-11  1  4  4   0   0 -1.0145570E+02 -5.1763800E+01 -5.7850329E+02  5.8960903E+02  7.1366451E-06  0.0000000E+00  1.0000000E+00
 11  1  4  4   0   0 -5.8991464E+01 -4.3784708E+01 -1.4582192E+02  1.6328235E+02  2.2888184E-05  0.0000000E+00  1.0000000E+00
-13  1  5  5   0   0  1.7196905E+02  9.1785129E+01  2.4603187E+02  3.1389417E+02  2.3841858E-06  0.0000000E+00  1.0000000E+00
 13  1  5  5   0   0 -1.1521892E+01  3.7633797E+00  2.5399669E+01  2.8143564E+01  9.3440618E-06  0.0000000E+00  1.0000000E+00
</event>
<event>
9 100 1.0000000E+00 1.0000000E+03 7.8125000E-03 0.0000000E+00
 21 -1  0  0 501 502  0.0000000E+00  0.0000000E+00  6.7721984E+02  6.7721984E+02  0.0000000E+00  0.0000000E+00  1.0000000E+00
 21 -1  0  0 502 501  0.0000000E+00  0.0000000E+00 -3.6814907E+02  3.6814907E+02  0.0000000E+00  0.0000000E+00  1.0000000E+00
 39  2  1  2   0   0 -5.6843419E-14  2.8421709E-14  3.0907077E+02  1.0453689E+03  9.9863477E+02  0.0000000E+00  1.0000000E+00
 23  2  3  3   0   0 -8.1219772E+01  3.5680337E+01 -3.5107106E+02  3.7301521E+02  8.9552914E+01  0.0000000E+00  1.0000000E+00
 23  2  3  3   0   0  8.1219772E+01 -3.5680337E+01  6.6014183E+02  6.7235369E+02  9.1665265E+01  0.0000000E+00  1.0000000E+00
-11  1  4  4   0   0 -8.7878950E+00  8.9943575E+00  9.6860429E-01  1.2612048E+01  1.2651920E-05  0.0000000E+00  1.0000000E+00
 11  1  4  4   0   0 -7.2431877E+01  2.6685979E+01 -3.5203966E+02  3.6040316E+02  1.5726197E-06  0.0000000E+00  1.0000000E+00
-13  1  5  5   0   0  7.3384657E+01 -2.8943929E+01  2.5150972E+02  2.6359097E+02  9.3440618E-06  0.0000000E+00  1.0000000E+00
 13  1  5  5   0   0  7.8351152E+00 -6.7364082E+00  4.0863210E+02  4.0876272E+02  5.3947966E-06  0.0000000E+00  1.0000000E+00
</event>
<event>
9 100 1.0000000E+00 1.0000000E+03 7.8125000E-03 0.0000000E+00
 21 -1  0  0 501 502  0.0000000E+00  0.0000000E+00  7.8309036E+02  7.8309036E+02  0.0000000E+00  0.0000000E+00  1.0000000E+00
 21 -1  0  0 502 501  0.0000000E+00  0.0000000E+00 -3.1625582E+02  3.1625582E+02  0.0000000E+00  0.0000000E+00  1.0000000E+00
 39  2  1  2   0   0  5.9685590E-13 -4.8316906E-13  4.6683454E+02  1.0993462E+03  9.9530273E+02  0.0000000E+00  1.0000000E+00
 23  2  3  3   0   0 -2.1070765E+02  1.7587325E+02  6.8080546E+02  7.3968109E+02  9.1120343E+01  0.0000000E+00  1.0000000E+00
 23  2  3  3   0   0  2.1070765E+02 -1.7587325E+02 -2.1397092E+02  3.5966509E+02  9.0809165E+01  0.0000000E+00  1.0000000E+00
-11  1  4  4   0   0 -6.6786700E+01  1.7924879E+01  1.0721497E+02  1.2758062E+02  7.6293945E-06  0.0000000E+00  1.0000000E+00
 11  1  4  4   0   0 -1.4392095E+02  1.5794837E+02  5.7359050E+02  6.1210047E+02  5.3947966E-06  0.0000000E+00  1.0000000E+00
-13  1  5  5   0   0  2.7329355E+01  8.7075007E+00 -2.5612070E+01  3.8453769E+01  1.1444092E-05  0.0000000E+00  1.0000000E+00
 13  1  5  5   0   0  1.8337830E+02 -1.8458075E+02 -1.8835885E+02  3.2121132E+02  2.8808227E-06  0.0000000E+00  1.0000000E+00
</event>
<event>
9 100 1.0000000E+00 1.0000000E+03 7.8125000E-03 0.0000000E+00
 21 -1  0  0 501 502  0.0000000E+00  0.0000000E+00  3.1908108E+02  3.1908108E+02  0.0000000E+00  0.0000000E+00  1.0000000E+00
 21 -1  0  0 502 501  0.0000000E+00  0.0000000E+00 -7.6864356E+02  7.6864356E+02  0.0000000E+00  0.0000000E+00  1.0000000E+00
 39  2  1  2   0   0  8.5265128E-13  1.1368684E-12 -4.4956248E+02  1.0877246E+03  9.9047386E+02  0.0000000E+00  1.0000000E+00
 23  2  3  3   0   0 -3.0355568E+02 -3.4580142E+02 -3.9872035E+02  6.1549433E+02  9.0170306E+01  0.0000000E+00  1.0000000E+00
 23  2  3  3   0   0  3.0355568E+02  3.4580142E+02 -5.0842131E+01  4.7223030E+02  9.3230161E+01  0.0000000E+00  1.0000000E+00
-11  1  4  4   0   0 -1.1000163E+02 -1.1902393E+02 -8.6202186E+01  1.8356980E+02  3.8146973E-06  0.0000000E+00  1.0000000E+00
 11  1  4  4   0   0 -1.9355405E+02 -2.2677749E+02 -3.1251816E+02  4.3192454E+02  5.3098339E-06  0.0000000E+00  1.0000000E+00
-13  1  5  5   0   0  4.8076596E+01  6.3512399E+01  2.6057097E+01  8.3810239E+01  2.1388685E-05  0.0000000E+00  1.0000000E+00
 13  1  5  5   0   0  2.5547908E+02  2.8228903E+02 -7.6899228E+01  3.8842007E+02  6.6244335E-06  0.0000000E+00  1.0000000E+00
</event>
<event>
9 100 1.0000000E+00 1.0000000E+03 7.8125000E-03 0.0000000E+00
 21 -1  0  0 501 502  0.0000000E+00  0.0000000E+00  2.9046405E+02  2.9046405E+02  0.0000000E+00  0.0000000E+00  1.0000000E+00
 21 -1  0  0 502 501  0.0000000E+00  0.0000000E+00 -7.7051362E+02  7.7051362E+02  0.0000000E+00  0.0000000E+00  1.0000000E+00
 39  2  1  2   0   0 -1.5916157E-12  3.8369308E-13 -4.8004957E+02  1.0609777E+03  9.4616386E+02  0.0000000E+00  1.0000000E+00
 23  2  3  3   0   0 -4.2745761E+02  1.0769696E+02 -4.0331079E+02  6.0438704E+02  9.1134308E+01  0.0000000E+00  1.0000000E+00
 23  2  3  3   0   0  4.2745761E+02 -1.0769696E+02 -7.6738780E+01  4.5659064E+02  9.0925943E+01  0.0000000E+00  1.0000000E+00
-11  1  4  4   0   0 -3.4460822E+02  7.1536703E+01 -2.7125714E+02  4.4435657E+02  5.7220459E-06  0.0000000E+00  1.0000000E+00
 11  1  4  4   0   0 -8.2849386E+01  3.6160254E+01 -1.3205365E+02  1.6003047E+02  1.0092740E-05  0.0000000E+00  1.0000000E+00
-13  1  5  5   0   0  4.0684158E+01  1.4428625E+01 -1.7973510E+01  4.6759309E+01  5.3098339E-06  0.0000000E+00  1.0000000E+00
 13  1  5  5   0   0  3.8677345E+02 -1.2212558E+02 -5.8765269E+01  4.0983133E+02  5.3312015E-07  0.0000000E+00  1.0000000E+00
</event>
<event>
9 100 1.0000000E+00 1.0000000E+03 7.8125000E-03 0.0000000E+00
 21 -1  0  0 501 502  0.0000000E+00  0.0000000E+00  4.1269427E+02  4.1269427E+02  0.0000000E+00  0.0000000E+00  1.0000000E+00
 21 -1  0  0 502 501  0.0000000E+00  0.0000000E+00 -5.9360842E+02  5.9360842E+02  0.0000000E+00  0.0000000E+00  1.0000000E+00
 39  2  1  2   0   0 -1.1368684E-13  1.1368684E-13 -1.8091416E+02  1.0063027E+03  9.8990664E+02  0.0000000E+00  1.0000000E+00
 23  2  3  3   0   0  2.6573329E+02 -3.7013175E+02  8.3147701E+01  4.7198616E+02  9.0805860E+01  0.0000000E+00  1.0000000E+00
 23  2  3  3   0   0 -2.6573329E+02  3.7013175E+02 -2.6406186E+02  5.3431653E+02  9.0298377E+01  0.0000000E+00  1.0000000E+00
-11  1  4  4   0   0  5.0746290E+00 -3.2873112E+01  2.5386841E+01  4.1843578E+01  1.0490417E-05  0.0000000E+00  1.0000000E+00
 11  1  4  4   0   0  2.6065866E+02 -3.3725863E+02  5.7760860E+01  4.3014258E+02  1.2157010E-06  0.0000000E+00  1.0000000E+00
-13  1  5  5   0   0 -2.0247037E+01  2.4118622E+01 -5.0077096E+01  5.9155439E+01  7.6293945E-06  0.0000000E+00  1.0000000E+00
 13  1  5  5   0   0 -2.4548625E+02  3.4601312E+02 -2.1398476E+02  4.7516109E+02  2.1324806E-06  0.0000000E+00  1.0000000E+00
</event>
<event>
9 100 1.0000000E+00 1.0000000E+03 7.8125000E-03 0.0000000E+00
 21 -1  0  0 501 502  0.0000000E+00  0.0000000E+00  4.4579482E+02  4.4579482E+02  0.0000000E+00  0.0000000E+00  1.0000000E+00
 21 -1  0  0 502 501  0.0000000E+00  0.0000000E+00 -5.6346090E+02  5.6346090E+02  0.0000000E+00  0.0000000E+00  1.0000000E+00
 39  2  1  2   0   0  8.8817842E-16 -6.8212103E-13 -1.1766608E+02  1.0092557E+03  1.0023731E+03  0.0000000E+00  1.0000000E+00
 23  2  3  3   0   0  1.0405632E+00  3.5475894E+02  2.8523177E+02  4.6480711E+02  9.3986677E+01  0.0000000E+00  1.0000000E+00
 23  2  3  3   0   0 -1.0405632E+00 -3.5475894E+02 -4.0289785E+02  5.4444861E+02  9.0788892E+01  0.0000000E+00  1.0000000E+00
-11  1  4  4   0   0  8.0858599E+00  2.2503425E+02  1.2173587E+02  2.5597933E+02  4.2649612E-06  0.0000000E+00  1.0000000E+00
 11  1  4  4   0   0 -7.0452967E+00  1.2972469E+02  1.6349590E+02  2.0882778E+02  8.3139399E-06  0.0000000E+00  1.0000000E+00
-13  1  5  5   0   0 -3.4993196E+01 -1.8093996E+02 -2.4926033E+02  3.0999113E+02  6.6072495E-06  0.0000000E+00  1.0000000E+00
 13  1  5  5   0   0  3.3952633E+01 -1.7381898E+02 -1.5363753E+02  2.3445748E+02  1.3486992E-05  0.0000000E+00  1.0000000E+00
</event>
<event>
9 100 1.0000000E+00 1.0000000E+03 7.8125000E-03 0.0000000E+00
 21 -1  0  0 501 502  0.0000000E+00  0.0000000E+00  1.5738523E+02  1.5738523E+02  0.0000000E+00  0.0000000E+00  1.0000000E+00
 21 -1  0  0 502 501  0.0000000E+00  0.0000000E+00 -1.5891966E+03  1.5891966E+03  0.0000000E+00  0.0000000E+00  1.0000000E+00
 39  2  1  2   0   0  4.9737992E-13 -9.9475983E-14 -1.4318114E+03  1.7465818E+03  1.0002321E+03  0.0000000E+00  1.0000000E+00
 23  2  3  3   0   0 -1.2110323E+02  2.7429134E+01 -1.5431911E+03  1.5500089E+03  7.5303370E+01  0.0000000E+00  1.0000000E+00
 23  2  3  3   0   0  1.2110323E+02 -2.7429134E+01  1.1137967E+02  1.9657295E+02  1.0400551E+02  0.0000000E+00  1.0000000E+00
-11  1  4  4   0   0 -1.0525541E+02 -4.9030897E+00 -1.2859952E+03  1.2903048E+03  5.3947966E-06  0.0000000E+00  1.0000000E+00
 11  1  4  4   0   0 -1.5847816E+01  3.2332224E+01 -2.5719583E+02  2.5970411E+02  4.0370961E-05  0.0000000E+00  1.0000000E+00
-13  1  5  5   0   0  2.1063139E+01  8.0531243E+00  8.3969628E+01  8.6944851E+01  7.9861327E-06  0.0000000E+00  1.0000000E+00
 13  1  5  5   0   0  1.0004009E+02 -3.5482259E+01  2.7410041E+01  1.0962810E+02  6.9428538E-06  0.0000000E+00  1.0000000E+00
</event>
<event>
9 100 1.0000000E+00 1.0000000E+03 7.8125000E-03 0.0000000E+00
 21 -1  0  0 501 502  0.0000000E+00  0.0000000E+00  1.2616330E+03  1.2616330E+03  0.0000000E+00  0.0000000E+00  1.0000000E+00
 21 -1  0  0 502 501  0.0000000E+00  0.0000000E+00 -1.9847296E+02  1.9847296E+02  0.0000000E+00  0.0000000E+00  1.0000000E+00
 39  2  1  2   0   0 -7.6738615E-13 -7.1054274E-13  1.0631600E+03  1.4601059E+03  1.0007997E+03  0.0000000E+00  1.0000000E+00
 23  2  3  3   0   0 -2.2392460E+02 -2.0956869E+02  1.0922788E+03  1.1393731E+03  1.0505628E+02  0.0000000E+00  1.0000000E+00
 23  2  3  3   0   0  2.2392460E+02  2.0956869E+02 -2.9118763E+01  3.2073285E+02  8.9221050E+01  0.0000000E+00  1.0000000E+00
-11  1  4  4   0   0 -1.9123791E+02 -1.1280816E+02  7.4149509E+02  7.7402364E+02  1.0789593E-05  0.0000000E+00  1.0000000E+00
 11  1  4  4   0   0 -3.2686690E+01 -9.6760533E+01  3.5078368E+02  3.6534944E+02  2.6428998E-05  0.0000000E+00  1.0000000E+00
-13  1  5  5   0   0  1.4689015E+02  1.8924946E+02 -1.7279524E+01  2.4018880E+02  3.8811733E-06  0.0000000E+00  1.0000000E+00
 13  1  5  5   0   0  7.7034446E+01  2.0319229E+01 -1.1839238E+01  8.0544053E+01  8.3446503E-06  0.0000000E+00  1.0000000E+00
</event>
<event>
9 100 1.0000000E+00 1.0000000E+03 7.8125000E-03 0.0000000E+00
 21 -1  0  0 501 502  0.0000000E+00  0.0000000E+00  1.2922812E+02  1.2922812E+02  0.0000000E+00  0.0000000E+00  1.0000000E+00
 21 -1  0  0 502 501  0.0000000E+00  0.0000000E+00 -1.9304842E+03  1.9304842E+03  0.0000000E+00  0.0000000E+00  1.0000000E+00
 39  2  1  2   0   0  1.9895197E-13  5.1159077E-13 -1.8012561E+03  2.0597123E+03  9.9894514E+02  0.0000000E+00  1.0000000E+00
 23  2  3  3   0   0  1.1520194E+02  2.9335181E+02 -1.2506312E+02  3.5179234E+02  9.3756562E+01  0.0000000E+00  1.0000000E+00
 23  2  3  3   0   0 -1.1520194E+02 -2.9335181E+02 -1.6761930E+03  1.7079200E+03  8.9672121E+01  0.0000000E+00  1.0000000E+00
-11  1  4  4   0   0  3.7758733E+01  2.1313053E+02 -9.4480848E+01  2.3617149E+02  7.8786429E-06  0.0000000E+00  1.0000000E+00
 11  1  4  4   0   0  7.7443203E+01  8.0221282E+01 -3.0582276E+01  1.1562084E+02  1.6240488E-05  0.0000000E+00  1.0000000E+00
-13  1  5  5   0   0 -2.3394454E+01 -1.3528850E+02 -5.4354305E+02  5.6061513E+02  0.0000000E+00  0.0000000E+00  1.0000000E+00
 13  1  5  5   0   0 -9.1807482E+01 -1.5806331E+02 -1.1326499E+03  1.1473049E+03  1.0789593E-05  0.0000000E+00  1.0000000E+00
</event>
<event>
9 100 1.0000000E+00 1.0000000E+03 7.8125000E-03 0.0000000E+00
 21 -1  0  0 501 502  0.0000000E+00  0.0000000E+00  2.4009803E+02  2.4009803E+02  0.0000000E+00  0.0000000E+00  1.0000000E+00
 21 -1  0  0 502 501  0.0000000E+00  0.0000000E+00 -1.0135023E+03  1.0135023E+03  0.0000000E+00  0.0000000E+00  1.0000000E+00
 39  2  1  2   0   0 -1.8758328E-12  2.5011104E-12 -7.7340431E+02  1.2536004E+03  9.8658991E+02  0.0000000E+00  1.0000000E+00
 23  2  3  3   0   0 -1.7599752E+02  2.3253123E+02 -8.7843289E+02  9.3016659E+02  9.2301931E+01  0.0000000E+00  1.0000000E+00
 23  2  3  3   0   0  1.7599752E+02 -2.3253123E+02  1.0502858E+02  3.2343378E+02  9.2371557E+01  0.0000000E+00  1.0000000E+00
-11  1  4  4   0   0 -1.2047875E+01  2.5364294E+01 -2.8050540E+01  3.9690446E+01  4.0370961E-05  0.0000000E+00  1.0000000E+00
 11  1  4  4   0   0 -1.6394965E+02  2.0716694E+02 -8.5038235E+02  8.9047614E+02  1.0115244E-06  0.0000000E+00  1.0000000E+00
-13  1  5  5   0   0  1.3502914E+02 -2.2315750E+02  7.3784196E+01  2.7106503E+02  5.6921656E-06  0.0000000E+00  1.0000000E+00
 13  1  5  5   0   0  4.0968376E+01 -9.3737291E+00  3.1244381E+01  5.2368750E+01  1.8119812E-05  0.0000000E+00  1.0000000E+00
</event>
<event>
9 100 1.0000000E+00 1.0000000E+03 7.8125000E-03 0.0000000E+00
 21 -1  0  0 501 502  0.0000000E+00  0.0000000E+00  4.8796454E+02  4.8796454E+02  0.0000000E+00  0.0000000E+00  1.0000000E+00
 21 -1  0  0 502 501  0.0000000E+00  0.0000000E+00 -5.1063782E+02  5.1063782E+02  0.0000000E+00  0.0000000E+00  1.0000000E+00
 39  2  1  2   0   0  1.0231815E-12 -1.9895197E-13 -2.2673279E+01  9.9860236E+02  9.9834492E+02  0.0000000E+00  1.0000000E+00
 23  2  3  3   0   0 -4.7944937E+02  9.4801857E+01 -5.6540892E+01  5.0039726E+02  9.1331525E+01  0.0000000E+00  1.0000000E+00
 23  2  3  3   0   0  4.7944937E+02 -9.4801857E+01  3.3867613E+01  4.9820510E+02  9.0566064E+01  0.0000000E+00  1.0000000E+00
-11  1  4  4   0   0 -3.6062496E+02  3.7343572E+01 -1.8446423E+01  3.6302228E+02  3.1268304E-06  0.0000000E+00  1.0000000E+00
 11  1  4  4   0   0 -1.1882441E+02  5.7458285E+01 -3.8094469E+01  1.3737498E+02  7.0605721E-06  0.0000000E+00  1.0000000E+00
-13  1  5  5   0   0  4.3770858E+02 -6.7803758E+01  9.9531729E+00  4.4304088E+02  2.2618372E-06  0.0000000E+00  1.0000000E+00
 13  1  5  5   0   0  4.1740789E+01 -2.6998099E+01  2.3914440E+01  5.5164221E+01  7.6359110E-06  0.0000000E+00  1.0000000E+00
</event>
<event>
9 100 1.0000000E+00 1.0000000E+03 7.8125000E-03 0.0000000E+00
 21 -1  0  0 501 502  0.0000000E+00  0.0000000E+00  1.6372095E+02  1.6372095E+02  0.0000000E+00  0.0000000E+00  1.0000000E+00
 21 -1  0  0 502 501  0.0000000E+00  0.0000000E+00 -1.5242556E+03  1.5242556E+03  0.0000000E+00  0.0000000E+00  1.0000000E+00
 39  2  1  2   0   0  2.3021585E-12  2.7853275E-12 -1.3605346E+03  1.6879765E+03  9.9910475E+02  0.0000000E+00  1.0000000E+00
 23  2  3  3   0   0 -1.5943964E+02 -1.9373363E+02  3.2950380E+01  2.6914009E+02  9.1634812E+01  0.0000000E+00  1.0000000E+00
 23  2  3  3   0   0  1.5943964E+02  1.9373363E+02 -1.3934850E+03  1.4188364E+03  9.1338288E+01  0.0000000E+00  1.0000000E+00
-11  1  4  4   0   0 -1.0611445E+02 -9.9379481E+01  6.0250539E+01  1.5737435E+02  1.3058723E-06  0.0000000E+00  1.0000000E+00
 11  1  4  4   0   0 -5.3325195E+01 -9.4354149E+01 -2.7300158E+01  1.1176574E+02  3.5683226E-06  0.0000000E+00  1.0000000E+00
-13  1  5  5   0   0  9.9187320E+01  1.5782230E+02 -8.1114463E+02  8.3228698E+02  1.5258789E-05  0.0000000E+00  1.0000000E+00
 13  1  5  5   0   0  6.0252324E+01  3.5911326E+01 -5.8234036E+02  5.8654945E+02  2.1579186E-05  0.0000000E+00  1.0000000E+00
</event>
<event>
9 100 1.0000000E+00 1.0000000E+03 7.8125000E-03 0.0000000E+00
 21 -1  0  0 501 502  0.0000000E+00  0.0000000E+00  1.0018895E+03  1.0018895E+03  0.0000000E+00  0.0000000E+00  1.0000000E+00
 21 -1  0  0 502 501  0.0000000E+00  0.0000000E+00 -2.4917038E+02  2.4917038E+02  0.0000000E+00  0.0000000E+00  1.0000000E+00
 39  2  1  2   0   0 -4.5474735E-13  4.5474735E-13  7.5271917E+02  1.2510599E+03  9.9928214E+02  0.0000000E+00  1.0000000E+00
 23  2  3  3   0   0 -2.5797821E+02  3.2760367E+02  7.0223741E+02  8.2164112E+02  8.9887894E+01  0.0000000E+00  1.0000000E+00
 23  2  3  3   0   0  2.5797821E+02 -3.2760367E+02  5.0481759E+01  4.2941880E+02  8.9303846E+01  0.0000000E+00  1.0000000E+00
-11  1  4  4   0   0 -1.7283147E+02  1.8766760E+02  5.0051404E+02  5.6178657E+02  1.2361032E-05  0.0000000E+00  1.0000000E+00
 11  1  4  4   0   0 -8.5146745E+01  1.3993607E+02  2.0172337E+02  2.5985456E+02  1.5258789E-05  0.0000000E+00  1.0000000E+00
-13  1  5  5   0   0  1.1262340E+02 -1.0984415E+02  5.7527520E+01  1.6750875E+02  6.5894815E-06  0.0000000E+00  1.0000000E+00
 13  1  5  5   0   0  1.4535482E+02 -2.1775952E+02 -7.0457602E+00  2.6191005E+02  4.2649612E-06  0.0000000E+00  1.0000000E+00
</event>
<event>
9 100 1.0000000E+00 1.0000000E+03 7.8125000E-03 0.0000000E+00
 21 -1  0  0 501 502  0.0000000E+00  0.0000000E+00  7.4771529E+02  7.4771529E+02  0.0000000E+00  0.0000000E+00  1.0000000E+00
 21 -1  0  0 502 501  0.0000000E+00  0.0000000E+00 -3.3134355E+02  3.3134355E+02  0.0000000E+00  0.0000000E+00  1.0000000E+00
 39  2  1  2   0   0 -1.9895197E-13 -3.1263880E-13  4.1637173E+02  1.0790588E+03  9.9549112E+02  0.0000000E+00  1.0000000E+00
 23  2  3  3   0   0  1.3248185E+02  1.9043359E+02 -2.5847519E+02  3.5976945E+02  9.3852217E+01  0.0000000E+00  1.0000000E+00
 23  2  3  3   0   0 -1.3248185E+02 -1.9043359E+02  6.7484692E+02  7.1928940E+02  9.0235671E+01  0.0000000E+00  1.0000000E+00
-11  1  4  4   0   0  3.3834393E-01  2.5499418E+00  7.7392895E+00  8.1555675E+00  1.1444092E-05  0.0000000E+00  1.0000000E+00
 11  1  4  4   0   0  1.3214351E+02  1.8788365E+02 -2.6621448E+02  3.5161388E+02  1.0358183E-06  0.0000000E+00  1.0000000E+00
-13  1  5  5   0   0 -8.1985127E+01 -1.7674924E+02  5.6424921E+02  5.9694139E+02  5.5608291E-06  0.0000000E+00  1.0000000E+00
 13  1  5  5   0   0 -5.0496723E+01 -1.3684351E+01  1.1059771E+02  1.2234800E+02  2.4126264E-05  0.0000000E+00  1.0000000E+00
</event>
<event>
9 100 1.0000000E+00 1.0000000E+03 7.8125000E-03 0.0000000E+00
 21 -1  0  0 501 502  0.0000000E+00  0.0000000E+00  4.4663634E+02  4.4663634E+02  0.0000000E+00  0.0000000E+00  1.0000000E+00
 21 -1  0  0 502 501  0.0000000E+00  0.0000000E+00 -5.6434937E+02  5.6434937E+02  0.0000000E+00  0.0000000E+00  1.0000000E+00
 39  2  1  2   0   0  1.4210855E-13  1.7053026E-13 -1.1771304E+02  1.0109857E+03  1.0041094E+03  0.0000000E+00  1.0000000E+00
 23  2  3  3   0   0 -1.5256456E+02 -1.5338464E+02  3.8814005E+02  4.5355489E+02  9.0865559E+01  0.0000000E+00  1.0000000E+00
 23  2  3  3   0   0  1.5256456E+02  1.5338464E+02 -5.0585309E+02  5.5743082E+02  8.9660329E+01  0.0000000E+00  1.0000000E+00
-11  1  4  4   0   0 -2.5428159E+00  6.4510348E+00 -9.1348489E-01  6.9940130E+00  9.3440618E-06  0.0000000E+00  1.0000000E+00
 11  1  4  4   0   0 -1.5002174E+02 -1.5983567E+02  3.8905354E+02  4.4656088E+02  7.9095555E-07  0.0000000E+00  1.0000000E+00
-13  1  5  5   0   0  2.7198087E+01  3.4192640E+01 -2.1189050E+02  2.1634799E+02  7.6293945E-06  0.0000000E+00  1.0000000E+00
 13  1  5  5   0   0  1.2536647E+02  1.1919200E+02 -2.9396259E+02  3.4108282E+02  2.6973983E-06  0.0000000E+00  1.0000000E+00
</event>
<event>
9 100 1.0000000E+00 1.0000000E+03 7.8125000E-03 0.0000000E+00
 21 -1  0  0 501 502  0.0000000E+00  0.0000000E+00  8.9928059E+02  8.9928059E+02  0.0000000E+00  0.0000000E+00  1.0000000E+00
 21 -1  0  0 502 501  0.0000000E+00  0.0000000E+00 -2.8786168E+02  2.8786168E+02  0.0000000E+00  0.0000000E+00  1.0000000E+00
 39  2  1  2   0   0  1.1368684E-13  1.1368684E-13  6.1141891E+02  1.1871423E+03  1.0175823E+03  0.0000000E+00  1.0000000E+00
 23  2  3  3   0   0  1.8410194E+02  1.9137896E+02  8.0045808E+02  8.4809622E+02  8.9524485E+01  0.0000000E+00  1.0000000E+00
 23  2  3  3   0   0 -1.8410194E+02 -1.9137896E+02 -1.8903916E+02  3.3904605E+02  9.3257642E+01  0.0000000E+00  1.0000000E+00
-11  1  4  4   0   0  5.4939910E+01  6.7713061E+01  4.0206682E+02  4.1141364E+02  1.2063132E-05  0.0000000E+00  1.0000000E+00
 11  1  4  4   0   0  1.2916203E+02  1.2366590E+02  3.9839126E+02  4.3668258E+02  1.0789593E-05  0.0000000E+00  1.0000000E+00
-13  1  5  5   0   0 -1.2843309E+02 -1.2136245E+02 -1.7464577E+02  2.4844526E+02  5.9913787E-06  0.0000000E+00  1.0000000E+00
 13  1  5  5   0   0 -5.5668852E+01 -7.0016514E+01 -1.4393390E+01  9.0600789E+01  1.1284027E-05  0.0000000E+00  1.0000000E+00
</event>
<event>
9 100 1.0000000E+00 1.0000000E+03 7.8125000E-03 0.0000000E+00
 21 -1  0  0 501 502  0.0000000E+00  0.0000000E+00  4.3221677E+02  4.3221677E+02  0.0000000E+00  0.0000000E+00  1.0000000E+00
 21 -1  0  0 502 501  0.0000000E+00  0.0000000E+00 -5.8924629E+02  5.8924629E+02  0.0000000E+00  0.0000000E+00  1.0000000E+00
 39  2  1  2   0   0 -1.0231815E-12 -1.9895197E-13 -1.5702952E+02  1.0214631E+03  1.0093208E+03  0.0000000E+00  1.0000000E+00
 23  2  3  3   0   0 -3.5639515E+02 -7.4767293E+01 -4.1954190E+02  5.6337273E+02  9.3625724E+01  0.0000000E+00  1.0000000E+00
 23  2  3  3   0   0  3.5639515E+02  7.4767293E+01  2.6251238E+02  4.5809033E+02  9.1248832E+01  0.0000000E+00  1.0000000E+00
-11  1  4  4   0   0 -3.2820519E+01  2.0892771E+00 -8.7237471E+01  9.3230509E+01  1.2063132E-05  0.0000000E+00  1.0000000E+00
 11  1  4  4   0   0 -3.2357463E+02 -7.6856570E+01 -3.3230443E+02  4.7014222E+02  3.4385216E-06  0.0000000E+00  1.0000000E+00
-13  1  5  5   0   0  4.7612856E+01 -2.0762226E+00  7.4668627E+01  8.8581593E+01  1.0446979E-05  0.0000000E+00  1.0000000E+00
 13  1  5  5   0   0  3.0878230E+02  7.6843516E+01  1.8784376E+02  3.6950874E+02  4.4731290E-06  0.0000000E+00  1.0000000E+00
</event>
<event>
9 100 1.0000000E+00 1.0000000E+03 7.8125000E-03 0.0000000E+00
 21 -1  0  0 501 502  0.0000000E+00  0.0000000E+00  1.7645259E+02  1.7645259E+02  0.0000000E+00  0.0000000E+00  1.0000000E+00
 21 -1  0  0 502 501  0.0000000E+00  0.0000000E+00 -1.9252768E+03  1.9252768E+03  0.0000000E+00  0.0000000E+00  1.0000000E+00
 39  2  1  2   0   0  2.3874236E-12 -1.0302870E-13 -1.7488242E+03  2.1017294E+03  1.1657102E+03  0.0000000E+00  1.0000000E+00
 23  2  3  3   0   0  4.1987393E+02 -1.7226885E+01 -1.5837900E+03  1.6411189E+03  9.1047108E+01  0.0000000E+00  1.0000000E+00
 23  2  3  3   0   0 -4.1987393E+02  1.7226885E+01 -1.6503424E+02  4.6061052E+02  9.1295537E+01  0.0000000E+00  1.0000000E+00
-11  1  4  4   0   0  2.7671889E+01 -1.6183465E+01 -6.4571250E+01  7.2090806E+01  4.8252528E-05  0.0000000E+00  1.0000000E+00
 11  1  4  4   0   0  3.9220204E+02 -1.0434202E+00 -1.5192187E+03  1.5690281E+03  1.3486992E-06  0.0000000E+00  1.0000000E+00
-13  1  5  5   0   0 -2.9102248E+02  3.1181061E+01 -7.3006045E+01  3.0165581E+02  2.6973983E-06  0.0000000E+00  1.0000000E+00
 13  1  5  5   0   0 -1.2885145E+02 -1.3954176E+01 -9.2028191E+01  1.5895472E+02  6.8105969E-06  0.0000000E+00  1.0000000E+00
</event>
<event>
9 100 1.0000000E+00 1.0000000E+03 7.8125000E-03 0.0000000E+00
 21 -1  0  0 501 502  0.0000000E+00  0.0000000E+00  2.9180874E+02  2.9180874E+02  0.0000000E+00  0.0000000E+00  1.0000000E+00
 21 -1  0  0 502 501  0.0000000E+00  0.0000000E+00 -8.5641815E+02  8.5641815E+02  0.0000000E+00  0.0000000E+00  1.0000000E+00
 39  2  1  2   0   0 -7.8159701E-14  3.1974423E-14 -5.6460941E+02  1.1482269E+03  9.9982058E+02  0.0000000E+00  1.0000000E+00
 23  2  3  3   0   0  5.6128575E+01 -2.7670054E+01  2.7801581E+02  2.9831913E+02  8.8235250E+01  0.0000000E+00  1.0000000E+00
 23  2  3  3   0   0 -5.6128575E+01  2.7670054E+01 -8.4262523E+02  8.4990776E+02  9.1705407E+01  0.0000000E+00  1.0000000E+00
-11  1  4  4   0   0  2.1409404E+01 -2.4178002E+01  2.5379754E+02  2.5584396E+02  3.4714269E-06  0.0000000E+00  1.0000000E+00
 11  1  4  4   0   0  3.4719171E+01 -3.4920522E+00  2.4218273E+01  4.2475169E+01  1.2651920E-05  0.0000000E+00  1.0000000E+00
-13  1  5  5   0   0  1.2087181E+01 -1.4023346E+01 -3.7809266E+02  3.7854566E+02  1.7059845E-05  0.0000000E+00  1.0000000E+00
 13  1  5  5   0   0 -6.8215756E+01  4.1693400E+01 -4.6453257E+02  4.7136210E+02  1.6184390E-05  0.0000000E+00  1.0000000E+00
</event>
<event>
9 100 1.0000000E+00 1.0000000E+03 7.8125000E-03 0.0000000E+00
 21 -1  0  0 501 502  0.0000000E+00  0.0000000E+00  1.3644065E+02  1.3644065E+02  0.0000000E+00  0.0000000E+00  1.0000000E+00
 21 -1  0  0 502 501  0.0000000E+00  0.0000000E+00 -1.8255586E+03  1.8255586E+03  0.0000000E+00  0.0000000E+00  1.0000000E+00
 39  2  1  2   0   0 -3.3253400E-12 -7.1054274E-12 -1.6891179E+03  1.9619992E+03  9.9815910E+02  0.0000000E+00  1.0000000E+00
 23  2  3  3   0   0  1.9195058E+02  4.0931850E+02 -1.2189825E+03  1.3033451E+03  9.1669992E+01  0.0000000E+00  1.0000000E+00
 23  2  3  3   0   0 -1.9195058E+02 -4.0931850E+02 -4.7013544E+02  6.5865417E+02  9.1713253E+01  0.0000000E+00  1.0000000E+00
-11  1  4  4   0   0  1.7388123E+02  4.0559034E+02 -1.1449653E+03  1.2270631E+03  5.3098339E-06  0.0000000E+00  1.0000000E+00
 11  1  4  4   0   0  1.8069350E+01  3.7281614E+00 -7.4017171E+01  7.6281991E+01  1.5258789E-05  0.0000000E+00  1.0000000E+00
-13  1  5  5   0   0 -2.1332529E+01 -1.3953472E+02 -1.6386669E+02  2.1628062E+02  1.5258789E-05  0.0000000E+00  1.0000000E+00
 13  1  5  5   0   0 -1.7061805E+02 -2.6978378E+02 -3.0626875E+02  4.4237355E+02  8.7405695E-06  0.0000000E+00  1.0000000E+00
</event>
<event>
9 100 1.0000000E+00 1.0000000E+03 7.8125000E-03 0.0000000E+00
 21 -1  0  0 501 502  0.0000000E+00  0.0000000E+00  1.1188526E+03  1.1188526E+03  0.0000000E+00  0.0000000E+00  1.0000000E+00
 21 -1  0  0 502 501  0.0000000E+00  0.0000000E+00 -2.2227749E+02  2.2227749E+02  0.0000000E+00  0.0000000E+00  1.0000000E+00
 39  2  1  2   0   0  2.3590019E-12 -1.1226575E-12  8.9657514E+02  1.3411301E+03  9.9738811E+02  0.0000000E+00  1.0000000E+00
 23  2  3  3   0   0 -1.6463326E+02  7.9006167E+01 -1.6364686E+02  2.6129533E+02  9.0271093E+01  0.0000000E+00  1.0000000E+00
 23  2  3  3   0   0  1.6463326E+02 -7.9006167E+01  1.0602220E+03  1.0798348E+03  9.2878563E+01  0.0000000E+00  1.0000000E+00
-11  1  4  4   0   0 -1.1602699E+02  2.6795545E+01 -1.4487266E+02  1.8753227E+02  3.0063439E-06  0.0000000E+00  1.0000000E+00
 11  1  4  4   0   0 -4.8606268E+01  5.2210622E+01 -1.8774195E+01  7.3763058E+01  6.8770433E-06  0.0000000E+00  1.0000000E+00
-13  1  5  5   0   0  1.5488121E+02 -8.7790377E+01  8.1299712E+02  8.3226177E+02  8.5299224E-06  0.0000000E+00  1.0000000E+00
 13  1  5  5   0   0  9.7520535E+00  8.7842101E+00  2.4722487E+02  2.4757302E+02  2.8546580E-05  0.0000000E+00  1.0000000E+00
</event>
<event>
9 100 1.0000000E+00 1.0000000E+03 7.8125000E-03 0.0000000E+00
 21 -1  0  0 501 502  0.0000000E+00  0.0000000E+00  4.0682838E+02  4.0682838E+02  0.0000000E+00  0.0000000E+00  1.0000000E+00
 21 -1  0  0 502 501  0.0000000E+00  0.0000000E+00 -6.1050175E+02  6.1050175E+02  0.0000000E+00  0.0000000E+00  1.0000000E+00
 39  2  1  2   0   0  6.8212103E-13 -3.1263880E-13 -2.0367337E+02  1.0173301E+03  9.9673354E+02  0.0000000E+00  1.0000000E+00
 23  2  3  3   0   0  3.7655260E+02 -1.9113010E+02 -3.5377261E+02  5.5870737E+02  9.3146607E+01  0.0000000E+00  1.0000000E+00
 23  2  3  3   0   0 -3.7655260E+02  1.9113010E+02  1.5009923E+02  4.5862276E+02  9.7378035E+01  0.0000000E+00  1.0000000E+00
-11  1  4  4   0   0  1.9374500E+02 -4.7049078E+01 -1.7354592E+02  2.6432731E+02  1.2936268E-05  0.0000000E+00  1.0000000E+00
 11  1  4  4   0   0  1.8280760E+02 -1.4408103E+02 -1.8022668E+02  2.9438006E+02  8.0921949E-06  0.0000000E+00  1.0000000E+00
-13  1  5  5   0   0 -3.6706168E+02  1.7392002E+02  1.2157750E+02  4.2398531E+02  4.5236745E-06  0.0000000E+00  1.0000000E+00
 13  1  5  5   0   0 -9.4909217E+00  1.7210080E+01  2.8521727E+01  3.4637456E+01  2.3746299E-05  0.0000000E+00  1.0000000E+00
</event>
<event>
9 100 1.0000000E+00 1.0000000E+03 7.8125000E-03 0.0000000E+00
 21 -1  0  0 501 502  0.0000000E+00  0.0000000E+00  3.4135967E+02  3.4135967E+02  0.0000000E+00  0.0000000E+00  1.0000000E+00
 21 -1  0  0 502 501  0.0000000E+00  0.0000000E+00 -7.3891881E+02  7.3891881E+02  0.0000000E+00  0.0000000E+00  1.0000000E+00
 39  2  1  2   0   0  1.3642421E-12 -5.9685590E-13 -3.9755914E+02  1.0802785E+03  1.0044642E+03  0.0000000E+00  1.0000000E+00
 23  2  3  3   0   0 -1.4152380E+02  5.9896633E+01  3.0578718E+02  3.5469185E+02  9.3187511E+01  0.0000000E+00  1.0000000E+00
 23  2  3  3   0   0  1.4152380E+02 -5.9896633E+01 -7.0334632E+02  7.2558663E+02  9.0351076E+01  0.0000000E+00  1.0000000E+00
-11  1  4  4   0   0 -6.9942109E+01 -1.1647998E+00  6.2352761E+01  9.3707642E+01  9.3440618E-06  0.0000000E+00  1.0000000E+00
 11  1  4  4   0   0 -7.1581689E+01  6.1061433E+01  2.4343442E+02  2.6098421E+02  4.0460975E-06  0.0000000E+00  1.0000000E+00
-13  1  5  5   0   0 -1.2010706E+01 -7.6671711E+00 -3.3826272E+01  3.6705030E+01  1.0789593E-05  0.0000000E+00  1.0000000E+00
 13  1  5  5   0   0  1.5353450E+02 -5.2229462E+01 -6.6952005E+02  6.8888160E+02  1.8467824E-06  0.0000000E+00  1.0000000E+00
</event>
<event>
9 100 1.0000000E+00 1.0000000E+03 7.8125000E-03 0.0000000E+00
 21 -1  0  0 501 502  0.0000000E+00  0.0000000E+00  8.2668795E+02  8.2668795E+02  0.0000000E+00  0.0000000E+00  1.0000000E+00
 21 -1  0  0 502 501  0.0000000E+00  0.0000000E+00 -3.0246544E+02  3.0246544E+02  0.0000000E+00  0.0000000E+00  1.0000000E+00
 39  2  1  2   0   0  7.3896445E-13  5.6843419E-13  5.2422251E+02  1.1291534E+03  1.0000891E+03  0.0000000E+00  1.0000000E+00
 23  2  3  3   0   0  3.1197562E+02  2.4749811E+02  5.8902163E+02  7.1633407E+02  8.7200439E+01  0.0000000E+00  1.0000000E+00
 23  2  3  3   0   0 -3.1197562E+02 -2.4749811E+02 -6.4799113E+01  4.1281932E+02  8.7388604E+01  0.0000000E+00  1.0000000E+00
-11  1  4  4   0   0  1.6353633E+02  1.6577723E+02  3.9684999E+02  4.6012621E+02  8.0921949E-06  0.0000000E+00  1.0000000E+00
 11  1  4  4   0   0  1.4843928E+02  8.1720880E+01  1.9217164E+02  2.5620785E+02  1.4273290E-05  0.0000000E+00  1.0000000E+00
-13  1  5  5   0   0 -2.6167880E+02 -1.8009994E+02 -2.1919420E+01  3.1842149E+02  6.6927284E-06  0.0000000E+00  1.0000000E+00
 13  1  5  5   0   0 -5.0296815E+01 -6.7398169E+01 -4.2879693E+01  9.4397833E+01  1.6060991E-05  0.0000000E+00  1.0000000E+00
</event>
<event>
9 100 1.0000000E+00 1.0000000E+03 7.8125000E-03 0.0000000E+00
 21 -1  0  0 501 502  0.0000000E+00  0.0000000E+00  2.0085737E+02  2.0085737E+02  0.0000000E+00  0.0000000E+00  1.0000000E+00
 21 -1  0  0 502 501  0.0000000E+00  0.0000000E+00 -1.2393787E+03  1.2393787E+03  0.0000000E+00  0.0000000E+00  1.0000000E+00
 39  2  1  2   0   0  1.7053026E-13 -3.9790393E-13 -1.0385213E+03  1.4402360E+03  9.9787442E+02  0.0000000E+00  1.0000000E+00
 23  2  3  3   0   0 -8.2077848E+01  3.0685598E+02 -1.0589651E+03  1.1092297E+03  8.9922344E+01  0.0000000E+00  1.0000000E+00
 23  2  3  3   0   0  8.2077848E+01 -3.0685598E+02  2.0443789E+01  3.3100637E+02  9.0828986E+01  0.0000000E+00  1.0000000E+00
-11  1  4  4   0   0 -1.7512602E+01  2.1301030E+02 -7.5313501E+02  7.8287446E+02  6.6072495E-06  0.0000000E+00  1.0000000E+00
 11  1  4  4   0   0 -6.4565246E+01  9.3845685E+01 -3.0583008E+02  3.2635521E+02  2.1579186E-05  0.0000000E+00  1.0000000E+00
-13  1  5  5   0   0  6.2016416E+00  5.6955425E+00  2.8739716E+00  8.8971498E+00  1.6867167E-05  0.0000000E+00  1.0000000E+00
 13  1  5  5   0   0  7.5876207E+01 -3.1255152E+02  1.7569817E+01  3.2210922E+02  2.3890238E-06  0.0000000E+00  1.0000000E+00
</event>
<event>
9 100 1.0000000E+00 1.0000000E+03 7.8125000E-03 0.0000000E+00
 21 -1  0  0 501 502  0.0000000E+00  0.0000000E+00  1.0379863E+03  1.0379863E+03  0.0000000E+00  0.0000000E+00  1.0000000E+00
 21 -1  0  0 502 501  0.0000000E+00  0.0000000E+00 -2.3809395E+02  2.3809395E+02  0.0000000E+00  0.0000000E+00  1.0000000E+00
 39  2  1  2   0   0 -1.0231815E-12 -3.4106051E-13  7.9989230E+02  1.2760802E+03  9.9426002E+02  0.0000000E+00  1.0000000E+00
 23  2  3  3   0   0 -2.2602295E+02 -7.8487377E+01  9.4658734E+02  9.8069297E+02  9.2111136E+01  0.0000000E+00  1.0000000E+00
 23  2  3  3   0   0  2.2602295E+02  7.8487377E+01 -1.4669504E+02  2.9538723E+02  9.2127846E+01  0.0000000E+00  1.0000000E+00
-11  1  4  4   0   0 -7.3279308E+01 -2.5482725E+01  1.6199180E+02  1.7961227E+02  2.6428998E-05  0.0000000E+00  1.0000000E+00
 11  1  4  4   0   0 -1.5274365E+02 -5.3004652E+01  7.8459554E+02  8.0108069E+02  7.3871295E-06  0.0000000E+00  1.0000000E+00
-13  1  5  5   0   0  4.0646985E+01  3.9181276E+01 -1.1867562E+00  5.6469090E+01  3.3036247E-06  0.0000000E+00  1.0000000E+00
 13  1  5  5   0   0  1.8537597E+02  3.9306101E+01 -1.4550828E+02  2.3891814E+02  2.4461517E-06  0.0000000E+00  1.0000000E+00
</event>
<event>
9 100 1.0000000E+00 1.0000000E+03 7.8125000E-03 0.0000000E+00
 21 -1  0  0 501 502  0.0000000E+00  0.0000000E+00  1.5197017E+03  1.5197017E+03  0.0000000E+00  0.0000000E+00  1.0000000E+00
 21 -1  0  0 502 501  0.0000000E+00  0.0000000E+00 -1.6517308E+02  1.6517308E+02  0.0000000E+00  0.0000000E+00  1.0000000E+00
 39  2  1  2   0   0  2.1316282E-14  3.9790393E-13  1.3545286E+03  1.6848748E+03  1.0020256E+03  0.0000000E+00  1.0000000E+00
 23  2  3  3   0   0  4.1031277E+01  4.8726143E+02  7.6933139E+02  9.1612516E+02  9.1144122E+01  0.0000000E+00  1.0000000E+00
 23  2  3  3   0   0 -4.1031277E+01 -4.8726143E+02  5.8519724E+02  7.6874963E+02  9.7020213E+01  0.0000000E+00  1.0000000E+00
-11  1  4  4   0   0  4.6347699E+01  1.2435334E+02  1.7320018E+02  2.1819754E+02  1.0789593E-05  0.0000000E+00  1.0000000E+00
 11  1  4  4   0   0 -5.3164223E+00  3.6290809E+02  5.9613121E+02  6.9792762E+02  4.2649612E-06  0.0000000E+00  1.0000000E+00
-13  1  5  5   0   0  1.6304339E+01 -2.2536166E+02  3.1922523E+02  3.9109904E+02  6.6072495E-06  0.0000000E+00  1.0000000E+00
 13  1  5  5   0   0 -5.7335616E+01 -2.6189977E+02  2.6597201E+02  3.7765059E+02  1.4273290E-05  0.0000000E+00  1.0000000E+00
</event>
<event>
9 100 1.0000000E+00 1.0000000E+03 7.8125000E-03 0.0000000E+00
 21 -1  0  0 501 502  0.0000000E+00  0.0000000E+00  9.3174953E+02  9.3174953E+02  0.0000000E+00  0.0000000E+00  1.0000000E+00
 21 -1  0  0 502 501  0.0000000E+00  0.0000000E+00 -2.2746953E+02  2.2746953E+02  0.0000000E+00  0.0000000E+00  1.0000000E+00
 39  2  1  2   0   0  1.1652901E-12 -2.6147973E-12  7.0427999E+02  1.1592191E+03  9.2074889E+02  0.0000000E+00  1.0000000E+00
 23  2  3  3   0   0  1.0637632E+02 -2.3399553E+02  8.2240480E+02  8.6432892E+02  6.8154261E+01  0.0000000E+00  1.0000000E+00
 23  2  3  3   0   0 -1.0637632E+02  2.3399553E+02 -1.1812481E+02  2.9489014E+02  8.3288009E+01  0.0000000E+00  1.0000000E+00
-11  1  4  4   0   0  8.8424325E+01 -1.2037135E+02  4.1807092E+02  4.4394979E+02  9.3440618E-06  0.0000000E+00  1.0000000E+00
 11  1  4  4   0   0  1.7951998E+01 -1.1362419E+02  4.0433387E+02  4.2037913E+02  7.6293945E-06  0.0000000E+00  1.0000000E+00
-13  1  5  5   0   0 -5.9300052E+01  5.2445525E+01 -1.4071421E+01  8.0405436E+01  1.0446979E-05  0.0000000E+00  1.0000000E+00
 13  1  5  5   0   0 -4.7076271E+01  1.8155001E+02 -1.0405339E+02  2.1448470E+02  5.0067902E-06  0.0000000E+00  1.0000000E+00
</event>
<event>
9 100 1.0000000E+00 1.0000000E+03 7.8125000E-03 0.0000000E+00
 21 -1  0  0 501 502  0.0000000E+00  0.0000000E+00  4.0625229E+02  4.0625229E+02  0.0000000E+00  0.0000000E+00  1.0000000E+00
 21 -1  0  0 502 501  0.0000000E+00  0.0000000E+00 -6.1048725E+02  6.1048725E+02  0.0000000E+00  0.0000000E+00  1.0000000E+00
 39  2  1  2   0   0  1.9895197E-13 -1.9895197E-13 -2.0423496E+02  1.0167395E+03  9.9601575E+02  0.0000000E+00  1.0000000E+00
 23  2  3  3   0   0 -1.3510286E+02  1.3863291E+02  3.5697668E+02  4.1644144E+02  9.2299806E+01  0.0000000E+00  1.0000000E+00
 23  2  3  3   0   0  1.3510286E+02 -1.3863291E+02 -5.6121164E+02  6.0029810E+02  8.9036192E+01  0.0000000E+00  1.0000000E+00
-11  1  4  4   0   0 -1.2332703E+02  6.5930255E+01  2.1460314E+02  2.5614617E+02  2.6973983E-06  0.0000000E+00  1.0000000E+00
 11  1  4  4   0   0 -1.1775829E+01  7.2702659E+01  1.4237354E+02  1.6029526E+02  4.6720309E-06  0.0000000E+00  1.0000000E+00
-13  1  5  5   0   0  2.1466054E+01  9.5916204E+00 -3.7316027E+01  4.4105289E+01  1.7059845E-05  0.0000000E+00  1.0000000E+00
 13  1  5  5   0   0  1.1363681E+02 -1.4822453E+02 -5.2389561E+02  5.5619282E+02  1.4305115E-06  0.0000000E+00  1.0000000E+00
</event>
<event>
9 100 1.0000000E+00 1.0000000E+03 7.8125000E-03 0.0000000E+00
 21 -1  0  0 501 502  0.0000000E+00  0.0000000E+00  4.2577505E+02  4.2577505E+02  0.0000000E+00  0.0000000E+00  1.0000000E+00
 21 -1  0  0 502 501  0.0000000E+00  0.0000000E+00 -5.9090894E+02  5.9090894E+02  0.0000000E+00  0.0000000E+00  1.0000000E+00
 39  2  1  2   0   0 -4.5474735E-13  5.1159077E-13 -1.6513389E+02  1.0166840E+03  1.0031835E+03  0.0000000E+00  1.0000000E+00
 23  2  3  3   0   0 -3.1339699E+02  2.8425068E+02 -3.3926668E+02  5.4996438E+02  9.1339001E+01  0.0000000E+00  1.0000000E+00
 23  2  3  3   0   0  3.1339699E+02 -2.8425068E+02  1.7413279E+02  4.6671961E+02  9.2134873E+01  0.0000000E+00  1.0000000E+00
-11  1  4  4   0   0 -1.2115374E+02  5.3647018E+01 -9.7851305E+01  1.6471524E+02  1.1121658E-05  0.0000000E+00  1.0000000E+00
 11  1  4  4   0   0 -1.9224325E+02  2.3060366E+02 -2.4141538E+02  3.8524914E+02  4.6720309E-06  0.0000000E+00  1.0000000E+00
-13  1  5  5   0   0  1.4845863E+02 -1.8510017E+02  6.7447212E+01  2.4668029E+02  1.3486992E-06  0.0000000E+00  1.0000000E+00
 13  1  5  5   0   0  1.6493837E+02 -9.9150511E+01  1.0668558E+02  2.2003932E+02  4.8628039E-06  0.0000000E+00  1.0000000E+00
</event>
<event>
9 100 1.0000000E+00 1.0000000E+03 7.8125000E-03 0.0000000E+00
 21 -1  0  0 501 502  0.0000000E+00  0.0000000E+00  1.6446179E+02  1.6446179E+02  0.0000000E+00  0.0000000E+00  1.0000000E+00
 21 -1  0  0 502 501  0.0000000E+00  0.0000000E+00 -1.4869053E+03  1.4869053E+03  0.0000000E+00  0.0000000E+00  1.0000000E+00
 39  2  1  2   0   0 -4.1211479E-12  1.8616220E-12 -1.3224435E+03  1.6513671E+03  9.8901792E+02  0.0000000E+00  1.0000000E+00
 23  2  3  3   0   0  1.7900067E+02 -8.1016761E+01  8.0408217E+01  2.3189035E+02  9.3288239E+01  0.0000000E+00  1.0000000E+00
 23  2  3  3   0   0 -1.7900067E+02  8.1016761E+01 -1.4028517E+03  1.4194767E+03  9.1193897E+01  0.0000000E+00  1.0000000E+00
-11  1  4  4   0   0  1.7131837E+02 -7.0667409E+01  9.8348077E+01  2.0980041E+02  3.8591418E-06  0.0000000E+00  1.0000000E+00
 11  1  4  4   0   0  7.6823003E+00 -1.0349352E+01 -1.7939860E+01  2.2089939E+01  1.4209427E-05  0.0000000E+00  1.0000000E+00
-13  1  5  5   0   0 -1.7036081E+02  7.1713639E+01 -1.3865404E+03  1.3988066E+03  2.4546695E-06  0.0000000E+00  1.0000000E+00
 13  1  5  5   0   0 -8.6398591E+00  9.3031212E+00 -1.6311308E+01  2.0670123E+01  4.5776367E-05  0.0000000E+00  1.0000000E+00
</event>
<event>
9 100 1.0000000E+00 1.0000000E+03 7.8125000E-03 0.0000000E+00
 21 -1  0  0 501 502  0.0000000E+00  0.0000000E+00  9.3424054E+02  9.3424054E+02  0.0000000E+00  0.0000000E+00  1.0000000E+00
 21 -1  0  0 502 501  0.0000000E+00  0.0000000E+00 -2.6023095E+02  2.6023095E+02  0.0000000E+00  0.0000000E+00  1.0000000E+00
 39  2  1  2   0   0 -4.6185278E-14 -3.9790393E-13  6.7400959E+02  1.1944715E+03  9.8614056E+02  0.0000000E+00  1.0000000E+00
 23  2  3  3   0   0  2.0177721E+01  1.6280065E+02 -2.1483989E+02  2.8549663E+02  9.1874679E+01  0.0000000E+00  1.0000000E+00
 23  2  3  3   0   0 -2.0177721E+01 -1.6280065E+02  8.8884947E+02  9.0897486E+02  9.6284549E+01  0.0000000E+00  1.0000000E+00
-11  1  4  4   0   0 -7.9139279E+00 -4.7351521E+00  2.5854055E+00  9.5779038E+00  1.2651920E-05  0.0000000E+00  1.0000000E+00
 11  1  4  4   0   0  2.8091648E+01  1.6753580E+02 -2.1742529E+02  2.7591873E+02  2.4642394E-06  0.0000000E+00  1.0000000E+00
-13  1  5  5   0   0 -4.3415985E+01 -1.1829862E+02  7.6545626E+02  7.7575949E+02  5.8788433E-06  0.0000000E+00  1.0000000E+00
 13  1  5  5   0   0  2.3238264E+01 -4.4502026E+01  1.2339322E+02  1.3321536E+02  3.2368780E-05  0.0000000E+00  1.0000000E+00
</event>
<event>
9 100 1.0000000E+00 1.0000000E+03 7.8125000E-03 0.0000000E+00
 21 -1  0  0 501 502  0.0000000E+00  0.0000000E+00  2.9437745E+02  2.9437745E+02  0.0000000E+00  0.0000000E+00  1.0000000E+00
 21 -1  0  0 502 501  0.0000000E+00  0.0000000E+00 -8.3349403E+02  8.3349403E+02  0.0000000E+00  0.0000000E+00  1.0000000E+00
 39  2  1  2   0   0 -4.5474735E-13 -6.8212103E-13 -5.3911658E+02  1.1278715E+03  9.9068026E+02  0.0000000E+00  1.0000000E+00
 23  2  3  3   0   0 -1.8916090E+02 -2.8604949E+02 -6.6186813E+02  7.5041855E+02  8.6327434E+01  0.0000000E+00  1.0000000E+00
 23  2  3  3   0   0  1.8916090E+02  2.8604949E+02  1.2275155E+02  3.7745293E+02  9.8977854E+01  0.0000000E+00  1.0000000E+00
-11  1  4  4   0   0 -6.6039762E+01 -1.0411724E+02 -3.3144372E+02  3.5363341E+02  1.3754087E-05  0.0000000E+00  1.0000000E+00
 11  1  4  4   0   0 -1.2312113E+02 -1.8193225E+02 -3.3042441E+02  3.9678514E+02  1.4774259E-05  0.0000000E+00  1.0000000E+00
-13  1  5  5   0   0  8.5123683E+01  2.0249221E+02  1.0283622E+02  2.4253747E+02  5.1797774E-06  0.0000000E+00  1.0000000E+00
 13  1  5  5   0   0  1.0403721E+02  8.3557286E+01  1.9915325E+01  1.3491546E+02  1.2434392E-05  0.0000000E+00  1.0000000E+00
</event>
<event>
9 100 1.0000000E+00 1.0000000E+03 7.8125000E-03 0.0000000E+00
 21 -1  0  0 501 502  0.0000000E+00  0.0000000E+00  2.3852792E+02  2.3852792E+02  0.0000000E+00  0.0000000E+00  1.0000000E+00
 21 -1  0  0 502 501  0.0000000E+00  0.0000000E+00 -1.0453506E+03  1.0453506E+03  0.0000000E+00  0.0000000E+00  1.0000000E+00
 39  2  1  2   0   0 -1.5347723E-12  6.9633188E-13 -8.0682264E+02  1.2838785E+03  9.9868973E+02  0.0000000E+00  1.0000000E+00
 23  2  3  3   0   0  1.6271833E+02 -7.6921109E+01 -9.9115153E+02  1.0115058E+03  9.1479471E+01  0.0000000E+00  1.0000000E+00
 23  2  3  3   0   0 -1.6271833E+02  7.6921109E+01  1.8432889E+02  2.7237270E+02  8.8406084E+01  0.0000000E+00  1.0000000E+00
-11  1  4  4   0   0  1.3207269E-01  1.5244510E-01  2.0893171E+00  2.0990304E+00  3.2368780E-05  0.0000000E+00  1.0000000E+00
 11  1  4  4   0   0  1.6258625E+02 -7.7073555E+01 -9.9324084E+02  1.0094068E+03  1.4963615E-06  0.0000000E+00  1.0000000E+00
-13  1  5  5   0   0 -1.6321698E+02  4.6289387E+01  1.6072406E+02  2.3369791E+02  1.2157010E-06  0.0000000E+00  1.0000000E+00
 13  1  5  5   0   0  4.9865452E-01  3.0631722E+01  2.3604825E+01  3.8674783E+01  4.6720309E-06  0.0000000E+00  1.0000000E+00
</event>
<event>
9 100 1.0000000E+00 1.0000000E+03 7.8125000E-03 0.0000000E+00
 21 -1  0  0 501 502  0.0000000E+00  0.0000000E+00  6.5295521E+02  6.5295521E+02  0.0000000E+00  0.0000000E+00  1.0000000E+00
 21 -1  0  0 502 501  0.0000000E+00  0.0000000E+00 -3.7545009E+02  3.7545009E+02  0.0000000E+00  0.0000000E+00  1.0000000E+00
 39  2  1  2   0   0 -1.2221335E-12 -2.2737368E-12  2.7750512E+02  1.0284053E+03  9.9025672E+02  0.0000000E+00  1.0000000E+00
 23  2  3  3   0   0 -1.7410291E+02 -3.2801181E+02 -1.8797946E+02  4.2604540E+02  9.0966097E+01  0.0000000E+00  1.0000000E+00
 23  2  3  3   0   0  1.7410291E+02  3.2801181E+02  4.6548458E+02  6.0235990E+02  9.0873468E+01  0.0000000E+00  1.0000000E+00
-11  1  4  4   0   0  7.2887722E+00 -3.1589932E+01 -3.5309057E+00  3.2611613E+01  3.8146973E-06  0.0000000E+00  1.0000000E+00
 11  1  4  4   0   0 -1.8139168E+02 -2.9642188E+02 -1.8444855E+02  3.9343378E+02  1.4835451E-06  0.0000000E+00  1.0000000E+00
-13  1  5  5   0   0  1.5120022E+02  2.8486466E+02  4.4455470E+02  5.4921605E+02  1.1920929E-06  0.0000000E+00  1.0000000E+00
 13  1  5  5   0   0  2.2902687E+01  4.3147150E+01  2.0929876E+01  5.3143855E+01  9.3440618E-06  0.0000000E+00  1.0000000E+00
</event>
<event>
9 100 1.0000000E+00 1.0000000E+03 7.8125000E-03 0.0000000E+00
 21 -1  0  0 501 502  0.0000000E+00  0.0000000E+00  1.3802270E+03  1.3802270E+03  0.0000000E+00  0.0000000E+00  1.0000000E+00
 21 -1  0  0 502 501  0.0000000E+00  0.0000000E+00 -1.8375612E+02  1.8375612E+02  0.0000000E+00  0.0000000E+00  1.0000000E+00
 39  2  1  2   0   0 -1.9184654E-12 -2.8705927E-12  1.1964709E+03  1.5639831E+03  1.0072242E+03  0.0000000E+00  1.0000000E+00
 23  2  3  3   0   0  1.2287529E+02  1.8058427E+02 -4.1474925E+01  3.0408166E+02  2.0745233E+02  0.0000000E+00  1.0000000E+00
 23  2  3  3   0   0 -1.2287529E+02 -1.8058427E+02  1.2379458E+03  1.2599015E+03  8.4456346E+01  0.0000000E+00  1.0000000E+00
-11  1  4  4   0   0  1.1410954E+02  2.2628203E+02 -4.5109496E+01  2.5740904E+02  3.8107371E-06  0.0000000E+00  1.0000000E+00
 11  1  4  4   0   0  8.7657539E+00 -4.5697759E+01  3.6345710E+00  4.6672623E+01  2.3238169E-05  0.0000000E+00  1.0000000E+00
-13  1  5  5   0   0  2.5629004E-01  6.7203287E+00  9.1578148E+01  9.1824756E+01  3.7376247E-05  0.0000000E+00  1.0000000E+00
 13  1  5  5   0   0 -1.2313158E+02 -1.8730460E+02  1.1463677E+03  1.1680767E+03  1.3486992E-06  0.0000000E+00  1.0000000E+00
</event>
<event>
9 100 1.0000000E+00 1.0000000E+03 7.8125000E-03 0.0000000E+00
 21 -1  0  0 501 502  0.0000000E+00  0.0000000E+00  4.7510774E+02  4.7510774E+02  0.0000000E+00  0.0000000E+00  1.0000000E+00
 21 -1  0  0 502 501  0.0000000E+00  0.0000000E+00 -5.2397879E+02  5.2397879E+02  0.0000000E+00  0.0000000E+00  1.0000000E+00
 39  2  1  2   0   0 -4.2632564E-14  1.7053026E-13 -4.8871041E+01  9.9908653E+02  9.9789053E+02  0.0000000E+00  1.0000000E+00
 23  2  3  3   0   0  7.2277171E+01 -4.6940215E+02  9.9585420E+01  4.9435295E+02  9.4367410E+01  0.0000000E+00  1.0000000E+00
 23  2  3  3   0   0 -7.2277171E+01  4.6940215E+02 -1.4845646E+02  5.0473358E+02  8.4583090E+01  0.0000000E+00  1.0000000E+00
-11  1  4  4   0   0 -1.3035845E+01 -1.7231844E+02  5.9021404E+01  1.8261190E+02  9.5367432E-06  0.0000000E+00  1.0000000E+00
 11  1  4  4   0   0  8.5313016E+01 -2.9708371E+02  4.0564016E+01  3.1174105E+02  6.1436170E-06  0.0000000E+00  1.0000000E+00
-13  1  5  5   0   0  1.1539699E+00  2.3550095E+02 -9.4199024E+01  2.5364441E+02  8.5565369E-06  0.0000000E+00  1.0000000E+00
 13  1  5  5   0   0 -7.3431141E+01  2.3390120E+02 -5.4257437E+01  2.5108918E+02  8.4226235E-06  0.0000000E+00  1.0000000E+00
</event>
<event>
9 100 1.0000000E+00 1.0000000E+03 7.8125000E-03 0.0000000E+00
 21 -1  0  0 501 502  0.0000000E+00  0.0000000E+00  4.2948589E+02  4.2948589E+02  0.0000000E+00  0.0000000E+00  1.0000000E+00
 21 -1  0  0 502 501  0.0000000E+00  0.0000000E+00 -5.8364912E+02  5.8364912E+02  0.0000000E+00  0.0000000E+00  1.0000000E+00
 39  2  1  2   0   0  1.5347723E-12 -2.3874236E-12 -1.5416324E+02  1.0131350E+03  1.0013372E+03  0.0000000E+00  1.0000000E+00
 23  2  3  3   0   0  2.5714063E+02 -4.0435207E+02  3.6854251E+01  4.8937221E+02  9.2222708E+01  0.0000000E+00  1.0000000E+00
 23  2  3  3   0   0 -2.5714063E+02  4.0435207E+02 -1.9101749E+02  5.2376280E+02  9.0652611E+01  0.0000000E+00  1.0000000E+00
-11  1  4  4   0   0  1.4621874E+02 -1.5346669E+02 -4.1510362E+00  2.1201221E+02  4.0179013E-06  0.0000000E+00  1.0000000E+00
 11  1  4  4   0   0  1.1092189E+02 -2.5088538E+02  4.1005287E+01  2.7736000E+02  2.9151486E-06  0.0000000E+00  1.0000000E+00
-13  1  5  5   0   0 -1.7532875E+02  2.2163546E+02 -1.4795440E+02  3.1898739E+02  1.0182455E-05  0.0000000E+00  1.0000000E+00
 13  1  5  5   0   0 -8.1811880E+01  1.8271661E+02 -4.3063086E+01  2.0477542E+02  1.2794884E-05  0.0000000E+00  1.0000000E+00
</event>
<event>
9 100 1.0000000E+00 1.0000000E+03 7.8125000E-03 0.0000000E+00
 21 -1  0  0 501 502  0.0000000E+00  0.0000000E+00  2.0795591E+02  2.0795591E+02  0.0000000E+00  0.0000000E+00  1.0000000E+00
 21 -1  0  0 502 501  0.0000000E+00  0.0000000E+00 -1.1981626E+03  1.1981626E+03  0.0000000E+00  0.0000000E+00  1.0000000E+00
 39  2  1  2   0   0  1.1368684E-13 -8.5265128E-14 -9.9020674E+02  1.4061186E+03  9.9832861E+02  0.0000000E+00  1.0000000E+00
 23  2  3  3   0   0 -1.4191883E+02  1.0358228E+02  1.5007057E+02  2.4878156E+02  9.2200027E+01  0.0000000E+00  1.0000000E+00
 23  2  3  3   0   0  1.4191883E+02 -1.0358228E+02 -1.1402773E+03  1.1573370E+03  9.1248807E+01  0.0000000E+00  1.0000000E+00
-11  1  4  4   0   0 -2.5325247E+01  2.0140519E+01 -1.0019829E+01  3.3873376E+01  8.3139399E-06  0.0000000E+00  1.0000000E+00
 11  1  4  4   0   0 -1.1659358E+02  8.3441765E+01  1.6009040E+02  2.1490818E+02  2.8980364E-06  0.0000000E+00  1.0000000E+00
-13  1  5  5   0   0  7.2212014E+01 -1.4377732E+01 -6.5009510E+02  6.5425143E+02  1.7059845E-05  0.0000000E+00  1.0000000E+00
 13  1  5  5   0   0  6.9706818E+01 -8.9204551E+01 -4.9018220E+02  5.0308556E+02  1.5258789E-05  0.0000000E+00  1.0000000E+00
</event>
<event>
9 100 1.0000000E+00 1.0000000E+03 7.8125000E-03 0.0000000E+00
 21 -1  0  0 501 502  0.0000000E+00  0.0000000E+00  3.0385010E+02  3.0385010E+02  0.0000000E+00  0.0000000E+00  1.0000000E+00
 21 -1  0  0 502 501  0.0000000E+00  0.0000000E+00 -7.7805104E+02  7.7805104E+02  0.0000000E+00  0.0000000E+00  1.0000000E+00
 39  2  1  2   0   0 -5.6843419E-14  2.2737368E-13 -4.7420094E+02  1.0819011E+03  9.7244206E+02  0.0000000E+00  1.0000000E+00
 23  2  3  3   0   0 -7.9053110E+01  2.2574100E+02 -6.9686334E+02  7.4273844E+02  9.3986670E+01  0.0000000E+00  1.0000000E+00
 23  2  3  3   0   0  7.9053110E+01 -2.2574100E+02  2.2266240E+02  3.3916270E+02  9.0798699E+01  0.0000000E+00  1.0000000E+00
-11  1  4  4   0   0  8.2335401E+00  4.6438233E+01 -6.6090734E+01  8.1192893E+01  1.7059845E-05  0.0000000E+00  1.0000000E+00
 11  1  4  4   0   0 -8.7286651E+01  1.7930277E+02 -6.3077260E+02  6.6154555E+02  4.9554371E-06  0.0000000E+00  1.0000000E+00
-13  1  5  5   0   0  6.2825720E+01 -7.9779756E+01  1.3211466E+02  1.6663182E+02  7.6293945E-06  0.0000000E+00  1.0000000E+00
 13  1  5  5   0   0  1.6227390E+01 -1.4596124E+02  9.0547737E+01  1.7253088E+02  7.8641999E-06  0.0000000E+00  1.0000000E+00
</event>
<event>
9 100 1.0000000E+00 1.0000000E+03 7.8125000E-03 0.0000000E+00
 21 -1  0  0 501 502  0.0000000E+00  0.0000000E+00  2.4937022E+02  2.4937022E+02  0.0000000E+00  0.0000000E+00  1.0000000E+00
 21 -1  0  0 502 501  0.0000000E+00  0.0000000E+00 -9.7314463E+02  9.7314463E+02  0.0000000E+00  0.0000000E+00  1.0000000E+00
 39  2  1  2   0   0 -4.6895821E-13 -1.1652901E-12 -7.2377441E+02  1.2225148E+03  9.8523762E+02  0.0000000E+00  1.0000000E+00
 23  2  3  3   0   0  6.5537042E+01  1.6324981E+02  1.9803004E+02  2.7968928E+02  8.9803071E+01  0.0000000E+00  1.0000000E+00
 23  2  3  3   0   0 -6.5537042E+01 -1.6324981E+02 -9.2180444E+02  9.4282557E+02  9.0835140E+01  0.0000000E+00  1.0000000E+00
-11  1  4  4   0   0  7.7472691E+01  1.6684666E+02  1.7723982E+02  2.5544819E+02  1.9515402E-06  0.0000000E+00  1.0000000E+00
 11  1  4  4   0   0 -1.1935649E+01 -3.5968475E+00  2.0790220E+01  2.4241087E+01  1.1601949E-05  0.0000000E+00  1.0000000E+00
-13  1  5  5   0   0 -3.6933016E+01 -2.5314966E+01 -1.0792184E+02  1.1684186E+02  2.8546580E-05  0.0000000E+00  1.0000000E+00
 13  1  5  5   0   0 -2.8604026E+01 -1.3793484E+02 -8.1388260E+02  8.2598371E+02  1.3486992E-06  0.0000000E+00  1.0000000E+00
</event>
<event>
9 100 1.0000000E+00 1.0000000E+03 7.8125000E-03 0.0000000E+00
 21 -1  0  0 501 502  0.0000000E+00  0.0000000E+00  2.0090367E+02  2.0090367E+02  0.0000000E+00  0.0000000E+00  1.0000000E+00
 21 -1  0  0 502 501  0.0000000E+00  0.0000000E+00 -1.1959115E+03  1.1959115E+03  0.0000000E+00  0.0000000E+00  1.0000000E+00
 39  2  1  2   0   0 -3.9079850E-14  1.1368684E-13 -9.9500783E+02  1.3968152E+03  9.8033263E+02  0.0000000E+00  1.0000000E+00
 23  2  3  3   0   0  2.7512851E+01 -1.0415886E+02 -1.1666311E+03  1.1749367E+03  8.8555752E+01  0.0000000E+00  1.0000000E+00
 23  2  3  3   0   0 -2.7512851E+01  1.0415886E+02  1.7162330E+02  2.2187844E+02  9.0385063E+01  0.0000000E+00  1.0000000E+00
-11  1  4  4   0   0  3.3893042E+01 -1.7817231E+01 -1.5706404E+02  1.6166417E+02  1.5258789E-05  0.0000000E+00  1.0000000E+00
 11  1  4  4   0   0 -6.3801911E+00 -8.6341628E+01 -1.0095671E+03  1.0132726E+03  3.8146973E-06  0.0000000E+00  1.0000000E+00
-13  1  5  5   0   0 -1.9557310E+01 -1.7583558E-01 -1.4723655E+00  1.9613443E+01  6.8770433E-06  0.0000000E+00  1.0000000E+00
 13  1  5  5   0   0 -7.9555416E+00  1.0433469E+02  1.7309567E+02  2.0226500E+02  1.5574387E-06  0.0000000E+00  1.0000000E+00
</event>
<event>
9 100 1.0000000E+00 1.0000000E+03 7.8125000E-03 0.0000000E+00
 21 -1  0  0 501 502  0.0000000E+00  0.0000000E+00  5.6174994E+02  5.6174994E+02  0.0000000E+00  0.0000000E+00  1.0000000E+00
 21 -1  0  0 502 501  0.0000000E+00  0.0000000E+00 -4.3398239E+02  4.3398239E+02  0.0000000E+00  0.0000000E+00  1.0000000E+00
 39  2  1  2   0   0 -5.6843419E-14  1.1368684E-13  1.2776755E+02  9.9573233E+02  9.8750105E+02  0.0000000E+00  1.0000000E+00
 23  2  3  3   0   0 -6.8124014E+01  1.3361236E+02 -4.0143381E+02  4.3831182E+02  9.2059745E+01  0.0000000E+00  1.0000000E+00
 23  2  3  3   0   0  6.8124014E+01 -1.3361236E+02  5.2920137E+02  5.5742051E+02  9.0390241E+01  0.0000000E+00  1.0000000E+00
-11  1  4  4   0   0 -5.5665506E+01  1.0760393E+02 -3.8804468E+02  4.0651682E+02  2.7598946E-06  0.0000000E+00  1.0000000E+00
 11  1  4  4   0   0 -1.2458508E+01  2.6008424E+01 -1.3389135E+01  3.1794992E+01  1.0789593E-05  0.0000000E+00  1.0000000E+00
-13  1  5  5   0   0 -1.5709267E+01 -4.6087615E+01  9.6814139E+01  1.0836894E+02  1.2063132E-05  0.0000000E+00  1.0000000E+00
 13  1  5  5   0   0  8.3833282E+01 -8.7524743E+01  4.3238723E+02  4.4905157E+02  4.0460975E-06  0.0000000E+00  1.0000000E+00
</event>
<event>
9 100 1.0000000E+00 1.0000000E+03 7.8125000E-03 0.0000000E+00
 21 -1  0  0 501 502  0.0000000E+00  0.0000000E+00  1.8626864E+02  1.8626864E+02  0.0000000E+00  0.0000000E+00  1.0000000E+00
 21 -1  0  0 502 501  0.0000000E+00  0.0000000E+00 -1.2907535E+03  1.2907535E+03  0.0000000E+00  0.0000000E+00  1.0000000E+00
 39  2  1  2   0   0 -1.8474111E-12  4.6895821E-13 -1.1044849E+03  1.4770222E+03  9.8066691E+02  0.0000000E+00  1.0000000E+00
 23  2  3  3   0   0  1.4068198E+02 -3.5394470E+01  1.3956832E+02  2.2118933E+02  9.1658129E+01  0.0000000E+00  1.0000000E+00
 23  2  3  3   0   0 -1.4068198E+02  3.5394470E+01 -1.2440532E+03  1.2558328E+03  9.1670777E+01  0.0000000E+00  1.0000000E+00
-11  1  4  4   0   0  9.0555000E+01  3.7901427E+00  1.2749729E+02  1.5642932E+02  2.0018644E-06  0.0000000E+00  1.0000000E+00
 11  1  4  4   0   0  5.0126983E+01 -3.9184613E+01  1.2071029E+01  6.4760003E+01  3.3036247E-06  0.0000000E+00  1.0000000E+00
-13  1  5  5   0   0 -6.4471114E+01  4.5374077E+01 -8.9251157E+02  8.9598674E+02  1.0092740E-05  0.0000000E+00  1.0000000E+00
 13  1  5  5   0   0 -7.6210869E+01 -9.9796067E+00 -3.5154163E+02  3.5984609E+02  2.4126264E-05  0.0000000E+00  1.0000000E+00
</event>
<event>
9 100 1.0000000E+00 1.0000000E+03 7.8125000E-03 0.0000000E+00
 21 -1  0  0 501 502  0.0000000E+00  0.0000000E+00  7.0765512E+02  7.0765512E+02  0.0000000E+00  0.0000000E+00  1.0000000E+00
 21 -1  0  0 502 501  0.0000000E+00  0.0000000E+00 -3.5284719E+02  3.5284719E+02  0.0000000E+00  0.0000000E+00  1.0000000E+00
 39  2  1  2   0   0  5.6843419E-13 -1.9895197E-13  3.5480793E+02  1.0605023E+03  9.9938805E+02  0.0000000E+00  1.0000000E+00
 23  2  3  3   0   0  3.0334002E+02 -1.2569702E+02 -2.1032655E+02  4.0037311E+02  9.0810035E+01  0.0000000E+00  1.0000000E+00
 23  2  3  3   0   0 -3.0334002E+02  1.2569702E+02  5.6513448E+02  6.6012919E+02  9.2621069E+01  0.0000000E+00  1.0000000E+00
-11  1  4  4   0   0  1.2923955E+02 -5.6829938E+01 -1.4421356E+02  2.0181688E+02  2.8610229E-06  0.0000000E+00  1.0000000E+00
 11  1  4  4   0   0  1.7410047E+02 -6.8867086E+01 -6.6112993E+01  1.9855623E+02  3.3036247E-06  0.0000000E+00  1.0000000E+00
-13  1  5  5   0   0 -4.5924504E+01 -1.7488130E+00  1.3754274E+02  1.4501766E+02  0.0000000E+00  0.0000000E+00  1.0000000E+00
 13  1  5  5   0   0 -2.5741552E+02  1.2744584E+02  4.2759174E+02  5.1511153E+02  2.6973983E-06  0.0000000E+00  1.0000000E+00
</event>
<event>
9 100 1.0000000E+00 1.0000000E+03 7.8125000E-03 0.0000000E+00
 21 -1  0  0 501 502  0.0000000E+00  0.0000000E+00  3.8005895E+02  3.8005895E+02  0.0000000E+00  0.0000000E+00  1.0000000E+00
 21 -1  0  0 502 501  0.0000000E+00  0.0000000E+00 -6.6412423E+02  6.6412423E+02  0.0000000E+00  0.0000000E+00  1.0000000E+00
 39  2  1  2   0   0 -8.2422957E-13  9.3791641E-13 -2.8406528E+02  1.0441832E+03  1.0048012E+03  0.0000000E+00  1.0000000E+00
 23  2  3  3   0   0  1.7146592E+02 -1.8953560E+02  2.9752083E+02  4.0293162E+02  9.2254734E+01  0.0000000E+00  1.0000000E+00
 23  2  3  3   0   0 -1.7146592E+02  1.8953560E+02 -5.8158611E+02  6.4125155E+02  8.7389007E+01  0.0000000E+00  1.0000000E+00
-11  1  4  4   0   0  1.2447691E+02 -1.6745183E+02  1.8436592E+02  2.7843385E+02  7.1366451E-06  0.0000000E+00  1.0000000E+00
 11  1  4  4   0   0  4.6989010E+01 -2.2083777E+01  1.1315491E+02  1.2449777E+02  1.1121658E-05  0.0000000E+00  1.0000000E+00
-13  1  5  5   0   0 -3.8095381E+01  2.2576477E+01 -4.2583907E+01  6.1435694E+01  7.6293945E-06  0.0000000E+00  1.0000000E+00
 13  1  5  5   0   0 -1.3337054E+02  1.6695913E+02 -5.3900221E+02  5.7981586E+02  3.0902580E-06  0.0000000E+00  1.0000000E+00
</event>
<event>
9 100 1.0000000E+00 1.0000000E+03 7.8125000E-03 0.0000000E+00
 21 -1  0  0 501 502  0.0000000E+00  0.0000000E+00  3.6293518E+02  3.6293518E+02  0.0000000E+00  0.0000000E+00  1.0000000E+00
 21 -1  0  0 502 501  0.0000000E+00  0.0000000E+00 -6.8859328E+02  6.8859328E+02  0.0000000E+00  0.0000000E+00  1.0000000E+00
 39  2  1  2   0   0 -8.8817842E-14  1.2505552E-12 -3.2565810E+02  1.0515285E+03  9.9982943E+02  0.0000000E+00  1.0000000E+00
 23  2  3  3   0   0 -1.7344067E+01  2.3607523E+02  2.9128029E+02  3.8617274E+02  9.0845199E+01  0.0000000E+00  1.0000000E+00
 23  2  3  3   0   0  1.7344067E+01 -2.3607523E+02 -6.1693838E+02  6.6535571E+02  7.7800537E+01  0.0000000E+00  1.0000000E+00
-11  1  4  4   0   0 -5.1608475E+01  1.8471143E+02  2.1848285E+02  2.9071722E+02  1.9073486E-06  0.0000000E+00  1.0000000E+00
 11  1  4  4   0   0  3.4264408E+01  5.1363803E+01  7.2797435E+01  9.5455521E+01  3.8146973E-06  0.0000000E+00  1.0000000E+00
-13  1  5  5   0   0 -7.5806404E+00 -2.0127190E+02 -4.5005361E+02  4.9306804E+02  8.0921949E-06  0.0000000E+00  1.0000000E+00
 13  1  5  5   0   0  2.4924707E+01 -3.4803329E+01 -1.6688478E+02  1.7228767E+02  1.0789593E-05  0.0000000E+00  1.0000000E+00
</event>
<event>
9 100 1.0000000E+00 1.0000000E+03 7.8125000E-03 0.0000000E+00
 21 -1  0  0 501 502  0.0000000E+00  0.0000000E+00  4.5931406E+02  4.5931406E+02  0.0000000E+00  0.0000000E+00  1.0000000E+00
 21 -1  0  0 502 501  0.0000000E+00  0.0000000E+00 -5.4488914E+02  5.4488914E+02  0.0000000E+00  0.0000000E+00  1.0000000E+00
 39  2  1  2   0   0  1.4210855E-13  2.2737368E-13 -8.5575080E+01  1.0042032E+03  1.0005503E+03  0.0000000E+00  1.0000000E+00
 23  2  3  3   0   0  1.5480531E+02  3.2005944E+02 -3.8336796E+02  5.3139975E+02  9.4931398E+01  0.0000000E+00  1.0000000E+00
 23  2  3  3   0   0 -1.5480531E+02 -3.2005944E+02  2.9779288E+02  4.7280345E+02  9.1977032E+01  0.0000000E+00  1.0000000E+00
-11  1  4  4   0   0  1.3078688E+02  2.0072685E+02 -2.0419317E+02  3.1478775E+02  5.3947966E-06  0.0000000E+00  1.0000000E+00
 11  1  4  4   0   0  2.4018425E+01  1.1933259E+02 -1.7917480E+02  2.1661200E+02  2.6973983E-06  0.0000000E+00  1.0000000E+00
-13  1  5  5   0   0 -3.6072870E+01 -1.5549217E+02  9.4177245E+01  1.8533327E+02  7.6293945E-06  0.0000000E+00  1.0000000E+00
 13  1  5  5   0   0 -1.1873244E+02 -1.6456727E+02  2.0361564E+02  2.8747018E+02  6.1805160E-06  0.0000000E+00  1.0000000E+00
</event>
<event>
9 100 1.0000000E+00 1.0000000E+03 7.8125000E-03 0.0000000E+00
 21 -1  0  0 501 502  0.0000000E+00  0.0000000E+00  3.3915425E+02  3.3915425E+02  0.0000000E+00  0.0000000E+00  1.0000000E+00
 21 -1  0  0 502 501  0.0000000E+00  0.0000000E+00 -7.1919686E+02  7.1919686E+02  0.0000000E+00  0.0000000E+00  1.0000000E+00
 39  2  1  2   0   0  1.1937118E-12  1.8474111E-13 -3.8004261E+02  1.0583511E+03  9.8776246E+02  0.0000000E+00  1.0000000E+00
 23  2  3  3   0   0 -4.6021185E+02 -6.2411718E+01 -5.4660215E+01  4.7843539E+02  1.0110645E+02  0.0000000E+00  1.0000000E+00
 23  2  3  3   0   0  4.6021185E+02  6.2411718E+01 -3.2538240E+02  5.7991572E+02  1.2140170E+02  0.0000000E+00  1.0000000E+00
-11  1  4  4   0   0 -3.4483044E+02 -7.1763151E+01 -4.4275458E+00  3.5224649E+02  9.5367432E-07  0.0000000E+00  1.0000000E+00
 11  1  4  4   0   0 -1.1538140E+02  9.3514327E+00 -5.0232669E+01  1.2618890E+02  6.3405448E-06  0.0000000E+00  1.0000000E+00
-13  1  5  5   0   0  1.7104857E+02  6.6959211E+01 -7.8847056E+01  1.9989499E+02  1.2063132E-05  0.0000000E+00  1.0000000E+00
 13  1  5  5   0   0  2.8916327E+02 -4.5474929E+00 -2.4653534E+02  3.8002073E+02  7.2000832E-06  0.0000000E+00  1.0000000E+00
</event>
<event>
9 100 1.0000000E+00 1.0000000E+03 7.8125000E-03 0.0000000E+00
 21 -1  0  0 501 502  0.0000000E+00  0.0000000E+00  6.6246449E+02  6.6246449E+02  0.0000000E+00  0.0000000E+00  1.0000000E+00
 21 -1  0  0 502 501  0.0000000E+00  0.0000000E+00 -3.7730063E+02  3.7730063E+02  0.0000000E+00  0.0000000E+00  1.0000000E+00
 39  2  1  2   0   0  1.4210855E-14  2.7000624E-13  2.8516387E+02  1.0397651E+03  9.9989653E+02  0.0000000E+00  1.0000000E+00
 23  2  3  3   0   0 -4.6881567E+00 -7.9007607E+01  6.4743970E+02  6.5809299E+02  8.7430239E+01  0.0000000E+00  1.0000000E+00
 23  2  3  3   0   0  4.6881567E+00  7.9007607E+01 -3.6227583E+02  3.8167213E+02  9.0364014E+01  0.0000000E+00  1.0000000E+00
-11  1  4  4   0   0  2.5924624E+01 -2.1539959E+01  4.2458884E+02  4.2592457E+02  5.3947966E-06  0.0000000E+00  1.0000000E+00
 11  1  4  4   0   0 -3.0612780E+01 -5.7467648E+01  2.2285086E+02  2.3216843E+02  7.6293945E-06  0.0000000E+00  1.0000000E+00
-13  1  5  5   0   0  3.0862723E+01  4.7357540E+01 -3.1040577E+02  3.1551067E+02  3.4385216E-06  0.0000000E+00  1.0000000E+00
 13  1  5  5   0   0 -2.6174566E+01  3.1650067E+01 -5.1870061E+01  6.6161453E+01  9.3440618E-06  0.0000000E+00  1.0000000E+00
</event>
<event>
9 100 1.0000000E+00 1.0000000E+03 7.8125000E-03 0.0000000E+00
 21 -1  0  0 501 502  0.0000000E+00  0.0000000E+00  1.5987007E+02  1.5987007E+02  0.0000000E+00  0.0000000E+00  1.0000000E+00
 21 -1  0  0 502 501  0.0000000E+00  0.0000000E+00 -1.2889975E+03  1.2889975E+03  0.0000000E+00  0.0000000E+00  1.0000000E+00
 39  2  1  2   0   0 -1.1368684E-13 -8.5265128E-14 -1.1291275E+03  1.4488676E+03  9.0790334E+02  0.0000000E+00  1.0000000E+00
 23  2  3  3   0   0 -4.0066560E+02 -1.1669552E+02 -8.0957362E+02  9.1517422E+02  8.9351195E+01  0.0000000E+00  1.0000000E+00
 23  2  3  3   0   0  4.0066560E+02  1.1669552E+02 -3.1955383E+02  5.3369337E+02  9.2537547E+01  0.0000000E+00  1.0000000E+00
-11  1  4  4   0   0 -1.3875971E+01  1.2088895E+01 -2.5425231E+01  3.1386722E+01  2.8546580E-05  0.0000000E+00  1.0000000E+00
 11  1  4  4   0   0 -3.8678963E+02 -1.2878441E+02 -7.8414839E+02  8.8378749E+02  2.8808227E-06  0.0000000E+00  1.0000000E+00
-13  1  5  5   0   0  3.3708943E+02  1.2887541E+02 -2.8780194E+02  4.6159302E+02  5.5403471E-06  0.0000000E+00  1.0000000E+00
 13  1  5  5   0   0  6.3576161E+01 -1.2179892E+01 -3.1751895E+01  7.2100353E+01  2.1913767E-05  0.0000000E+00  1.0000000E+00
</event>
<event>
9 100 1.0000000E+00 1.0000000E+03 7.8125000E-03 0.0000000E+00
 21 -1  0  0 501 502  0.0000000E+00  0.0000000E+00  9.0772209E+02  9.0772209E+02  0.0000000E+00  0.0000000E+00  1.0000000E+00
 21 -1  0  0 502 501  0.0000000E+00  0.0000000E+00 -2.6923591E+02  2.6923591E+02  0.0000000E+00  0.0000000E+00  1.0000000E+00
 39  2  1  2   0   0  6.8212103E-13  7.6738615E-13  6.3848617E+02  1.1769580E+03  9.8871914E+02  0.0000000E+00  1.0000000E+00
 23  2  3  3   0   0 -1.3937952E+02 -1.5040521E+02 -2.0488889E+02  3.0396537E+02  9.1471920E+01  0.0000000E+00  1.0000000E+00
 23  2  3  3   0   0  1.3937952E+02  1.5040521E+02  8.4337506E+02  8.7299263E+02  9.3735043E+01  0.0000000E+00  1.0000000E+00
-11  1  4  4   0   0 -2.1045978E+01 -9.5978598E+00 -7.5818360E+01  7.9268378E+01  3.3036247E-06  0.0000000E+00  1.0000000E+00
 11  1  4  4   0   0 -1.1833354E+02 -1.4080735E+02 -1.2907053E+02  2.2469699E+02  0.0000000E+00  0.0000000E+00  1.0000000E+00
-13  1  5  5   0   0  1.0623580E+02  1.4688875E+02  5.8410159E+02  6.1158566E+02  1.0092740E-05  0.0000000E+00  1.0000000E+00
 13  1  5  5   0   0  3.3143726E+01  3.5164621E+00  2.5927347E+02  2.6140697E+02  2.0185481E-05  0.0000000E+00  1.0000000E+00
</event>
<event>
9 100 1.0000000E+00 1.0000000E+03 7.8125000E-03 0.0000000E+00
 21 -1  0  0 501 502  0.0000000E+00  0.0000000E+00  1.6845507E+03  1.6845507E+03  0.0000000E+00  0.0000000E+00  1.0000000E+00
 21 -1  0  0 502 501  0.0000000E+00  0.0000000E+00 -1.4839383E+02  1.4839383E+02  0.0000000E+00  0.0000000E+00  1.0000000E+00
 39  2  1  2   0   0  9.8054898E-13  5.2295945E-12  1.5361569E+03  1.8329445E+03  9.9995385E+02  0.0000000E+00  1.0000000E+00
 23  2  3  3   0   0 -9.0955907E+01 -4.7982065E+02  6.6291818E+02  8.2843693E+02  9.1358646E+01  0.0000000E+00  1.0000000E+00
 23  2  3  3   0   0  9.0955907E+01  4.7982065E+02  8.7323867E+02  1.0045076E+03  8.9380457E+01  0.0000000E+00  1.0000000E+00
-11  1  4  4   0   0 -1.4253099E+01 -2.6960374E+02  3.1621508E+02  4.1578997E+02  1.7892516E-05  0.0000000E+00  1.0000000E+00
 11  1  4  4   0   0 -7.6702808E+01 -2.1021691E+02  3.4670311E+02  4.1264696E+02  1.6184390E-05  0.0000000E+00  1.0000000E+00
-13  1  5  5   0   0  1.0363315E+02  4.2790133E+02  7.4176150E+02  8.6258304E+02  1.9073486E-06  0.0000000E+00  1.0000000E+00
 13  1  5  5   0   0 -1.2677244E+01  5.1919320E+01  1.3147716E+02  1.4192453E+02  1.0789593E-05  0.0000000E+00  1.0000000E+00
</event>
<event>
9 100 1.0000000E+00 1.0000000E+03 7.8125000E-03 0.0000000E+00
 21 -1  0  0 501 502  0.0000000E+00  0.0000000E+00  5.5301430E+02  5.5301430E+02  0.0000000E+00  0.0000000E+00  1.0000000E+00
 21 -1  0  0 502 501  0.0000000E+00  0.0000000E+00 -4.7318637E+02  4.7318637E+02  0.0000000E+00  0.0000000E+00  1.0000000E+00
 39  2  1  2   0   0  1.0231815E-12  7.3896445E-13  7.9827933E+01  1.0262007E+03  1.0230911E+03  0.0000000E+00  1.0000000E+00
 23  2  3  3   0   0  2.5993174E+02  1.9256266E+02 -3.4729565E+02  4.8280061E+02  8.8528383E+01  0.0000000E+00  1.0000000E+00
 23  2  3  3   0   0 -2.5993174E+02 -1.9256266E+02  4.2712359E+02  5.4340006E+02  9.0576944E+01  0.0000000E+00  1.0000000E+00
-11  1  4  4   0   0  2.2918677E+02  1.9705409E+02 -2.9747646E+02  4.2408624E+02  1.6518124E-06  0.0000000E+00  1.0000000E+00
 11  1  4  4   0   0  3.0744970E+01 -4.4914348E+00 -4.9819190E+01  5.8714375E+01  1.0092740E-05  0.0000000E+00  1.0000000E+00
-13  1  5  5   0   0 -2.1031814E+02 -1.1326963E+02  2.6965563E+02  3.6024698E+02  6.3259598E-06  0.0000000E+00  1.0000000E+00
 13  1  5  5   0   0 -4.9613602E+01 -7.9293030E+01  1.5746796E+02  1.8315308E+02  1.0789593E-05  0.0000000E+00  1.0000000E+00
</event>
<event>
9 100 1.0000000E+00 1.0000000E+03 7.8125000E-03 0.0000000E+00
 21 -1  0  0 501 502  0.0000000E+00  0.0000000E+00  4.5847173E+02  4.5847173E+02  0.0000000E+00  0.0000000E+00  1.0000000E+00
 21 -1  0  0 502 501  0.0000000E+00  0.0000000E+00 -5.4279405E+02  5.4279405E+02  0.0000000E+00  0.0000000E+00  1.0000000E+00
 39  2  1  2   0   0  4.5474735E-13 -3.9790393E-13 -8.4322323E+01  1.0012658E+03  9.9770883E+02  0.0000000E+00  1.0000000E+00
 23  2  3  3   0   0  3.0112015E+02 -3.1963893E+02  1.7714698E+02  4.8205545E+02  9.0299579E+01  0.0000000E+00  1.0000000E+00
 23  2  3  3   0   0 -3.0112015E+02  3.1963893E+02 -2.6146930E+02  5.1921033E+02  9.1492012E+01  0.0000000E+00  1.0000000E+00
-11  1  4  4   0   0  1.6550967E+02 -1.1630095E+02  1.0072673E+02  2.2597618E+02  1.4619550E-05  0.0000000E+00  1.0000000E+00
 11  1  4  4   0   0  1.3561048E+02 -2.0333798E+02  7.6420251E+01  2.5607926E+02  1.1203137E-05  0.0000000E+00  1.0000000E+00
-13  1  5  5   0   0 -9.5532757E+01  1.5071945E+02 -7.1330911E+01  1.9217429E+02  8.5299224E-06  0.0000000E+00  1.0000000E+00
 13  1  5  5   0   0 -2.0558739E+02  1.6891948E+02 -1.9013839E+02  3.2703604E+02  8.6883865E-06  0.0000000E+00  1.0000000E+00
</event>
<event>
9 100 1.0000000E+00 1.0000000E+03 7.8125000E-03 0.0000000E+00
 21 -1  0  0 501 502  0.0000000E+00  0.0000000E+00  2.8692614E+02  2.8692614E+02  0.0000000E+00  0.0000000E+00  1.0000000E+00
 21 -1  0  0 502 501  0.0000000E+00  0.0000000E+00 -8.5173282E+02  8.5173282E+02  0.0000000E+00  0.0000000E+00  1.0000000E+00
 39  2  1  2   0   0  5.6843419E-14 -2.8421709E-14 -5.6480668E+02  1.1386590E+03  9.8870504E+02  0.0000000E+00  1.0000000E+00
 23  2  3  3   0   0  1.8741442E+02 -8.6697482E+01  2.2441250E+02  3.1772867E+02  8.9162335E+01  0.0000000E+00  1.0000000E+00
 23  2  3  3   0   0 -1.8741442E+02  8.6697482E+01 -7.8921918E+02  8.2093029E+02  9.1755206E+01  0.0000000E+00  1.0000000E+00
-11  1  4  4   0   0  1.2035660E+02 -9.6503329E+01  1.3139275E+02  2.0263923E+02  3.0157830E-06  0.0000000E+00  1.0000000E+00
 11  1  4  4   0   0  6.7057821E+01  9.8058461E+00  9.3019749E+01  1.1508944E+02  1.9073486E-06  0.0000000E+00  1.0000000E+00
-13  1  5  5   0   0 -3.4660237E+01  4.9338737E+01 -3.3180332E+02  3.3723743E+02  1.8688124E-05  0.0000000E+00  1.0000000E+00
 13  1  5  5   0   0 -1.5275419E+02  3.7358746E+01 -4.5741586E+02  4.8369286E+02  6.6072495E-06  0.0000000E+00  1.0000000E+00
</event>
<event>
9 100 1.0000000E+00 1.0000000E+03 7.8125000E-03 0.0000000E+00
 21 -1  0  0 501 502  0.0000000E+00  0.0000000E+00  1.3324767E+03  1.3324767E+03  0.0000000E+00  0.0000000E+00  1.0000000E+00
 21 -1  0  0 502 501  0.0000000E+00  0.0000000E+00 -1.8697936E+02  1.8697936E+02  0.0000000E+00  0.0000000E+00  1.0000000E+00
 39  2  1  2   0   0  4.0927262E-12  2.1032065E-12  1.1454974E+03  1.5194561E+03  9.9828983E+02  0.0000000E+00  1.0000000E+00
 23  2  3  3   0   0  3.8089115E+02  1.9350241E+02  9.4013805E+02  1.0365978E+03  9.0301086E+01  0.0000000E+00  1.0000000E+00
 23  2  3  3   0   0 -3.8089115E+02 -1.9350241E+02  2.0535932E+02  4.8285825E+02  9.1969492E+01  0.0000000E+00  1.0000000E+00
-11  1  4  4   0   0  3.7610887E+02  1.9002178E+02  9.4058817E+02  1.0306659E+03  7.0460200E-07  0.0000000E+00  1.0000000E+00
 11  1  4  4   0   0  4.7822814E+00  3.4806296E+00 -4.5011759E-01  5.9319140E+00  1.5258789E-05  0.0000000E+00  1.0000000E+00
-13  1  5  5   0   0 -1.1953476E+02 -8.4836179E+01  1.1314471E+02  1.8516874E+02  1.8194946E-05  0.0000000E+00  1.0000000E+00
 13  1  5  5   0   0 -2.6135638E+02 -1.0866624E+02  9.2214618E+01  2.9768951E+02  1.2434392E-05  0.0000000E+00  1.0000000E+00
</event>
<event>
9 100 1.0000000E+00 1.0000000E+03 7.8125000E-03 0.0000000E+00
 21 -1  0  0 501 502  0.0000000E+00  0.0000000E+00  2.7368754E+02  2.7368754E+02  0.0000000E+00  0.0000000E+00  1.0000000E+00
 21 -1  0  0 502 501  0.0000000E+00  0.0000000E+00 -9.1662879E+02  9.1662879E+02  0.0000000E+00  0.0000000E+00  1.0000000E+00
 39  2  1  2   0   0  2.1316282E-13 -5.6843419E-13 -6.4294125E+02  1.1903163E+03  1.0017383E+03  0.0000000E+00  1.0000000E+00
 23  2  3  3   0   0 -1.1160527E+02  3.3982957E+02  8.0504465E+01  3.7795859E+02  9.1825139E+01  0.0000000E+00  1.0000000E+00
 23  2  3  3   0   0  1.1160527E+02 -3.3982957E+02 -7.2344571E+02  8.1235774E+02  9.2798323E+01  0.0000000E+00  1.0000000E+00
-11  1  4  4   0   0 -5.0755417E+01  9.3778033E+01 -1.3795459E+01  1.0752091E+02  9.2462155E-06  0.0000000E+00  1.0000000E+00
 11  1  4  4   0   0 -6.0849848E+01  2.4605154E+02  9.4299924E+01  2.7043768E+02  4.4763049E-06  0.0000000E+00  1.0000000E+00
-13  1  5  5   0   0  1.0994695E+02 -2.5977208E+02 -6.2311806E+02  6.8399267E+02  7.2629672E-06  0.0000000E+00  1.0000000E+00
 13  1  5  5   0   0  1.6583154E+00 -8.0057496E+01 -1.0032766E+02  1.2836507E+02  2.6428998E-05  0.0000000E+00  1.0000000E+00
</event>
<event>
9 100 1.0000000E+00 1.0000000E+03 7.8125000E-03 0.0000000E+00
 21 -1  0  0 501 502  0.0000000E+00  0.0000000E+00  1.5748429E+02  1.5748429E+02  0.0000000E+00  0.0000000E+00  1.0000000E+00
 21 -1  0  0 502 501  0.0000000E+00  0.0000000E+00 -1.5819596E+03  1.5819596E+03  0.0000000E+00  0.0000000E+00  1.0000000E+00
 39  2  1  2   0   0  9.6633812E-13  1.2079227E-13 -1.4244753E+03  1.7394439E+03  9.9826608E+02  0.0000000E+00  1.0000000E+00
 23  2  3  3   0   0 -4.0870874E+02 -6.3754385E+01 -2.4952439E+02  4.9138028E+02  8.9914949E+01  0.0000000E+00  1.0000000E+00
 23  2  3  3   0   0  4.0870874E+02  6.3754385E+01 -1.1749509E+03  1.2480636E+03  7.7753920E+01  0.0000000E+00  1.0000000E+00
-11  1  4  4   0   0 -3.0165580E+01 -1.7763900E+01 -4.9919168E+01  6.0970826E+01  2.0542773E-05  0.0000000E+00  1.0000000E+00
 11  1  4  4   0   0 -3.7854316E+02 -4.5990486E+01 -1.9960522E+02  4.3040945E+02  3.0902580E-06  0.0000000E+00  1.0000000E+00
-13  1  5  5   0   0  2.5008363E+01  1.2314308E+01 -3.8860400E+01  4.7824586E+01  3.4119690E-05  0.0000000E+00  1.0000000E+00
 13  1  5  5   0   0  3.8370038E+02  5.1440078E+01 -1.1360905E+03  1.2002390E+03  2.8210067E-06  0.0000000E+00  1.0000000E+00
</event>
<event>
9 100 1.0000000E+00 1.0000000E+03 7.8125000E-03 0.0000000E+00
 21 -1  0  0 501 502  0.0000000E+00  0.0000000E+00  1.3140233E+03  1.3140233E+03  0.0000000E+00  0.0000000E+00  1.0000000E+00
 21 -1  0  0 502 501  0.0000000E+00  0.0000000E+00 -1.9492810E+02  1.9492810E+02  0.0000000E+00  0.0000000E+00  1.0000000E+00
 39  2  1  2   0   0 -5.9117156E-12  1.1084467E-12  1.1190952E+03  1.5089514E+03  1.0122056E+03  0.0000000E+00  1.0000000E+00
 23  2  3  3   0   0  3.0384236E+02 -5.7687519E+01 -2.3539932E+01  3.2168199E+02  8.5306159E+01  0.0000000E+00  1.0000000E+00
 23  2  3  3   0   0 -3.0384236E+02  5.7687519E+01  1.1426351E+03  1.1872694E+03  9.1354262E+01  0.0000000E+00  1.0000000E+00
-11  1  4  4   0   0  7.2252818E+01  2.2276732E+00 -3.8686923E+01  8.1988476E+01  1.2140634E-05  0.0000000E+00  1.0000000E+00
 11  1  4  4   0   0  2.3158955E+02 -5.9915192E+01  1.5146991E+01  2.3969351E+02  4.5487366E-06  0.0000000E+00  1.0000000E+00
-13  1  5  5   0   0 -2.7095113E+02  5.3696195E+01  1.0946123E+03  1.1289260E+03  2.4314020E-06  0.0000000E+00  1.0000000E+00
 13  1  5  5   0   0 -3.2891229E+01  3.9913241E+00  4.8022820E+01  5.8343422E+01  3.7376247E-05  0.0000000E+00  1.0000000E+00
</event>
<event>
9 100 1.0000000E+00 1.0000000E+03 7.8125000E-03 0.0000000E+00
 21 -1  0  0 501 502  0.0000000E+00  0.0000000E+00  5.2086518E+02  5.2086518E+02  0.0000000E+00  0.0000000E+00  1.0000000E+00
 21 -1  0  0 502 501  0.0000000E+00  0.0000000E+00 -4.7555296E+02  4.7555296E+02  0.0000000E+00  0.0000000E+00  1.0000000E+00
 39  2  1  2   0   0  2.8421709E-13 -1.1368684E-13  4.5312220E+01  9.9641813E+02  9.9538731E+02  0.0000000E+00  1.0000000E+00
 23  2  3  3   0   0  3.2356493E+02 -1.3202719E+02 -3.1852478E+02  4.8208091E+02  9.3907020E+01  0.0000000E+00  1.0000000E+00
 23  2  3  3   0   0 -3.2356493E+02  1.3202719E+02  3.6383700E+02  5.1433722E+02  1.0019965E+02  0.0000000E+00  1.0000000E+00
-11  1  4  4   0   0  1.4606685E+02 -2.9759248E+01 -1.8487320E+02  2.3748524E+02  9.5367432E-06  0.0000000E+00  1.0000000E+00
 11  1  4  4   0   0  1.7749807E+02 -1.0226794E+02 -1.3365158E+02  2.4459568E+02  9.3440618E-06  0.0000000E+00  1.0000000E+00
-13  1  5  5   0   0 -3.5477467E+01  1.2813270E+01  3.5632456E+00  3.7888353E+01  1.5258789E-05  0.0000000E+00  1.0000000E+00
 13  1  5  5   0   0 -2.8808746E+02  1.1921392E+02  3.6027375E+02  4.7644887E+02  2.8891350E-06  0.0000000E+00  1.0000000E+00
</event>
<event>
9 100 1.0000000E+00 1.0000000E+03 7.8125000E-03 0.0000000E+00
 21 -1  0  0 501 502  0.0000000E+00  0.0000000E+00  8.9242751E+02  8.9242751E+02  0.0000000E+00  0.0000000E+00  1.0000000E+00
 21 -1  0  0 502 501  0.0000000E+00  0.0000000E+00 -2.7843845E+02  2.7843845E+02  0.0000000E+00  0.0000000E+00  1.0000000E+00
 39  2  1  2   0   0  5.2580162E-13 -2.5011104E-12  6.1398906E+02  1.1708660E+03  9.9696767E+02  0.0000000E+00  1.0000000E+00
 23  2  3  3   0   0 -9.4568743E+01  4.5787819E+02  1.3356161E+02  4.9429491E+02  8.8842973E+01  0.0000000E+00  1.0000000E+00
 23  2  3  3   0   0  9.4568743E+01 -4.5787819E+02  4.8042745E+02  6.7657105E+02  9.1335464E+01  0.0000000E+00  1.0000000E+00
-11  1  4  4   0   0  3.5440898E+00  1.8395406E+02  6.7050655E+01  1.9582504E+02  1.4113091E-05  0.0000000E+00  1.0000000E+00
 11  1  4  4   0   0 -9.8112833E+01  2.7392413E+02  6.6510952E+01  2.9846987E+02  8.6358882E-06  0.0000000E+00  1.0000000E+00
-13  1  5  5   0   0  9.4275898E+01 -2.4866362E+02  2.9286146E+02  3.9558739E+02  1.2361032E-05  0.0000000E+00  1.0000000E+00
 13  1  5  5   0   0  2.9284483E-01 -2.0921456E+02  1.8756599E+02  2.8098366E+02  1.6627880E-05  0.0000000E+00  1.0000000E+00
</event>
<event>
9 100 1.0000000E+00 1.0000000E+03 7.8125000E-03 0.0000000E+00
 21 -1  0  0 501 502  0.0000000E+00  0.0000000E+00  6.3457389E+02  6.3457389E+02  0.0000000E+00  0.0000000E+00  1.0000000E+00
 21 -1  0  0 502 501  0.0000000E+00  0.0000000E+00 -4.5735683E+02  4.5735683E+02  0.0000000E+00  0.0000000E+00  1.0000000E+00
 39  2  1  2   0   0  3.4106051E-13 -6.8212103E-13  1.7721706E+02  1.0919307E+03  1.0774539E+03  0.0000000E+00  1.0000000E+00
 23  2  3  3   0   0 -2.4667389E+02  4.6791849E+02  4.1015859E+01  5.3823317E+02  9.0647263E+01  0.0000000E+00  1.0000000E+00
 23  2  3  3   0   0  2.4667389E+02 -4.6791849E+02  1.3620120E+02  5.5369756E+02  9.0744124E+01  0.0000000E+00  1.0000000E+00
-11  1  4  4   0   0 -1.7090098E+02  2.4974752E+02 -5.3475199E+00  3.0267072E+02  7.8061607E-06  0.0000000E+00  1.0000000E+00
 11  1  4  4   0   0 -7.5772907E+01  2.1817097E+02  4.6363379E+01  2.3556245E+02  1.0112785E-05  0.0000000E+00  1.0000000E+00
-13  1  5  5   0   0  2.3368711E+00 -7.1001897E+00 -9.5505535E+00  1.2127932E+01  2.2648510E-05  0.0000000E+00  1.0000000E+00
 13  1  5  5   0   0  2.4433702E+02 -4.6081830E+02  1.4575175E+02  5.4156962E+02  2.0784850E-06  0.0000000E+00  1.0000000E+00
</event>
<event>
9 100 1.0000000E+00 1.0000000E+03 7.8125000E-03 0.0000000E+00
 21 -1  0  0 501 502  0.0000000E+00  0.0000000E+00  2.4833002E+03  2.4833002E+03  0.0000000E+00  0.0000000E+00  1.0000000E+00
 21 -1  0  0 502 501  0.0000000E+00  0.0000000E+00 -1.4801041E+02  1.4801041E+02  0.0000000E+00  0.0000000E+00  1.0000000E+00
 39  2  1  2   0   0 -3.3537617E-12 -5.7980287E-12  2.3352898E+03  2.6313107E+03  1.2125251E+03  0.0000000E+00  1.0000000E+00
 23  2  3  3   0   0  2.5998959E+02  4.4610671E+02  5.0651265E+02  7.2872430E+02  8.8759532E+01  0.0000000E+00  1.0000000E+00
 23  2  3  3   0   0 -2.5998959E+02 -4.4610671E+02  1.8287772E+03  1.9025864E+03  9.3824726E+01  0.0000000E+00  1.0000000E+00
-11  1  4  4   0   0  2.4350018E+02  3.5281141E+02  4.2665778E+02  6.0481823E+02  3.1629799E-06  0.0000000E+00  1.0000000E+00
 11  1  4  4   0   0  1.6489409E+01  9.3295302E+01  7.9854871E+01  1.2390607E+02  1.3214499E-05  0.0000000E+00  1.0000000E+00
-13  1  5  5   0   0 -2.3328310E+02 -4.2538116E+02  1.7642553E+03  1.8297450E+03  4.0460975E-06  0.0000000E+00  1.0000000E+00
 13  1  5  5   0   0 -2.6706488E+01 -2.0725548E+01  6.4521910E+01  7.2841346E+01  4.8252528E-05  0.0000000E+00  1.0000000E+00
</event>
<event>
9 100 1.0000000E+00 1.0000000E+03 7.8125000E-03 0.0000000E+00
 21 -1  0  0 501 502  0.0000000E+00  0.0000000E+00  3.1817083E+02  3.1817083E+02  0.0000000E+00  0.0000000E+00  1.0000000E+00
 21 -1  0  0 502 501  0.0000000E+00  0.0000000E+00 -7.9390792E+02  7.9390792E+02  0.0000000E+00  0.0000000E+00  1.0000000E+00
 39  2  1  2   0   0  0.0000000E+00 -1.1368684E-13 -4.7573709E+02  1.1120787E+03  1.0051833E+03  0.0000000E+00  1.0000000E+00
 23  2  3  3   0   0 -2.5204906E+02  2.9971077E+02 -5.7079549E+02  6.9893619E+02  9.6690375E+01  0.0000000E+00  1.0000000E+00
 23  2  3  3   0   0  2.5204906E+02 -2.9971077E+02  9.5058404E+01  4.1314256E+02  9.1079088E+01  0.0000000E+00  1.0000000E+00
-11  1  4  4   0   0 -1.8912490E+02  2.0019961E+02 -3.2216330E+02  4.2383642E+02  7.1366451E-06  0.0000000E+00  1.0000000E+00
 11  1  4  4   0   0 -6.2924161E+01  9.9511154E+01 -2.4863219E+02  2.7509977E+02  5.3947966E-06  0.0000000E+00  1.0000000E+00
-13  1  5  5   0   0  1.0587574E+02 -1.3497339E+02 -4.1407639E+00  1.7159439E+02  3.0157830E-06  0.0000000E+00  1.0000000E+00
 13  1  5  5   0   0  1.4617332E+02 -1.6473737E+02  9.9199168E+01  2.4154817E+02  4.3970294E-06  0.0000000E+00  1.0000000E+00
</event>
<event>
9 100 1.0000000E+00 1.0000000E+03 7.8125000E-03 0.0000000E+00
 21 -1  0  0 501 502  0.0000000E+00  0.0000000E+00  5.9957876E+02  5.9957876E+02  0.0000000E+00  0.0000000E+00  1.0000000E+00
 21 -1  0  0 502 501  0.0000000E+00  0.0000000E+00 -4.2401834E+02  4.2401834E+02  0.0000000E+00  0.0000000E+00  1.0000000E+00
 39  2  1  2   0   0  5.6843419E-14  1.1368684E-13  1.7556042E+02  1.0235971E+03  1.0084293E+03  0.0000000E+00  1.0000000E+00
 23  2  3  3   0   0  3.3897996E+02  3.5998242E+02  5.7712024E+01  5.0610252E+02  9.1182897E+01  0.0000000E+00  1.0000000E+00
 23  2  3  3   0   0 -3.3897996E+02 -3.5998242E+02  1.1784840E+02  5.1749459E+02  9.7044558E+01  0.0000000E+00  1.0000000E+00
-11  1  4  4   0   0  1.9205129E+02  1.4267516E+02  4.5242592E+01  2.4348879E+02  8.2470086E-06  0.0000000E+00  1.0000000E+00
 11  1  4  4   0   0  1.4692867E+02  2.1730727E+02  1.2469431E+01  2.6261373E+02  7.5695552E-06  0.0000000E+00  1.0000000E+00
-13  1  5  5   0   0 -2.1268540E+02 -1.6233638E+02  4.1049375E+01  2.7069029E+02  6.0315660E-06  0.0000000E+00  1.0000000E+00
 13  1  5  5   0   0 -1.2629456E+02 -1.9764604E+02  7.6799023E+01  2.4680430E+02  7.7623466E-06  0.0000000E+00  1.0000000E+00
</event>
<event>
9 100 1.0000000E+00 1.0000000E+03 7.8125000E-03 0.0000000E+00
 21 -1  0  0 501 502  0.0000000E+00  0.0000000E+00  2.2578119E+02  2.2578119E+02  0.0000000E+00  0.0000000E+00  1.0000000E+00
 21 -1  0  0 502 501  0.0000000E+00  0.0000000E+00 -1.0728110E+03  1.0728110E+03  0.0000000E+00  0.0000000E+00  1.0000000E+00
 39  2  1  2   0   0  2.1032065E-12  9.6633812E-13 -8.4702982E+02  1.2985922E+03  9.8431812E+02  0.0000000E+00  1.0000000E+00
 23  2  3  3   0   0  4.3495112E+02  1.9913250E+02 -5.3105959E+02  7.1817551E+02  7.0110946E+01  0.0000000E+00  1.0000000E+00
 23  2  3  3   0   0 -4.3495112E+02 -1.9913250E+02 -3.1597023E+02  5.8041668E+02  9.0609662E+01  0.0000000E+00  1.0000000E+00
-11  1  4  4   0   0  3.3126282E+02  1.5498596E+02 -4.4718465E+02  5.7769353E+02  4.8628039E-06  0.0000000E+00  1.0000000E+00
 11  1  4  4   0   0  1.0368830E+02  4.4146547E+01 -8.3874936E+01  1.4048198E+02  5.3947966E-06  0.0000000E+00  1.0000000E+00
-13  1  5  5   0   0 -4.2624171E+01 -4.0353454E+01 -6.8226220E+01  9.0000213E+01  0.0000000E+00  0.0000000E+00  1.0000000E+00
 13  1  5  5   0   0 -3.9232695E+02 -1.5877905E+02 -2.4774401E+02  4.9041647E+02  4.0460975E-06  0.0000000E+00  1.0000000E+00
</event>
<event>
9 100 1.0000000E+00 1.0000000E+03 7.8125000E-03 0.0000000E+00
 21 -1  0  0 501 502  0.0000000E+00  0.0000000E+00  1.7753532E+02  1.7753532E+02  0.0000000E+00  0.0000000E+00  1.0000000E+00
 21 -1  0  0 502 501  0.0000000E+00  0.0000000E+00 -1.3774522E+03  1.3774522E+03  0.0000000E+00  0.0000000E+00  1.0000000E+00
 39  2  1  2   0   0  4.7180038E-12 -9.3791641E-13 -1.1999169E+03  1.5549875E+03  9.8903269E+02  0.0000000E+00  1.0000000E+00
 23  2  3  3   0   0  4.7132265E+02 -9.3271923E+01 -7.1530091E+02  8.6646981E+02  9.0938677E+01  0.0000000E+00  1.0000000E+00
 23  2  3  3   0   0 -4.7132265E+02  9.3271923E+01 -4.8461596E+02  6.8851771E+02  9.1429265E+01  0.0000000E+00  1.0000000E+00
-11  1  4  4   0   0  8.7310416E+01  5.5548570E+00 -1.8172369E+02  2.0168655E+02  2.1579186E-05  0.0000000E+00  1.0000000E+00
 11  1  4  4   0   0  3.8401223E+02 -9.8826780E+01 -5.3357722E+02  6.6478325E+02  3.8146973E-06  0.0000000E+00  1.0000000E+00
-13  1  5  5   0   0 -4.2434315E+02  7.5593817E+01 -4.6653132E+02  6.3516376E+02  3.3463642E-06  0.0000000E+00  1.0000000E+00
 13  1  5  5   0   0 -4.6979501E+01  1.7678105E+01 -1.8084638E+01  5.3353941E+01  2.0185481E-05  0.0000000E+00  1.0000000E+00
</event>
<event>
9 100 1.0000000E+00 1.0000000E+03 7.8125000E-03 0.0000000E+00
 21 -1  0  0 501 502  0.0000000E+00  0.0000000E+00  9.9737968E+02  9.9737968E+02  0.0000000E+00  0.0000000E+00  1.0000000E+00
 21 -1  0  0 502 501  0.0000000E+00  0.0000000E+00 -2.4863036E+02  2.4863036E+02  0.0000000E+00  0.0000000E+00  1.0000000E+00
 39  2  1  2   0   0  9.0949470E-13 -7.9580786E-13  7.4874932E+02  1.2460100E+03  9.9594954E+02  0.0000000E+00  1.0000000E+00
 23  2  3  3   0   0 -3.8227690E+02  3.0051579E+02  4.4773481E+02  6.6712390E+02  9.0235597E+01  0.0000000E+00  1.0000000E+00
 23  2  3  3   0   0  3.8227690E+02 -3.0051579E+02  3.0101451E+02  5.7888614E+02  8.9744435E+01  0.0000000E+00  1.0000000E+00
-11  1  4  4   0   0 -2.3134885E+02  1.4464934E+02  2.0311475E+02  3.4014897E+02  1.3486992E-05  0.0000000E+00  1.0000000E+00
 11  1  4  4   0   0 -1.5092805E+02  1.5586646E+02  2.4462006E+02  3.2697493E+02  1.2936268E-05  0.0000000E+00  1.0000000E+00
-13  1  5  5   0   0  7.5746055E+01 -5.1200632E+01  1.8825658E+01  9.3345460E+01  1.9073486E-05  0.0000000E+00  1.0000000E+00
 13  1  5  5   0   0  3.0653084E+02 -2.4931516E+02  2.8218885E+02  4.8554068E+02  5.6921656E-06  0.0000000E+00  1.0000000E+00
</event>
<event>
9 100 1.0000000E+00 1.0000000E+03 7.8125000E-03 0.0000000E+00
 21 -1  0  0 501 502  0.0000000E+00  0.0000000E+00  2.2684484E+02  2.2684484E+02  0.0000000E+00  0.0000000E+00  1.0000000E+00
 21 -1  0  0 502 501  0.0000000E+00  0.0000000E+00 -1.0880417E+03  1.0880417E+03  0.0000000E+00  0.0000000E+00  1.0000000E+00
 39  2  1  2   0   0  1.1652901E-12 -1.4921397E-13 -8.6119689E+02  1.3148866E+03  9.9361290E+02  0.0000000E+00  1.0000000E+00
 23  2  3  3   0   0 -2.3016848E+02  3.0241229E+01  1.3768543E+02  2.8526122E+02  9.2328895E+01  0.0000000E+00  1.0000000E+00
 23  2  3  3   0   0  2.3016848E+02 -3.0241229E+01 -9.9888232E+02  1.0296253E+03  9.2034688E+01  0.0000000E+00  1.0000000E+00
-11  1  4  4   0   0  1.3649677E+00 -3.8682141E-01  2.6600958E+01  2.6638763E+01  1.1039578E-05  0.0000000E+00  1.0000000E+00
 11  1  4  4   0   0 -2.3153345E+02  3.0628051E+01  1.1108447E+02  2.5862246E+02  2.9004872E-06  0.0000000E+00  1.0000000E+00
-13  1  5  5   0   0  1.5350080E+02 -1.6543328E+01 -8.2174917E+02  8.3612671E+02  5.7220459E-06  0.0000000E+00  1.0000000E+00
 13  1  5  5   0   0  7.6667680E+01 -1.3697901E+01 -1.7713315E+02  1.9349863E+02  1.5258789E-05  0.0000000E+00  1.0000000E+00
</event>
<event>
9 100 1.0000000E+00 1.0000000E+03 7.8125000E-03 0.0000000E+00
 21 -1  0  0 501 502  0.0000000E+00  0.0000000E+00  1.2514145E+03  1.2514145E+03  0.0000000E+00  0.0000000E+00  1.0000000E+00
 21 -1  0  0 502 501  0.0000000E+00  0.0000000E+00 -2.0317736E+02  2.0317736E+02  0.0000000E+00  0.0000000E+00  1.0000000E+00
 39  2  1  2   0   0 -2.9842795E-13  1.9895197E-12  1.0482371E+03  1.4545918E+03  1.0084822E+03  0.0000000E+00  1.0000000E+00
 23  2  3  3   0   0  7.7483194E+01 -4.8661316E+02  4.4185987E+02  6.6818193E+02  9.1820113E+01  0.0000000E+00  1.0000000E+00
 23  2  3  3   0   0 -7.7483194E+01  4.8661316E+02  6.0637726E+02  7.8640991E+02  8.9169263E+01  0.0000000E+00  1.0000000E+00
-11  1  4  4   0   0  9.4339663E+01 -4.5702641E+02  4.1904585E+02  6.2719418E+02  1.7520116E-06  0.0000000E+00  1.0000000E+00
 11  1  4  4   0   0 -1.6856468E+01 -2.9586754E+01  2.2814016E+01  4.0987753E+01  1.7059845E-05  0.0000000E+00  1.0000000E+00
-13  1  5  5   0   0 -2.7961274E+01  3.9840101E+02  4.7467820E+02  6.2034232E+02  1.9073486E-06  0.0000000E+00  1.0000000E+00
 13  1  5  5   0   0 -4.9521920E+01  8.8212153E+01  1.3169906E+02  1.6606760E+02  1.6184390E-05  0.0000000E+00  1.0000000E+00
</event>
<event>
9 100 1.0000000E+00 1.0000000E+03 7.8125000E-03 0.0000000E+00
 21 -1  0  0 501 502  0.0000000E+00  0.0000000E+00  1.7071053E+03  1.7071053E+03  0.0000000E+00  0.0000000E+00  1.0000000E+00
 21 -1  0  0 502 501  0.0000000E+00  0.0000000E+00 -1.5212659E+02  1.5212659E+02  0.0000000E+00  0.0000000E+00  1.0000000E+00
 39  2  1  2   0   0  8.1712415E-14  5.5422333E-12  1.5549788E+03  1.8592319E+03  1.0192078E+03  0.0000000E+00  1.0000000E+00
 23  2  3  3   0   0  2.0040884E+00  1.3575881E+02  1.6519761E+03  1.6602560E+03  9.4819343E+01  0.0000000E+00  1.0000000E+00
 23  2  3  3   0   0 -2.0040884E+00 -1.3575881E+02 -9.6997305E+01  1.9897590E+02  1.0839031E+02  0.0000000E+00  1.0000000E+00
-11  1  4  4   0   0  1.1604248E+01 -8.7323799E+00  6.1071975E+01  6.2774988E+01  3.7376247E-05  0.0000000E+00  1.0000000E+00
 11  1  4  4   0   0 -9.6001599E+00  1.4449119E+02  1.5909041E+03  1.5974810E+03  1.7841613E-06  0.0000000E+00  1.0000000E+00
-13  1  5  5   0   0  4.0465667E+00  1.8367632E+01 -5.3342558E+00  1.9549908E+01  2.1663316E-05  0.0000000E+00  1.0000000E+00
 13  1  5  5   0   0 -6.0506550E+00 -1.5412645E+02 -9.1663049E+01  1.7942599E+02  6.2740790E-06  0.0000000E+00  1.0000000E+00
</event>
<event>
9 100 1.0000000E+00 1.0000000E+03 7.8125000E-03 0.0000000E+00
 21 -1  0  0 501 502  0.0000000E+00  0.0000000E+00  4.4455185E+02  4.4455185E+02  0.0000000E+00  0.0000000E+00  1.0000000E+00
 21 -1  0  0 502 501  0.0000000E+00  0.0000000E+00 -5.4931098E+02  5.4931098E+02  0.0000000E+00  0.0000000E+00  1.0000000E+00
 39  2  1  2   0   0  1.0231815E-12 -7.3896445E-13 -1.0475913E+02  9.9386284E+02  9.8832629E+02  0.0000000E+00  1.0000000E+00
 23  2  3  3   0   0 -2.5020735E+02  1.8248806E+02 -4.2891229E+02  5.3672754E+02  9.0581932E+01  0.0000000E+00  1.0000000E+00
 23  2  3  3   0   0  2.5020735E+02 -1.8248806E+02  3.2415316E+02  4.5713530E+02  8.9396853E+01  0.0000000E+00  1.0000000E+00
-11  1  4  4   0   0 -1.4399176E+02  1.2802812E+02 -1.9508062E+02  2.7419205E+02  8.9462581E-06  0.0000000E+00  1.0000000E+00
 11  1  4  4   0   0 -1.0621558E+02  5.4459937E+01 -2.3383167E+02  2.6253549E+02  1.1121658E-05  0.0000000E+00  1.0000000E+00
-13  1  5  5   0   0  1.8935154E+02 -1.3701688E+02  1.8302504E+02  2.9685990E+02  7.3871295E-06  0.0000000E+00  1.0000000E+00
 13  1  5  5   0   0  6.0855802E+01 -4.5471180E+01  1.4112812E+02  1.6027540E+02  1.0092740E-05  0.0000000E+00  1.0000000E+00
</event>
<event>
9 100 1.0000000E+00 1.0000000E+03 7.8125000E-03 0.0000000E+00
 21 -1  0  0 501 502  0.0000000E+00  0.0000000E+00  1.3202052E+03  1.3202052E+03  0.0000000E+00  0.0000000E+00  1.0000000E+00
 21 -1  0  0 502 501  0.0000000E+00  0.0000000E+00 -1.8847999E+02  1.8847999E+02  0.0000000E+00  0.0000000E+00  1.0000000E+00
 39  2  1  2   0   0 -6.0254024E-12 -2.6432190E-12  1.1317252E+03  1.5086852E+03  9.9766182E+02  0.0000000E+00  1.0000000E+00
 23  2  3  3   0   0 -4.1801165E+02 -1.8398949E+02  8.3567531E+02  9.5693997E+02  9.3781787E+01  0.0000000E+00  1.0000000E+00
 23  2  3  3   0   0  4.1801165E+02  1.8398949E+02  2.9604994E+02  5.5174526E+02  9.0506335E+01  0.0000000E+00  1.0000000E+00
-11  1  4  4   0   0 -3.1007694E+02 -9.8923740E+01  6.3746938E+02  7.1575193E+02  1.1444092E-05  0.0000000E+00  1.0000000E+00
 11  1  4  4   0   0 -1.0793471E+02 -8.5065747E+01  1.9820593E+02  2.4118804E+02  3.4962278E-05  0.0000000E+00  1.0000000E+00
-13  1  5  5   0   0  2.1707038E+02  1.2854379E+02  2.0142108E+02  3.2282117E+02  9.7256079E-06  0.0000000E+00  1.0000000E+00
 13  1  5  5   0   0  2.0094127E+02  5.5445697E+01  9.4628855E+01  2.2892409E+02  1.3486992E-05  0.0000000E+00  1.0000000E+00
</event>
<event>
9 100 1.0000000E+00 1.0000000E+03 7.8125000E-03 0.0000000E+00
 21 -1  0  0 501 502  0.0000000E+00  0.0000000E+00  7.4261774E+02  7.4261774E+02  0.0000000E+00  0.0000000E+00  1.0000000E+00
 21 -1  0  0 502 501  0.0000000E+00  0.0000000E+00 -3.3666765E+02  3.3666765E+02  0.0000000E+00  0.0000000E+00  1.0000000E+00
 39  2  1  2   0   0  1.0800250E-12 -1.5347723E-12  4.0595009E+02  1.0792854E+03  1.0000307E+03  0.0000000E+00  1.0000000E+00
 23  2  3  3   0   0  2.5900664E+02 -3.3198008E+02  4.7688868E+02  6.4285580E+02  9.2442162E+01  0.0000000E+00  1.0000000E+00
 23  2  3  3   0   0 -2.5900664E+02  3.3198008E+02 -7.0938593E+01  4.3642958E+02  9.0240153E+01  0.0000000E+00  1.0000000E+00
-11  1  4  4   0   0  2.9744313E+01 -2.4059765E+01  9.0147071E+01  9.7929009E+01  9.3440618E-06  0.0000000E+00  1.0000000E+00
 11  1  4  4   0   0  2.2926232E+02 -3.0792032E+02  3.8674161E+02  5.4492679E+02  2.6973983E-06  0.0000000E+00  1.0000000E+00
-13  1  5  5   0   0 -1.7287350E+01 -2.8656776E+00 -8.2067907E-01  1.7542465E+01  1.6926040E-05  0.0000000E+00  1.0000000E+00
 13  1  5  5   0   0 -2.4171929E+02  3.3484576E+02 -7.0117914E+01  4.1888712E+02  2.3666122E-06  0.0000000E+00  1.0000000E+00
</event>
<event>
9 100 1.0000000E+00 1.0000000E+03 7.8125000E-03 0.0000000E+00
 21 -1  0  0 501 502  0.0000000E+00  0.0000000E+00  2.0873222E+03  2.0873222E+03  0.0000000E+00  0.0000000E+00  1.0000000E+00
 21 -1  0  0 502 501  0.0000000E+00  0.0000000E+00 -1.1907513E+02  1.1907513E+02  0.0000000E+00  0.0000000E+00  1.0000000E+00
 39  2  1  2   0   0  4.3200998E-12  9.7770680E-12  1.9682470E+03  2.2063973E+03  9.9709209E+02  0.0000000E+00  1.0000000E+00
 23  2  3  3   0   0 -1.9666595E+02 -4.4146444E+02  8.0209510E+02  9.4067227E+02  8.9103443E+01  0.0000000E+00  1.0000000E+00
 23  2  3  3   0   0  1.9666595E+02  4.4146444E+02  1.1661520E+03  1.2657250E+03  9.2634532E+01  0.0000000E+00  1.0000000E+00
-11  1  4  4   0   0 -1.3397902E+02 -1.9166085E+02  3.7580680E+02  4.4262287E+02  7.6293945E-06  0.0000000E+00  1.0000000E+00
 11  1  4  4   0   0 -6.2686931E+01 -2.4980359E+02  4.2628830E+02  4.9804939E+02  1.4273290E-05  0.0000000E+00  1.0000000E+00
-13  1  5  5   0   0  5.3078484E+01  1.3690475E+02  4.7031203E+02  4.9270035E+02  1.3214499E-05  0.0000000E+00  1.0000000E+00
 13  1  5  5   0   0  1.4358747E+02  3.0455969E+02  6.9583993E+02  7.7302469E+02  1.9451216E-05  0.0000000E+00  1.0000000E+00
</event>
<event>
9 100 1.0000000E+00 1.0000000E+03 7.8125000E-03 0.0000000E+00
 21 -1  0  0 501 502  0.0000000E+00  0.0000000E+00  1.0086559E+03  1.0086559E+03  0.0000000E+00  0.0000000E+00  1.0000000E+00
 21 -1  0  0 502 501  0.0000000E+00  0.0000000E+00 -2.4739416E+02  2.4739416E+02  0.0000000E+00  0.0000000E+00  1.0000000E+00
 39  2  1  2   0   0 -2.6147973E-12  1.8474111E-12  7.6126170E+02  1.2560500E+03  9.9907071E+02  0.0000000E+00  1.0000000E+00
 23  2  3  3   0   0 -2.1115570E+02  1.5318179E+02  9.0402700E+02  9.4532970E+02  9.1279934E+01  0.0000000E+00  1.0000000E+00
 23  2  3  3   0   0  2.1115570E+02 -1.5318179E+02 -1.4276530E+02  3.1072032E+02  9.0076621E+01  0.0000000E+00  1.0000000E+00
-11  1  4  4   0   0 -9.6914076E-01  4.4987330E+00  1.2049413E+02  1.2058197E+02  0.0000000E+00  0.0000000E+00  1.0000000E+00
 11  1  4  4   0   0 -2.1018656E+02  1.4868306E+02  7.8353287E+02  8.2474772E+02  3.3036247E-06  0.0000000E+00  1.0000000E+00
-13  1  5  5   0   0  1.6560859E+02 -1.2272094E+02 -6.6051582E+01  2.1644733E+02  6.7434958E-06  0.0000000E+00  1.0000000E+00
 13  1  5  5   0   0  4.5547104E+01 -3.0460851E+01 -7.6713721E+01  9.4272993E+01  1.2651920E-05  0.0000000E+00  1.0000000E+00
</event>
<event>
9 100 1.0000000E+00 1.0000000E+03 7.8125000E-03 0.0000000E+00
 21 -1  0  0 501 502  0.0000000E+00  0.0000000E+00  2.6288334E+02  2.6288334E+02  0.0000000E+00  0.0000000E+00  1.0000000E+00
 21 -1  0  0 502 501  0.0000000E+00  0.0000000E+00 -9.2704304E+02  9.2704304E+02  0.0000000E+00  0.0000000E+00  1.0000000E+00
 39  2  1  2   0   0 -1.1084467E-12  3.4106051E-12 -6.6415971E+02  1.1899264E+03  9.8732805E+02  0.0000000E+00  1.0000000E+00
 23  2  3  3   0   0 -1.3503852E+02  4.1293454E+02 -5.9309390E+02  7.4065395E+02  8.9763960E+01  0.0000000E+00  1.0000000E+00
 23  2  3  3   0   0  1.3503852E+02 -4.1293454E+02 -7.1065806E+01  4.4927243E+02  8.9694062E+01  0.0000000E+00  1.0000000E+00
-11  1  4  4   0   0 -7.4170013E+00 -1.6805300E+00 -2.3320601E+01  2.4529299E+01  1.8688124E-05  0.0000000E+00  1.0000000E+00
 11  1  4  4   0   0 -1.2762152E+02  4.1461507E+02 -5.6977330E+02  7.1612466E+02  1.6170335E-06  0.0000000E+00  1.0000000E+00
-13  1  5  5   0   0  1.3521092E+02 -3.4155589E+02 -3.4195155E+01  3.6893323E+02  4.2113118E-06  0.0000000E+00  1.0000000E+00
 13  1  5  5   0   0 -1.7239574E-01 -7.1378654E+01 -3.6870651E+01  8.0339199E+01  9.5248148E-06  0.0000000E+00  1.0000000E+00
</event>
<event>
9 100 1.0000000E+00 1.0000000E+03 7.8125000E-03 0.0000000E+00
 21 -1  0  0 501 502  0.0000000E+00  0.0000000E+00  3.8554568E+02  3.8554568E+02  0.0000000E+00  0.0000000E+00  1.0000000E+00
 21 -1  0  0 502 501  0.0000000E+00  0.0000000E+00 -6.4699886E+02  6.4699886E+02  0.0000000E+00  0.0000000E+00  1.0000000E+00
 39  2  1  2   0   0  2.4158453E-13  1.5916157E-12 -2.6145319E+02  1.0325445E+03  9.9889462E+02  0.0000000E+00  1.0000000E+00
 23  2  3  3   0   0  5.6913126E+01  3.9446512E+02  1.6602510E+02  4.4137147E+02  9.1665717E+01  0.0000000E+00  1.0000000E+00
 23  2  3  3   0   0 -5.6913126E+01 -3.9446512E+02 -4.2747829E+02  5.9117307E+02  8.8916104E+01  0.0000000E+00  1.0000000E+00
-11  1  4  4   0   0  5.1494207E+01  2.6032007E+02  1.5343061E+02  3.0652756E+02  5.7468275E-06  0.0000000E+00  1.0000000E+00
 11  1  4  4   0   0  5.4189188E+00  1.3414505E+02  1.2594497E+01  1.3484392E+02  7.1366451E-06  0.0000000E+00  1.0000000E+00
-13  1  5  5   0   0 -5.3345862E+00 -1.6283032E+02 -1.1789632E+02  2.0110125E+02  1.2651920E-05  0.0000000E+00  1.0000000E+00
 13  1  5  5   0   0 -5.1578540E+01 -2.3163480E+02 -3.0958197E+02  3.9007181E+02  2.6973983E-06  0.0000000E+00  1.0000000E+00
</event>
<event>
9 100 1.0000000E+00 1.0000000E+03 7.8125000E-03 0.0000000E+00
 21 -1  0  0 501 502  0.0000000E+00  0.0000000E+00  2.1717735E+02  2.1717735E+02  0.0000000E+00  0.0000000E+00  1.0000000E+00
 21 -1  0  0 502 501  0.0000000E+00  0.0000000E+00 -1.1376870E+03  1.1376870E+03  0.0000000E+00  0.0000000E+00  1.0000000E+00
 39  2  1  2   0   0 -1.5347723E-12 -4.9453774E-12 -9.2050961E+02  1.3548643E+03  9.9414253E+02  0.0000000E+00  1.0000000E+00
 23  2  3  3   0   0  1.2625918E+02  3.9752284E+02 -1.1374238E+02  4.4214675E+02  9.2685664E+01  0.0000000E+00  1.0000000E+00
 23  2  3  3   0   0 -1.2625918E+02 -3.9752284E+02 -8.0676723E+02  9.1271757E+02  9.0632208E+01  0.0000000E+00  1.0000000E+00
-11  1  4  4   0   0  1.2872286E+02  3.0631542E+02 -1.1284163E+02  3.5090161E+02  2.4588722E-06  0.0000000E+00  1.0000000E+00
 11  1  4  4   0   0 -2.4636826E+00  9.1207424E+01 -9.0075203E-01  9.1245139E+01  8.4226235E-06  0.0000000E+00  1.0000000E+00
-13  1  5  5   0   0 -1.2548245E+02 -2.6699601E+02 -5.9099650E+02  6.6053734E+02  5.3947966E-06  0.0000000E+00  1.0000000E+00
 13  1  5  5   0   0 -7.7672676E-01 -1.3052683E+02 -2.1577074E+02  2.5218023E+02  1.3214499E-05  0.0000000E+00  1.0000000E+00
</event>
<event>
9 100 1.0000000E+00 1.0000000E+03 7.8125000E-03 0.0000000E+00
 21 -1  0  0 501 502  0.0000000E+00  0.0000000E+00  1.3707372E+02  1.3707372E+02  0.0000000E+00  0.0000000E+00  1.0000000E+00
 21 -1  0  0 502 501  0.0000000E+00  0.0000000E+00 -1.8157537E+03  1.8157537E+03  0.0000000E+00  0.0000000E+00  1.0000000E+00
 39  2  1  2   0   0 -4.2064130E-12  2.7853275E-12 -1.6786800E+03  1.9528274E+03  9.9778177E+02  0.0000000E+00  1.0000000E+00
 23  2  3  3   0   0  4.0481017E+02 -2.7473560E+02 -7.6052345E+02  9.0844913E+02  8.6792685E+01  0.0000000E+00  1.0000000E+00
 23  2  3  3   0   0 -4.0481017E+02  2.7473560E+02 -9.1815654E+02  1.0443783E+03  9.1453159E+01  0.0000000E+00  1.0000000E+00
-11  1  4  4   0   0  2.9330933E+02 -2.0981464E+02 -6.2320227E+02  7.2002335E+02  9.1473227E-06  0.0000000E+00  1.0000000E+00
 11  1  4  4   0   0  1.1150084E+02 -6.4920961E+01 -1.3732118E+02  1.8842578E+02  1.3214499E-05  0.0000000E+00  1.0000000E+00
-13  1  5  5   0   0 -2.8355895E+02  1.4222881E+02 -6.1543900E+02  6.9238709E+02  5.3947966E-06  0.0000000E+00  1.0000000E+00
 13  1  5  5   0   0 -1.2125123E+02  1.3250679E+02 -3.0271753E+02  3.5199121E+02  1.3214499E-05  0.0000000E+00  1.0000000E+00
</event>
<event>
9 100 1.0000000E+00 1.0000000E+03 7.8125000E-03 0.0000000E+00
 21 -1  0  0 501 502  0.0000000E+00  0.0000000E+00  5.6374722E+02  5.6374722E+02  0.0000000E+00  0.0000000E+00  1.0000000E+00
 21 -1  0  0 502 501  0.0000000E+00  0.0000000E+00 -4.2354645E+02  4.2354645E+02  0.0000000E+00  0.0000000E+00  1.0000000E+00
 39  2  1  2   0   0  1.9895197E-13  3.4106051E-13  1.4020077E+02  9.8729368E+02  9.7728836E+02  0.0000000E+00  1.0000000E+00
 23  2  3  3   0   0  1.7626699E+02  2.7545569E+02  4.2565441E+02  5.4473572E+02  9.2787074E+01  0.0000000E+00  1.0000000E+00
 23  2  3  3   0   0 -1.7626699E+02 -2.7545569E+02 -2.8545364E+02  4.4255795E+02  8.6185102E+01  0.0000000E+00  1.0000000E+00
-11  1  4  4   0   0  3.6148414E+01  3.6691769E+01  1.2934280E+02  1.3922124E+02  8.5299224E-06  0.0000000E+00  1.0000000E+00
 11  1  4  4   0   0  1.4011857E+02  2.3876392E+02  2.9631161E+02  4.0551448E+02  3.3036247E-06  0.0000000E+00  1.0000000E+00
-13  1  5  5   0   0 -1.1836028E+02 -2.4617782E+02 -2.2536824E+02  3.5412359E+02  2.4314020E-06  0.0000000E+00  1.0000000E+00
 13  1  5  5   0   0 -5.7906704E+01 -2.9277865E+01 -6.0085408E+01  8.8434360E+01  7.6293945E-06  0.0000000E+00  1.0000000E+00
</event>
<event>
9 100 1.0000000E+00 1.0000000E+03 7.8125000E-03 0.0000000E+00
 21 -1  0  0 501 502  0.0000000E+00  0.0000000E+00  7.2885704E+02  7.2885704E+02  0.0000000E+00  0.0000000E+00  1.0000000E+00
 21 -1  0  0 502 501  0.0000000E+00  0.0000000E+00 -3.3223283E+02  3.3223283E+02  0.0000000E+00  0.0000000E+00  1.0000000E+00
 39  2  1  2   0   0 -1.0231815E-12 -1.7053026E-13  3.9662421E+02  1.0610899E+03  9.8417526E+02  0.0000000E+00  1.0000000E+00
 23  2  3  3   0   0 -3.5639500E+02 -5.7824824E+01  5.4497289E+02  6.6007054E+02  9.1304785E+01  0.0000000E+00  1.0000000E+00
 23  2  3  3   0   0  3.5639500E+02  5.7824824E+01 -1.4834867E+02  4.0101932E+02  9.1913344E+01  0.0000000E+00  1.0000000E+00
-11  1  4  4   0   0 -4.5420798E+01  2.0261244E+01  5.1601475E+01  7.1667839E+01  1.8688124E-05  0.0000000E+00  1.0000000E+00
 11  1  4  4   0   0 -3.1097420E+02 -7.8086068E+01  4.9337141E+02  5.8840270E+02  3.6935647E-06  0.0000000E+00  1.0000000E+00
-13  1  5  5   0   0  5.1711889E+01  1.0980270E+01  1.1013517E+01  5.3999846E+01  2.6973983E-06  0.0000000E+00  1.0000000E+00
 13  1  5  5   0   0  3.0468311E+02  4.6844554E+01 -1.5936219E+02  3.4701948E+02  2.6656007E-07  0.0000000E+00  1.0000000E+00
</event>
<event>
9 100 1.0000000E+00 1.0000000E+03 7.8125000E-03 0.0000000E+00
 21 -1  0  0 501 502  0.0000000E+00  0.0000000E+00  1.7283943E+03  1.7283943E+03  0.0000000E+00  0.0000000E+00  1.0000000E+00
 21 -1  0  0 502 501  0.0000000E+00  0.0000000E+00 -1.4630703E+02  1.4630703E+02  0.0000000E+00  0.0000000E+00  1.0000000E+00
 39  2  1  2   0   0 -3.1263880E-13  5.4001248E-13  1.5820873E+03  1.8747014E+03  1.0057360E+03  0.0000000E+00  1.0000000E+00
 23  2  3  3   0   0 -1.6285053E+02  2.5106436E+02  1.5249942E+03  1.5567747E+03  9.1577652E+01  0.0000000E+00  1.0000000E+00
 23  2  3  3   0   0  1.6285053E+02 -2.5106436E+02  5.7093063E+01  3.1792665E+02  9.0907283E+01  0.0000000E+00  1.0000000E+00
-11  1  4  4   0   0 -2.9768157E+01  1.2780883E+02  6.7582667E+02  6.8844965E+02  2.1579186E-05  0.0000000E+00  1.0000000E+00
 11  1  4  4   0   0 -1.3308237E+02  1.2325553E+02  8.4916757E+02  8.6832506E+02  1.7059845E-05  0.0000000E+00  1.0000000E+00
-13  1  5  5   0   0  2.0616650E+01 -4.6801061E+01 -2.3523285E+01  5.6291478E+01  7.0726380E-06  0.0000000E+00  1.0000000E+00
 13  1  5  5   0   0  1.4223388E+02 -2.0426330E+02  8.0616348E+01  2.6163518E+02  3.1449571E-06  0.0000000E+00  1.0000000E+00
</event>
<event>
9 100 1.0000000E+00 1.0000000E+03 7.8125000E-03 0.0000000E+00
 21 -1  0  0 501 502  0.0000000E+00  0.0000000E+00  1.8335507E+02  1.8335507E+02  0.0000000E+00  0.0000000E+00  1.0000000E+00
 21 -1  0  0 502 501  0.0000000E+00  0.0000000E+00 -1.3632091E+03  1.3632091E+03  0.0000000E+00  0.0000000E+00  1.0000000E+00
 39  2  1  2   0   0  6.6791017E-13 -9.0949470E-13 -1.1798540E+03  1.5465642E+03  9.9990259E+02  0.0000000E+00  1.0000000E+00
 23  2  3  3   0   0  1.0798084E+02 -1.4354402E+02 -1.2987701E+03  1.3143141E+03  9.1394401E+01  0.0000000E+00  1.0000000E+00
 23  2  3  3   0   0 -1.0798084E+02  1.4354402E+02  1.1891610E+02  2.3225008E+02  8.6800423E+01  0.0000000E+00  1.0000000E+00
-11  1  4  4   0   0  5.9790610E+01 -9.4965435E+01 -4.9146490E+02  5.0411418E+02  0.0000000E+00  0.0000000E+00  1.0000000E+00
 11  1  4  4   0   0  4.8190235E+01 -4.8578583E+01 -8.0730521E+02  8.1019990E+02  7.6293945E-06  0.0000000E+00  1.0000000E+00
-13  1  5  5   0   0 -1.1692377E+02  1.1865505E+02  1.2074287E+02  2.0574020E+02  4.0625824E-06  0.0000000E+00  1.0000000E+00
 13  1  5  5   0   0  8.9429290E+00  2.4888971E+01 -1.8267663E+00  2.6509884E+01  1.3486992E-05  0.0000000E+00  1.0000000E+00
</event>
<event>
9 100 1.0000000E+00 1.0000000E+03 7.8125000E-03 0.0000000E+00
 21 -1  0  0 501 502  0.0000000E+00  0.0000000E+00  1.5957259E+03  1.5957259E+03  0.0000000E+00  0.0000000E+00  1.0000000E+00
 21 -1  0  0 502 501  0.0000000E+00  0.0000000E+00 -1.5465513E+02  1.5465513E+02  0.0000000E+00  0.0000000E+00  1.0000000E+00
 39  2  1  2   0   0 -4.0358827E-12 -1.8900437E-12  1.4410707E+03  1.7503810E+03  9.9355360E+02  0.0000000E+00  1.0000000E+00
 23  2  3  3   0   0  2.5251082E+02  1.2113856E+02  1.6081758E+01  2.9527805E+02  9.2164189E+01  0.0000000E+00  1.0000000E+00
 23  2  3  3   0   0 -2.5251082E+02 -1.2113856E+02  1.4249890E+03  1.4551029E+03  9.1075354E+01  0.0000000E+00  1.0000000E+00
-11  1  4  4   0   0  2.5942686E+02  1.1147692E+02  1.1674682E+01  2.8260520E+02  2.9520851E-06  0.0000000E+00  1.0000000E+00
 11  1  4  4   0   0 -6.9160377E+00  9.6616417E+00  4.4070755E+00  1.2672853E+01  1.6037084E-05  0.0000000E+00  1.0000000E+00
-13  1  5  5   0   0 -1.2226274E+02 -7.0155538E+01  9.3409353E+02  9.4466962E+02  9.3440618E-06  0.0000000E+00  1.0000000E+00
 13  1  5  5   0   0 -1.3024808E+02 -5.0983022E+01  4.9089545E+02  5.1043332E+02  2.1579186E-05  0.0000000E+00  1.0000000E+00
</event>
<event>
9 100 1.0000000E+00 1.0000000E+03 7.8125000E-03 0.0000000E+00
 21 -1  0  0 501 502  0.0000000E+00  0.0000000E+00  3.2433040E+02  3.2433040E+02  0.0000000E+00  0.0000000E+00  1.0000000E+00
 21 -1  0  0 502 501  0.0000000E+00  0.0000000E+00 -7.7323420E+02  7.7323420E+02  0.0000000E+00  0.0000000E+00  1.0000000E+00
 39  2  1  2   0   0 -2.1032065E-12 -1.3500312E-13 -4.4890380E+02  1.0975646E+03  1.0015655E+03  0.0000000E+00  1.0000000E+00
 23  2  3  3   0   0 -2.8140875E+02 -1.8969484E+01 -6.6642179E+02  7.2934125E+02  9.0939087E+01  0.0000000E+00  1.0000000E+00
 23  2  3  3   0   0  2.8140875E+02  1.8969484E+01  2.1751799E+02  3.6822336E+02  9.3400417E+01  0.0000000E+00  1.0000000E+00
-11  1  4  4   0   0 -8.1371965E+01 -4.4192351E+01 -2.5205947E+02  2.6852996E+02  1.7059845E-05  0.0000000E+00  1.0000000E+00
 11  1  4  4   0   0 -2.0003679E+02  2.5222867E+01 -4.1436232E+02  4.6081129E+02  8.0921949E-06  0.0000000E+00  1.0000000E+00
-13  1  5  5   0   0  1.8208511E+02  2.6755778E+01  1.9075516E+02  2.6506299E+02  1.5814899E-06  0.0000000E+00  1.0000000E+00
 13  1  5  5   0   0  9.9323646E+01 -7.7862944E+00  2.6762838E+01  1.0316037E+02  3.8146973E-06  0.0000000E+00  1.0000000E+00
</event>
<event>
9 100 1.0000000E+00 1.0000000E+03 7.8125000E-03 0.0000000E+00
 21 -1  0  0 501 502  0.0000000E+00  0.0000000E+00  5.9617464E+02  5.9617464E+02  0.0000000E+00  0.0000000E+00  1.0000000E+00
 21 -1  0  0 502 501  0.0000000E+00  0.0000000E+00 -4.2743854E+02  4.2743854E+02  0.0000000E+00  0.0000000E+00  1.0000000E+00
 39  2  1  2   0   0 -1.1368684E-12  1.3073986E-12  1.6873610E+02  1.0236132E+03  1.0096099E+03  0.0000000E+00  1.0000000E+00
 23  2  3  3   0   0  2.9910041E+02 -3.5046435E+02  2.7231722E+02  5.4330006E+02  9.3445031E+01  0.0000000E+00  1.0000000E+00
 23  2  3  3   0   0 -2.9910041E+02  3.5046435E+02 -1.0358112E+02  4.8031312E+02  8.7666023E+01  0.0000000E+00  1.0000000E+00
-11  1  4  4   0   0  5.0318676E+01 -5.2486062E+01  6.8595787E+00  7.3032935E+01  2.0185481E-05  0.0000000E+00  1.0000000E+00
 11  1  4  4   0   0  2.4878173E+02 -2.9797829E+02  2.6545764E+02  4.7026713E+02  2.3283988E-06  0.0000000E+00  1.0000000E+00
-13  1  5  5   0   0 -3.7274998E+01  1.9300869E+01  9.9740603E+00  4.3144304E+01  8.2038167E-06  0.0000000E+00  1.0000000E+00
 13  1  5  5   0   0 -2.6182541E+02  3.3116348E+02 -1.1355518E+02  4.3716882E+02  9.0787090E-07  0.0000000E+00  1.0000000E+00
</event>
<event>
9 100 1.0000000E+00 1.0000000E+03 7.8125000E-03 0.0000000E+00
 21 -1  0  0 501 502  0.0000000E+00  0.0000000E+00  1.4132617E+02  1.4132617E+02  0.0000000E+00  0.0000000E+00  1.0000000E+00
 21 -1  0  0 502 501  0.0000000E+00  0.0000000E+00 -1.7725996E+03  1.7725996E+03  0.0000000E+00  0.0000000E+00  1.0000000E+00
 39  2  1  2   0   0 -1.8118840E-13  1.0373924E-12 -1.6312735E+03  1.9139258E+03  1.0010289E+03  0.0000000E+00  1.0000000E+00
 23  2  3  3   0   0 -1.0530845E+01  6.4244072E+01  1.1865113E+02  1.5832618E+02  8.2163805E+01  0.0000000E+00  1.0000000E+00
 23  2  3  3   0   0  1.0530845E+01 -6.4244072E+01 -1.7499246E+03  1.7555996E+03  1.2512300E+02  0.0000000E+00  1.0000000E+00
-11  1  4  4   0   0  3.2802550E+01  7.9400180E+00  3.6446041E+01  4.9672579E+01  1.1284027E-05  0.0000000E+00  1.0000000E+00
 11  1  4  4   0   0 -4.3333395E+01  5.6304054E+01  8.2205086E+01  1.0865360E+02  6.8770433E-06  0.0000000E+00  1.0000000E+00
-13  1  5  5   0   0 -1.6410092E+01 -1.5208220E+01 -5.0266644E+01  5.5021056E+01  6.4737559E-05  0.0000000E+00  1.0000000E+00
 13  1  5  5   0   0  2.6940936E+01 -4.9035852E+01 -1.6996579E+03  1.7005786E+03  1.7841613E-06  0.0000000E+00  1.0000000E+00
</event>
<event>
9 100 1.0000000E+00 1.0000000E+03 7.8125000E-03 0.0000000E+00
 21 -1  0  0 501 502  0.0000000E+00  0.0000000E+00  2.2003131E+02  2.2003131E+02  0.0000000E+00  0.0000000E+00  1.0000000E+00
 21 -1  0  0 502 501  0.0000000E+00  0.0000000E+00 -1.1475844E+03  1.1475844E+03  0.0000000E+00  0.0000000E+00  1.0000000E+00
 39  2  1  2   0   0 -8.2422957E-13  2.8990144E-12 -9.2755308E+02  1.3676157E+03  1.0049965E+03  0.0000000E+00  1.0000000E+00
 23  2  3  3   0   0 -7.5298962E+01  2.5844517E+02 -1.0273894E+03  1.0659289E+03  9.0617933E+01  0.0000000E+00  1.0000000E+00
 23  2  3  3   0   0  7.5298962E+01 -2.5844517E+02  9.9836357E+01  3.0168676E+02  9.2648599E+01  0.0000000E+00  1.0000000E+00
-11  1  4  4   0   0 -8.2923821E+01  1.2422771E+02 -5.6248895E+02  5.8198170E+02  1.4273290E-05  0.0000000E+00  1.0000000E+00
 11  1  4  4   0   0  7.6248592E+00  1.3421746E+02 -4.6490048E+02  4.8394723E+02  1.0789593E-05  0.0000000E+00  1.0000000E+00
-13  1  5  5   0   0  6.4262626E+01 -8.3158633E+01  1.3432931E+01  1.0595040E+02  6.8105969E-06  0.0000000E+00  1.0000000E+00
 13  1  5  5   0   0  1.1036336E+01 -1.7528654E+02  8.6403426E+01  1.9573636E+02  2.9826155E-06  0.0000000E+00  1.0000000E+00
</event>
<event>
9 100 1.0000000E+00 1.0000000E+03 7.8125000E-03 0.0000000E+00
 21 -1  0  0 501 502  0.0000000E+00  0.0000000E+00  7.7616997E+02  7.7616997E+02  0.0000000E+00  0.0000000E+00  1.0000000E+00
 21 -1  0  0 502 501  0.0000000E+00  0.0000000E+00 -3.2187714E+02  3.2187714E+02  0.0000000E+00  0.0000000E+00  1.0000000E+00
 39  2  1  2   0   0 -5.1159077E-13  2.8421709E-13  4.5429284E+02  1.0980471E+03  9.9966268E+02  0.0000000E+00  1.0000000E+00
 23  2  3  3   0   0 -4.2468189E+02  2.4744684E+02  2.2022431E+02  5.4609807E+02  9.0220297E+01  0.0000000E+00  1.0000000E+00
 23  2  3  3   0   0  4.2468189E+02 -2.4744684E+02  2.3406852E+02  5.5194904E+02  9.0967169E+01  0.0000000E+00  1.0000000E+00
-11  1  4  4   0   0 -5.0165695E-01  1.1648468E+01 -2.8014663E+00  1.1991109E+01  1.8094698E-05  0.0000000E+00  1.0000000E+00
 11  1  4  4   0   0 -4.2418023E+02  2.3579837E+02  2.2302578E+02  5.3410696E+02  1.4283367E-06  0.0000000E+00  1.0000000E+00
-13  1  5  5   0   0  4.0796786E+02 -2.3436428E+02  2.4225557E+02  5.2919954E+02  2.2712420E-06  0.0000000E+00  1.0000000E+00
 13  1  5  5   0   0  1.6714032E+01 -1.3082564E+01 -8.1870469E+00  2.2749507E+01  1.5495374E-05  0.0000000E+00  1.0000000E+00
</event>
<event>
9 100 1.0000000E+00 1.0000000E+03 7.8125000E-03 0.0000000E+00
 21 -1  0  0 501 502  0.0000000E+00  0.0000000E+00  2.2223050E+02  2.2223050E+02  0.0000000E+00  0.0000000E+00  1.0000000E+00
 21 -1  0  0 502 501  0.0000000E+00  0.0000000E+00 -1.0780766E+03  1.0780766E+03  0.0000000E+00  0.0000000E+00  1.0000000E+00
 39  2  1  2   0   0  4.4764192E-13  4.9027449E-13 -8.5584609E+02  1.3003071E+03  9.7894127E+02  0.0000000E+00  1.0000000E+00
 23  2  3  3   0   0 -3.5759496E+01 -4.0471127E+01  2.0685336E+02  2.3234365E+02  9.0986832E+01  0.0000000E+00  1.0000000E+00
 23  2  3  3   0   0  3.5759496E+01  4.0471127E+01 -1.0626995E+03  1.0679634E+03  9.1099634E+01  0.0000000E+00  1.0000000E+00
-11  1  4  4   0   0  3.8488745E+00  6.3607210E+00  1.4515471E+02  1.4534498E+02  7.3562854E-06  0.0000000E+00  1.0000000E+00
 11  1  4  4   0   0 -3.9608370E+01 -4.6831848E+01  6.1698652E+01  8.6998670E+01  1.0619668E-05  0.0000000E+00  1.0000000E+00
-13  1  5  5   0   0 -2.5067990E+01 -3.2404608E-01 -4.8382152E+02  4.8447061E+02  1.5258789E-05  0.0000000E+00  1.0000000E+00
 13  1  5  5   0   0  6.0827486E+01  4.0795173E+01 -5.7887793E+02  5.8349283E+02  1.7059845E-05  0.0000000E+00  1.0000000E+00
</event>
<event>
9 100 1.0000000E+00 1.0000000E+03 7.8125000E-03 0.0000000E+00
 21 -1  0  0 501 502  0.0000000E+00  0.0000000E+00  2.3786541E+02  2.3786541E+02  0.0000000E+00  0.0000000E+00  1.0000000E+00
 21 -1  0  0 502 501  0.0000000E+00  0.0000000E+00 -1.0563733E+03  1.0563733E+03  0.0000000E+00  0.0000000E+00  1.0000000E+00
 39  2  1  2   0   0  7.1054274E-15  2.5579538E-13 -8.1850789E+02  1.2942387E+03  1.0025461E+03  0.0000000E+00  1.0000000E+00
 23  2  3  3   0   0  4.6783898E+00 -1.7960256E+02  1.8335748E+02  2.7236593E+02  9.1017956E+01  0.0000000E+00  1.0000000E+00
 23  2  3  3   0   0 -4.6783898E+00  1.7960256E+02 -1.0018654E+03  1.0218728E+03  9.0613363E+01  0.0000000E+00  1.0000000E+00
-11  1  4  4   0   0 -3.5381455E+01 -1.4194954E+02  1.3762743E+02  2.0085524E+02  3.0157830E-06  0.0000000E+00  1.0000000E+00
 11  1  4  4   0   0  4.0059845E+01 -3.7653024E+01  4.5730044E+01  7.1510687E+01  3.8146973E-06  0.0000000E+00  1.0000000E+00
-13  1  5  5   0   0  1.0051497E+01 -1.0871763E+00 -1.7846957E+02  1.7875571E+02  1.0789593E-05  0.0000000E+00  1.0000000E+00
 13  1  5  5   0   0 -1.4729887E+01  1.8068974E+02 -8.2339579E+02  8.4311706E+02  7.1366451E-06  0.0000000E+00  1.0000000E+00
</event>
<event>
9 100 1.0000000E+00 1.0000000E+03 7.8125000E-03 0.0000000E+00
 21 -1  0  0 501 502  0.0000000E+00  0.0000000E+00  2.3549136E+03  2.3549136E+03  0.0000000E+00  0.0000000E+00  1.0000000E+00
 21 -1  0  0 502 501  0.0000000E+00  0.0000000E+00 -1.0400855E+02  1.0400855E+02  0.0000000E+00  0.0000000E+00  1.0000000E+00
 39  2  1  2   0   0 -9.5923269E-14 -9.6065378E-12  2.2509050E+03  2.4589221E+03  9.8981037E+02  0.0000000E+00  1.0000000E+00
 23  2  3  3   0   0  5.0761131E+00  4.7928920E+02  9.1839423E+02  1.0398704E+03  9.0214300E+01  0.0000000E+00  1.0000000E+00
 23  2  3  3   0   0 -5.0761131E+00 -4.7928920E+02  1.3325108E+03  1.4190517E+03  9.1535893E+01  0.0000000E+00  1.0000000E+00
-11  1  4  4   0   0 -2.4241423E+01  4.1348469E+02  8.0935748E+02  9.0918467E+02  8.0921949E-06  0.0000000E+00  1.0000000E+00
 11  1  4  4   0   0  2.9317536E+01  6.5804512E+01  1.0903674E+02  1.3068574E+02  4.1787915E-05  0.0000000E+00  1.0000000E+00
-13  1  5  5   0   0 -3.0991743E+01 -3.4807640E+02  8.6904628E+02  9.3667449E+02  2.0893957E-05  0.0000000E+00  1.0000000E+00
 13  1  5  5   0   0  2.5915630E+01 -1.3121280E+02  4.6346450E+02  4.8237720E+02  3.4119690E-05  0.0000000E+00  1.0000000E+00
</event>
<event>
9 100 1.0000000E+00 1.0000000E+03 7.8125000E-03 0.0000000E+00
 21 -1  0  0 501 502  0.0000000E+00  0.0000000E+00  1.8648908E+03  1.8648908E+03  0.0000000E+00  0.0000000E+00  1.0000000E+00
 21 -1  0  0 502 501  0.0000000E+00  0.0000000E+00 -1.3279921E+02  1.3279921E+02  0.0000000E+00  0.0000000E+00  1.0000000E+00
 39  2  1  2   0   0  1.4068746E-12  4.4408921E-13  1.7320916E+03  1.9976900E+03  9.9530098E+02  0.0000000E+00  1.0000000E+00
 23  2  3  3   0   0 -9.0814574E+01 -2.8413948E+01  1.8292829E+03  1.8338859E+03  8.8357001E+01  0.0000000E+00  1.0000000E+00
 23  2  3  3   0   0  9.0814574E+01  2.8413948E+01 -9.7191290E+01  1.6380411E+02  9.1274315E+01  0.0000000E+00  1.0000000E+00
-11  1  4  4   0   0 -9.7092463E+01 -4.7165238E+01  1.4038641E+03  1.4080078E+03  9.3440618E-06  0.0000000E+00  1.0000000E+00
 11  1  4  4   0   0  6.2778886E+00  1.8751290E+01  4.2541875E+02  4.2587808E+02  1.5258789E-05  0.0000000E+00  1.0000000E+00
-13  1  5  5   0   0  6.3902666E+01  4.3099618E+01 -1.0676945E+02  1.3168463E+02  4.5252449E-06  0.0000000E+00  1.0000000E+00
 13  1  5  5   0   0  2.6911908E+01 -1.4685669E+01  9.5781580E+00  3.2119477E+01  1.0092740E-05  0.0000000E+00  1.0000000E+00
</event>
<event>
9 100 1.0000000E+00 1.0000000E+03 7.8125000E-03 0.0000000E+00
 21 -1  0  0 501 502  0.0000000E+00  0.0000000E+00  3.1565354E+02  3.1565354E+02  0.0000000E+00  0.0000000E+00  1.0000000E+00
 21 -1  0  0 502 501  0.0000000E+00  0.0000000E+00 -7.8988473E+02  7.8988473E+02  0.0000000E+00  0.0000000E+00  1.0000000E+00
 39  2  1  2   0   0  1.5916157E-12  2.7853275E-12 -4.7423119E+02  1.1055383E+03  9.9865892E+02  0.0000000E+00  1.0000000E+00
 23  2  3  3   0   0 -2.2144668E+02 -3.9345701E+02 -4.4841595E+02  6.4319917E+02  9.3708389E+01  0.0000000E+00  1.0000000E+00
 23  2  3  3   0   0  2.2144668E+02  3.9345701E+02 -2.5815238E+01  4.6233910E+02  9.6145548E+01  0.0000000E+00  1.0000000E+00
-11  1  4  4   0   0 -1.3442484E+02 -3.2028339E+02 -3.4260884E+02  4.8788555E+02  7.0080464E-06  0.0000000E+00  1.0000000E+00
 11  1  4  4   0   0 -8.7021836E+01 -7.3173623E+01 -1.0580710E+02  1.5531362E+02  1.0789593E-05  0.0000000E+00  1.0000000E+00
-13  1  5  5   0   0  2.6634587E+01  1.0207770E+01 -1.5124811E+01  3.2285596E+01  1.2693411E-05  0.0000000E+00  1.0000000E+00
 13  1  5  5   0   0  1.9481209E+02  3.8324924E+02 -1.0690426E+01  4.3005350E+02  2.4138041E-06  0.0000000E+00  1.0000000E+00
</event>
<event>
9 100 1.0000000E+00 1.0000000E+03 7.8125000E-03 0.0000000E+00
 21 -1  0  0 501 502  0.0000000E+00  0.0000000E+00  1.2196080E+03  1.2196080E+03  0.0000000E+00  0.0000000E+00  1.0000000E+00
 21 -1  0  0 502 501  0.0000000E+00  0.0000000E+00 -2.0398476E+02  2.0398476E+02  0.0000000E+00  0.0000000E+00  1.0000000E+00
 39  2  1  2   0   0  1.9895197E-12 -1.5063506E-12  1.0156232E+03  1.4235927E+03  9.9755991E+02  0.0000000E+00  1.0000000E+00
 23  2  3  3   0   0  2.4293278E+02 -1.7892546E+02  1.0594455E+03  1.1052953E+03  9.0677108E+01  0.0000000E+00  1.0000000E+00
 23  2  3  3   0   0 -2.4293278E+02  1.7892546E+02 -4.3822282E+01  3.1829741E+02  9.1445034E+01  0.0000000E+00  1.0000000E+00
-11  1  4  4   0   0  1.3536541E+02 -6.2470739E+01  3.9497411E+02  4.2217406E+02  2.2888184E-05  0.0000000E+00  1.0000000E+00
 11  1  4  4   0   0  1.0756737E+02 -1.1645472E+02  6.6447140E+02  6.8312128E+02  1.3214499E-05  0.0000000E+00  1.0000000E+00
-13  1  5  5   0   0 -4.1633401E+01 -5.3894510E+00 -1.0985861E+01  4.3394417E+01  9.8418081E-06  0.0000000E+00  1.0000000E+00
 13  1  5  5   0   0 -2.0129938E+02  1.8431491E+02 -3.2836421E+01  2.7490300E+02  2.8210067E-06  0.0000000E+00  1.0000000E+00
</event>
<event>
9 100 1.0000000E+00 1.0000000E+03 7.8125000E-03 0.0000000E+00
 21 -1  0  0 501 502  0.0000000E+00  0.0000000E+00  2.3358671E+02  2.3358671E+02  0.0000000E+00  0.0000000E+00  1.0000000E+00
 21 -1  0  0 502 501  0.0000000E+00  0.0000000E+00 -1.0583827E+03  1.0583827E+03  0.0000000E+00  0.0000000E+00  1.0000000E+00
 39  2  1  2   0   0  1.0231815E-12  5.0022209E-12 -8.2479603E+02  1.2919694E+03  9.9443278E+02  0.0000000E+00  1.0000000E+00
 23  2  3  3   0   0 -9.4622556E+01 -4.6916140E+02 -2.8333165E+02  5.6356515E+02  9.0901090E+01  0.0000000E+00  1.0000000E+00
 23  2  3  3   0   0  9.4622556E+01  4.6916140E+02 -5.4146438E+02  7.2840429E+02  9.1232063E+01  0.0000000E+00  1.0000000E+00
-11  1  4  4   0   0 -4.1172368E+01 -1.8062001E+02 -5.9767157E+01  1.9465576E+02  7.6293945E-06  0.0000000E+00  1.0000000E+00
 11  1  4  4   0   0 -5.3450187E+01 -2.8854139E+02 -2.2356449E+02  3.6890939E+02  5.8788433E-06  0.0000000E+00  1.0000000E+00
-13  1  5  5   0   0  9.2429536E+01  4.6040937E+02 -5.4436672E+02  7.1892638E+02  2.9802322E-07  0.0000000E+00  1.0000000E+00
 13  1  5  5   0   0  2.1930193E+00  8.7520301E+00  2.9023374E+00  9.4779179E+00  1.8688124E-05  0.0000000E+00  1.0000000E+00
</event>
<event>
9 100 1.0000000E+00 1.0000000E+03 7.8125000E-03 0.0000000E+00
 21 -1  0  0 501 502  0.0000000E+00  0.0000000E+00  3.1350611E+02  3.1350611E+02  0.0000000E+00  0.0000000E+00  1.0000000E+00
 21 -1  0  0 502 501  0.0000000E+00  0.0000000E+00 -8.1039077E+02  8.1039077E+02  0.0000000E+00  0.0000000E+00  1.0000000E+00
 39  2  1  2   0   0  1.7053026E-12 -1.0800250E-12 -4.9688466E+02  1.1238969E+03  1.0080922E+03  0.0000000E+00  1.0000000E+00
 23  2  3  3   0   0  3.8157123E+02 -2.5718796E+02 -4.3957632E+01  4.7115430E+02  9.1169312E+01  0.0000000E+00  1.0000000E+00
 23  2  3  3   0   0 -3.8157123E+02  2.5718796E+02 -4.5292703E+02  6.5274258E+02  9.5852638E+01  0.0000000E+00  1.0000000E+00
-11  1  4  4   0   0  2.9266623E+02 -1.5332769E+02 -1.1293075E+01  3.3059104E+02  1.1680077E-06  0.0000000E+00  1.0000000E+00
 11  1  4  4   0   0  8.8905007E+01 -1.0386027E+02 -3.2664557E+01  1.4056326E+02  1.3591950E-06  0.0000000E+00  1.0000000E+00
-13  1  5  5   0   0 -1.2834760E+02  3.6674748E+01 -1.1233106E+02  1.7446034E+02  1.6184390E-05  0.0000000E+00  1.0000000E+00
 13  1  5  5   0   0 -2.5322363E+02  2.2051322E+02 -3.4059597E+02  4.7828224E+02  5.3947966E-06  0.0000000E+00  1.0000000E+00
</event>
<event>
9 100 1.0000000E+00 1.0000000E+03 7.8125000E-03 0.0000000E+00
 21 -1  0  0 501 502  0.0000000E+00  0.0000000E+00  2.3766595E+02  2.3766595E+02  0.0000000E+00  0.0000000E+00  1.0000000E+00
 21 -1  0  0 502 501  0.0000000E+00  0.0000000E+00 -1.0642773E+03  1.0642773E+03  0.0000000E+00  0.0000000E+00  1.0000000E+00
 39  2  1  2   0   0  9.0949470E-13 -2.8421709E-12 -8.2661138E+02  1.3019433E+03  1.0058677E+03  0.0000000E+00  1.0000000E+00
 23  2  3  3   0   0 -1.3926917E+02  4.4768890E+02 -2.0893674E+02  5.2109013E+02  8.9772531E+01  0.0000000E+00  1.0000000E+00
 23  2  3  3   0   0  1.3926917E+02 -4.4768890E+02 -6.1767464E+02  7.8085315E+02  9.1588364E+01  0.0000000E+00  1.0000000E+00
-11  1  4  4   0   0 -9.1626387E+01  3.9841320E+02 -1.7757204E+02  4.4571325E+02  1.7841613E-06  0.0000000E+00  1.0000000E+00
 11  1  4  4   0   0 -4.7642783E+01  4.9275705E+01 -3.1364698E+01  7.5376881E+01  8.0921949E-06  0.0000000E+00  1.0000000E+00
-13  1  5  5   0   0  1.3566946E+01 -1.4722175E+02 -2.4260715E+02  2.8410655E+02  1.0789593E-05  0.0000000E+00  1.0000000E+00
 13  1  5  5   0   0  1.2570222E+02 -3.0046715E+02 -3.7506749E+02  4.9674660E+02  7.1366451E-06  0.0000000E+00  1.0000000E+00
</event>
<event>
9 100 1.0000000E+00 1.0000000E+03 7.8125000E-03 0.0000000E+00
 21 -1  0  0 501 502  0.0000000E+00  0.0000000E+00  7.5360892E+02  7.5360892E+02  0.0000000E+00  0.0000000E+00  1.0000000E+00
 21 -1  0  0 502 501  0.0000000E+00  0.0000000E+00 -3.2118031E+02  3.2118031E+02  0.0000000E+00  0.0000000E+00  1.0000000E+00
 39  2  1  2   0   0  2.1316282E-14 -8.5265128E-14  4.3242861E+02  1.0747892E+03  9.8396005E+02  0.0000000E+00  1.0000000E+00
 23  2  3  3   0   0  4.3993002E+01 -1.7039900E+02  7.0695263E+02  7.3407379E+02  9.0061659E+01  0.0000000E+00  1.0000000E+00
 23  2  3  3   0   0 -4.3993002E+01  1.7039900E+02 -2.7452402E+02  3.4071543E+02  9.8754048E+01  0.0000000E+00  1.0000000E+00
-11  1  4  4   0   0 -5.4352129E-01 -1.9406181E+01  1.5260907E+01  2.4693938E+01  2.4126264E-05  0.0000000E+00  1.0000000E+00
 11  1  4  4   0   0  4.4536523E+01 -1.5099282E+02  6.9169173E+02  7.0937985E+02  9.5367432E-07  0.0000000E+00  1.0000000E+00
-13  1  5  5   0   0  1.4097217E+01 -3.9589293E+00 -4.1073721E+01  4.3605679E+01  1.0446979E-05  0.0000000E+00  1.0000000E+00
 13  1  5  5   0   0 -5.8090219E+01  1.7435793E+02 -2.3345030E+02  2.9710975E+02  8.2590618E-07  0.0000000E+00  1.0000000E+00
</event>
<event>
9 100 1.0000000E+00 1.0000000E+03 7.8125000E-03 0.0000000E+00
 21 -1  0  0 501 502  0.0000000E+00  0.0000000E+00  1.3158575E+02  1.3158575E+02  0.0000000E+00  0.0000000E+00  1.0000000E+00
 21 -1  0  0 502 501  0.0000000E+00  0.0000000E+00 -1.8958020E+03  1.8958020E+03  0.0000000E+00  0.0000000E+00  1.0000000E+00
 39  2  1  2   0   0  2.2168933E-12  5.1159077E-12 -1.7642163E+03  2.0273878E+03  9.9892050E+02  0.0000000E+00  1.0000000E+00
 23  2  3  3   0   0  1.4592310E+02  3.3834961E+02 -1.5392974E+03  1.5854146E+03  9.1264283E+01  0.0000000E+00  1.0000000E+00
 23  2  3  3   0   0 -1.4592310E+02 -3.3834961E+02 -2.2491891E+02  4.4197315E+02  9.4750909E+01  0.0000000E+00  1.0000000E+00
-11  1  4  4   0   0  3.4283398E+01  1.1029218E+02 -6.6646202E+02  6.7639584E+02  1.8688124E-05  0.0000000E+00  1.0000000E+00
 11  1  4  4   0   0  1.1163970E+02  2.2805744E+02 -8.7283536E+02  9.0901881E+02  0.0000000E+00  0.0000000E+00  1.0000000E+00
-13  1  5  5   0   0 -9.2157765E+01 -1.0038126E+02 -8.7953546E+01  1.6218902E+02  9.5367432E-06  0.0000000E+00  1.0000000E+00
 13  1  5  5   0   0 -5.3765338E+01 -2.3796836E+02 -1.3696536E+02  2.7978413E+02  8.5830688E-06  0.0000000E+00  1.0000000E+00
</event>
<event>
9 100 1.0000000E+00 1.0000000E+03 7.8125000E-03 0.0000000E+00
 21 -1  0  0 501 502  0.0000000E+00  0.0000000E+00  5.9911532E+02  5.9911532E+02  0.0000000E+00  0.0000000E+00  1.0000000E+00
 21 -1  0  0 502 501  0.0000000E+00  0.0000000E+00 -4.0809727E+02  4.0809727E+02  0.0000000E+00  0.0000000E+00  1.0000000E+00
 39  2  1  2   0   0 -2.3305802E-12 -3.0127012E-12  1.9101805E+02  1.0072126E+03  9.8893342E+02  0.0000000E+00  1.0000000E+00
 23  2  3  3   0   0 -2.9824962E+02 -3.8260000E+02  6.9930944E+01  4.9898643E+02  9.3603033E+01  0.0000000E+00  1.0000000E+00
 23  2  3  3   0   0  2.9824962E+02  3.8260000E+02  1.2108711E+02  5.0822615E+02  9.1083154E+01  0.0000000E+00  1.0000000E+00
-11  1  4  4   0   0 -2.9792339E+02 -3.6119049E+02  5.2050344E+01  4.7109039E+02  1.9221920E-06  0.0000000E+00  1.0000000E+00
 11  1  4  4   0   0 -3.2623368E-01 -2.1409507E+01  1.7880600E+01  2.7896044E+01  1.0873560E-05  0.0000000E+00  1.0000000E+00
-13  1  5  5   0   0  1.3852344E+02  1.9673178E+02  1.0532087E+02  2.6264924E+02  1.4982478E-05  0.0000000E+00  1.0000000E+00
 13  1  5  5   0   0  1.5972618E+02  1.8586822E+02  1.5766238E+01  2.4557692E+02  1.6573093E-05  0.0000000E+00  1.0000000E+00
</event>
<event>
9 100 1.0000000E+00 1.0000000E+03 7.8125000E-03 0.0000000E+00
 21 -1  0  0 501 502  0.0000000E+00  0.0000000E+00  4.7422380E+02  4.7422380E+02  0.0000000E+00  0.0000000E+00  1.0000000E+00
 21 -1  0  0 502 501  0.0000000E+00  0.0000000E+00 -1.0315716E+03  1.0315716E+03  0.0000000E+00  0.0000000E+00  1.0000000E+00
 39  2  1  2   0   0  1.4210855E-14  3.5527137E-15 -5.5734782E+02  1.5057954E+03  1.3988507E+03  0.0000000E+00  1.0000000E+00
 23  2  3  3   0   0  4.2887522E+01  2.1853795E+01 -1.0236936E+03  1.0288031E+03  9.0389921E+01  0.0000000E+00  1.0000000E+00
 23  2  3  3   0   0 -4.2887522E+01 -2.1853795E+01  4.6634575E+02  4.7699234E+02  8.7900000E+01  0.0000000E+00  1.0000000E+00
-11  1  4  4   0   0  4.3032050E+01  4.5183401E+01 -4.1518531E+02  4.1984775E+02  1.5258789E-05  0.0000000E+00  1.0000000E+00
 11  1  4  4   0   0 -1.4452817E-01 -2.3329606E+01 -6.0850826E+02  6.0895533E+02  7.6293945E-06  0.0000000E+00  1.0000000E+00
-13  1  5  5   0   0 -2.4170493E+01  9.5215918E+00  3.2480170E+01  4.1591283E+01  9.3440618E-06  0.0000000E+00  1.0000000E+00
 13  1  5  5   0   0 -1.8717030E+01 -3.1375387E+01  4.3386558E+02  4.3540106E+02  2.1851424E-06  0.0000000E+00  1.0000000E+00
</event>
<event>
9 100 1.0000000E+00 1.0000000E+03 7.8125000E-03 0.0000000E+00
 21 -1  0  0 501 502  0.0000000E+00  0.0000000E+00  1.0309626E+03  1.0309626E+03  0.0000000E+00  0.0000000E+00  1.0000000E+00
 21 -1  0  0 502 501  0.0000000E+00  0.0000000E+00 -2.4214724E+02  2.4214724E+02  0.0000000E+00  0.0000000E+00  1.0000000E+00
 39  2  1  2   0   0 -3.5527137E-14  3.5527137E-14  7.8881534E+02  1.2731098E+03  9.9928924E+02  0.0000000E+00  1.0000000E+00
 23  2  3  3   0   0 -4.0181446E+01  4.8481073E+01 -2.2665655E+02  2.5162928E+02  8.9326018E+01  0.0000000E+00  1.0000000E+00
 23  2  3  3   0   0  4.0181446E+01 -4.8481073E+01  1.0154719E+03  1.0214806E+03  9.0963616E+01  0.0000000E+00  1.0000000E+00
-11  1  4  4   0   0 -3.7129008E+01  2.7209515E+01 -2.2545503E+02  2.3010626E+02  2.8824793E-06  0.0000000E+00  1.0000000E+00
 11  1  4  4   0   0 -3.0524380E+00  2.1271558E+01 -1.2015217E+00  2.1523016E+01  1.2063132E-05  0.0000000E+00  1.0000000E+00
-13  1  5  5   0   0  1.1633902E+01 -7.0974384E+01  7.6699849E+02  7.7036316E+02  8.5299224E-06  0.0000000E+00  1.0000000E+00
 13  1  5  5   0   0  2.8547544E+01  2.2493311E+01  2.4847340E+02  2.5111739E+02  2.8546580E-05  0.0000000E+00  1.0000000E+00
</event>
<event>
9 100 1.0000000E+00 1.0000000E+03 7.8125000E-03 0.0000000E+00
 21 -1  0  0 501 502  0.0000000E+00  0.0000000E+00  1.8166670E+02  1.8166670E+02  0.0000000E+00  0.0000000E+00  1.0000000E+00
 21 -1  0  0 502 501  0.0000000E+00  0.0000000E+00 -1.3719065E+03  1.3719065E+03  0.0000000E+00  0.0000000E+00  1.0000000E+00
 39  2  1  2   0   0 -6.2527761E-13  2.7853275E-12 -1.1902398E+03  1.5535732E+03  9.9845828E+02  0.0000000E+00  1.0000000E+00
 23  2  3  3   0   0 -6.8642015E+01  3.0086497E+02 -1.1893250E+03  1.2320488E+03  9.0657441E+01  0.0000000E+00  1.0000000E+00
 23  2  3  3   0   0  6.8642015E+01 -3.0086497E+02 -9.1481099E-01  3.2152444E+02  9.0253357E+01  0.0000000E+00  1.0000000E+00
-11  1  4  4   0   0 -6.9979341E+01  1.0794128E+02 -4.6343791E+02  4.8096063E+02  2.4126264E-05  0.0000000E+00  1.0000000E+00
 11  1  4  4   0   0  1.3373255E+00  1.9292370E+02 -7.2588711E+02  7.5108816E+02  1.2063132E-05  0.0000000E+00  1.0000000E+00
-13  1  5  5   0   0  6.2304501E+01 -2.7391142E+02 -2.8611222E+01  2.8236132E+02  2.3602235E-06  0.0000000E+00  1.0000000E+00
 13  1  5  5   0   0  6.3375146E+00 -2.6953558E+01  2.7696411E+01  3.9163115E+01  1.1319234E-05  0.0000000E+00  1.0000000E+00
</event>
<event>
9 100 1.0000000E+00 1.0000000E+03 7.8125000E-03 0.0000000E+00
 21 -1  0  0 501 502  0.0000000E+00  0.0000000E+00  7.6348626E+02  7.6348626E+02  0.0000000E+00  0.0000000E+00  1.0000000E+00
 21 -1  0  0 502 501  0.0000000E+00  0.0000000E+00 -3.3080781E+02  3.3080781E+02  0.0000000E+00  0.0000000E+00  1.0000000E+00
 39  2  1  2   0   0 -4.2632564E-13 -7.9580786E-13  4.3267845E+02  1.0942941E+03  1.0051213E+03  0.0000000E+00  1.0000000E+00
 23  2  3  3   0   0  1.3910482E+02  2.4752977E+02  6.5648626E+02  7.2146651E+02  9.4438203E+01  0.0000000E+00  1.0000000E+00
 23  2  3  3   0   0 -1.3910482E+02 -2.4752977E+02 -2.2380781E+02  3.7282757E+02  9.1045689E+01  0.0000000E+00  1.0000000E+00
-11  1  4  4   0   0  1.5036616E+02  2.3749257E+02  5.9351546E+02  6.5671402E+02  2.5231851E-06  0.0000000E+00  1.0000000E+00
 11  1  4  4   0   0 -1.1261341E+01  1.0037208E+01  6.2970799E+01  6.4752489E+01  1.3214499E-05  0.0000000E+00  1.0000000E+00
-13  1  5  5   0   0 -1.5023254E+02 -2.0897812E+02 -1.8464141E+02  3.1675562E+02  3.5683226E-06  0.0000000E+00  1.0000000E+00
 13  1  5  5   0   0  1.1127723E+01 -3.8551658E+01 -3.9166400E+01  5.6071949E+01  1.2361032E-05  0.0000000E+00  1.0000000E+00
</event>
<event>
9 100 1.0000000E+00 1.0000000E+03 7.8125000E-03 0.0000000E+00
 21 -1  0  0 501 502  0.0000000E+00  0.0000000E+00  2.4438338E+03  2.4438338E+03  0.0000000E+00  0.0000000E+00  1.0000000E+00
 21 -1  0  0 502 501  0.0000000E+00  0.0000000E+00 -1.0130807E+02  1.0130807E+02  0.0000000E+00  0.0000000E+00  1.0000000E+00
 39  2  1  2   0   0 -7.6738615E-13  1.7763568E-15  2.3425257E+03  2.5451419E+03  9.9514841E+02  0.0000000E+00  1.0000000E+00
 23  2  3  3   0   0 -1.6072875E+02  3.6435026E-01 -1.0391195E+01  1.8503410E+02  9.1081160E+01  0.0000000E+00  1.0000000E+00
 23  2  3  3   0   0  1.6072875E+02 -3.6435026E-01  2.3529169E+03  2.3601078E+03  8.9759588E+01  0.0000000E+00  1.0000000E+00
-11  1  4  4   0   0 -1.6883852E+01 -4.3837431E+00  3.0743856E+01  3.5347791E+01  8.6358882E-06  0.0000000E+00  1.0000000E+00
 11  1  4  4   0   0 -1.4384490E+02  4.7480933E+00 -4.1135050E+01  1.4968631E+02  3.7546195E-06  0.0000000E+00  1.0000000E+00
-13  1  5  5   0   0  1.4367308E+02 -2.1235556E+01  1.5635250E+03  1.5702558E+03  1.5258789E-05  0.0000000E+00  1.0000000E+00
 13  1  5  5   0   0  1.7055665E+01  2.0871206E+01  7.8939191E+02  7.8985194E+02  0.0000000E+00  0.0000000E+00  1.0000000E+00
</event>
<event>
9 100 1.0000000E+00 1.0000000E+03 7.8125000E-03 0.0000000E+00
 21 -1  0  0 501 502  0.0000000E+00  0.0000000E+00  1.8161763E+03  1.8161763E+03  0.0000000E+00  0.0000000E+00  1.0000000E+00
 21 -1  0  0 502 501  0.0000000E+00  0.0000000E+00 -1.3852494E+02  1.3852494E+02  0.0000000E+00  0.0000000E+00  1.0000000E+00
 39  2  1  2   0   0 -1.1368684E-13  1.1368684E-13  1.6776514E+03  1.9547013E+03  1.0031664E+03  0.0000000E+00  1.0000000E+00
 23  2  3  3   0   0  1.1823361E+02 -1.5197603E+02  1.7237635E+03  1.7368622E+03  9.0850736E+01  0.0000000E+00  1.0000000E+00
 23  2  3  3   0   0 -1.1823361E+02  1.5197603E+02 -4.6112060E+01  2.1783910E+02  9.0838604E+01  0.0000000E+00  1.0000000E+00
-11  1  4  4   0   0  3.0081026E+01 -5.4603454E+01  9.4885306E+02  9.5089881E+02  1.5258789E-05  0.0000000E+00  1.0000000E+00
 11  1  4  4   0   0  8.8152584E+01 -9.7372573E+01  7.7491040E+02  7.8596338E+02  3.0517578E-05  0.0000000E+00  1.0000000E+00
-13  1  5  5   0   0 -1.2921568E+02  1.3499906E+02 -5.6338629E+01  1.9518063E+02  1.8000208E-06  0.0000000E+00  1.0000000E+00
 13  1  5  5   0   0  1.0982073E+01  1.6976972E+01  1.0226569E+01  2.2658469E+01  7.0080464E-06  0.0000000E+00  1.0000000E+00
</event>
<event>
9 100 1.0000000E+00 1.0000000E+03 7.8125000E-03 0.0000000E+00
 21 -1  0  0 501 502  0.0000000E+00  0.0000000E+00  7.1793239E+02  7.1793239E+02  0.0000000E+00  0.0000000E+00  1.0000000E+00
 21 -1  0  0 502 501  0.0000000E+00  0.0000000E+00 -3.5030975E+02  3.5030975E+02  0.0000000E+00  0.0000000E+00  1.0000000E+00
 39  2  1  2   0   0  4.5474735E-13 -7.9580786E-13  3.6762263E+02  1.0682421E+03  1.0029930E+03  0.0000000E+00  1.0000000E+00
 23  2  3  3   0   0 -2.5814669E+02  3.6040683E+02 -4.6585363E+01  4.5480135E+02  9.0229013E+01  0.0000000E+00  1.0000000E+00
 23  2  3  3   0   0  2.5814669E+02 -3.6040683E+02  4.1420799E+02  6.1344079E+02  9.0601026E+01  0.0000000E+00  1.0000000E+00
-11  1  4  4   0   0 -6.4901547E+00  5.6238271E+01 -1.6058323E+01  5.8845009E+01  1.8384531E-05  0.0000000E+00  1.0000000E+00
 11  1  4  4   0   0 -2.5165654E+02  3.0416856E+02 -3.0527040E+01  3.9595634E+02  3.9103554E-06  0.0000000E+00  1.0000000E+00
-13  1  5  5   0   0  2.8998025E+01 -1.0306265E+02  8.2698952E+01  1.3528456E+02  1.9073486E-05  0.0000000E+00  1.0000000E+00
 13  1  5  5   0   0  2.2914867E+02 -2.5734418E+02  3.3150904E+02  4.7815623E+02  4.1569700E-06  0.0000000E+00  1.0000000E+00
</event>
<event>
9 100 1.0000000E+00 1.0000000E+03 7.8125000E-03 0.0000000E+00
 21 -1  0  0 501 502  0.0000000E+00  0.0000000E+00  8.2064721E+02  8.2064721E+02  0.0000000E+00  0.0000000E+00  1.0000000E+00
 21 -1  0  0 502 501  0.0000000E+00  0.0000000E+00 -3.0919044E+02  3.0919044E+02  0.0000000E+00  0.0000000E+00  1.0000000E+00
 39  2  1  2   0   0 -5.1159077E-13 -4.5474735E-13  5.1145678E+02  1.1298376E+03  1.0074448E+03  0.0000000E+00  1.0000000E+00
 23  2  3  3   0   0  3.4668471E+02  3.4496139E+02  1.6803484E+02  5.2518108E+02  9.1601390E+01  0.0000000E+00  1.0000000E+00
 23  2  3  3   0   0 -3.4668471E+02 -3.4496139E+02  3.4342194E+02  6.0465657E+02  9.2099330E+01  0.0000000E+00  1.0000000E+00
-11  1  4  4   0   0  2.9864575E+02  2.6063541E+02  1.0713750E+02  4.1060753E+02  2.6117447E-06  0.0000000E+00  1.0000000E+00
 11  1  4  4   0   0  4.8038954E+01  8.4325979E+01  6.0897340E+01  1.1457355E+02  1.4145276E-05  0.0000000E+00  1.0000000E+00
-13  1  5  5   0   0 -1.1573737E+01 -3.9208458E+01  1.1224684E+01  4.2393963E+01  5.3947966E-06  0.0000000E+00  1.0000000E+00
 13  1  5  5   0   0 -3.3511097E+02 -3.0575294E+02  3.3219725E+02  5.6226260E+02  2.1556784E-06  0.0000000E+00  1.0000000E+00
</event>
<event>
9 100 1.0000000E+00 1.0000000E+03 7.8125000E-03 0.0000000E+00
 21 -1  0  0 501 502  0.0000000E+00  0.0000000E+00  3.4712636E+02  3.4712636E+02  0.0000000E+00  0.0000000E+00  1.0000000E+00
 21 -1  0  0 502 501  0.0000000E+00  0.0000000E+00 -7.2317527E+02  7.2317527E+02  0.0000000E+00  0.0000000E+00  1.0000000E+00
 39  2  1  2   0   0  9.3791641E-13 -1.8189894E-12 -3.7604891E+02  1.0703016E+03  1.0020643E+03  0.0000000E+00  1.0000000E+00
 23  2  3  3   0   0 -2.0400477E+02  3.9735780E+02  3.4523782E+01  4.5667821E+02  8.8611091E+01  0.0000000E+00  1.0000000E+00
 23  2  3  3   0   0  2.0400477E+02 -3.9735780E+02 -4.1057269E+02  6.1362343E+02  9.1938082E+01  0.0000000E+00  1.0000000E+00
-11  1  4  4   0   0 -4.8001672E+01  7.5149978E+01  4.2100069E+01  9.8610828E+01  8.7896139E-06  0.0000000E+00  1.0000000E+00
 11  1  4  4   0   0 -1.5600310E+02  3.2220782E+02 -7.5762870E+00  3.5806738E+02  2.6973983E-06  0.0000000E+00  1.0000000E+00
-13  1  5  5   0   0  2.7893015E+01 -1.6024558E+01 -5.3006605E+01  6.2004088E+01  1.2651920E-05  0.0000000E+00  1.0000000E+00
 13  1  5  5   0   0  1.7611176E+02 -3.8133324E+02 -3.5756608E+02  5.5161934E+02  6.7434958E-07  0.0000000E+00  1.0000000E+00
</event>
<event>
9 100 1.0000000E+00 1.0000000E+03 7.8125000E-03 0.0000000E+00
 21 -1  0  0 501 502  0.0000000E+00  0.0000000E+00  1.2874484E+02  1.2874484E+02  0.0000000E+00  0.0000000E+00  1.0000000E+00
 21 -1  0  0 502 501  0.0000000E+00  0.0000000E+00 -1.7019555E+03  1.7019555E+03  0.0000000E+00  0.0000000E+00  1.0000000E+00
 39  2  1  2   0   0 -3.9790393E-13  2.2737368E-13 -1.5732106E+03  1.8307003E+03  9.3620078E+02  0.0000000E+00  1.0000000E+00
 23  2  3  3   0   0 -1.9966429E+02  1.1156294E+02 -1.5654607E+03  1.5849641E+03  9.5560925E+01  0.0000000E+00  1.0000000E+00
 23  2  3  3   0   0  1.9966429E+02 -1.1156294E+02 -7.7499731E+00  2.4573624E+02  8.9521631E+01  0.0000000E+00  1.0000000E+00
-11  1  4  4   0   0 -5.8854266E+00  2.3450604E+01 -6.2678698E+01  6.7180267E+01  3.7376247E-05  0.0000000E+00  1.0000000E+00
 11  1  4  4   0   0 -1.9377886E+02  8.8112332E+01 -1.5027820E+03  1.5177838E+03  1.6518124E-06  0.0000000E+00  1.0000000E+00
-13  1  5  5   0   0  1.4436419E+02 -3.1308189E+01 -1.1792350E+01  1.4819001E+02  7.8797701E-06  0.0000000E+00  1.0000000E+00
 13  1  5  5   0   0  5.5300099E+01 -8.0254747E+01  4.0423765E+00  9.7546226E+01  1.1083259E-05  0.0000000E+00  1.0000000E+00
</event>
<event>
9 100 1.0000000E+00 1.0000000E+03 7.8125000E-03 0.0000000E+00
 21 -1  0  0 501 502  0.0000000E+00  0.0000000E+00  1.1272748E+03  1.1272748E+03  0.0000000E+00  0.0000000E+00  1.0000000E+00
 21 -1  0  0 502 501  0.0000000E+00  0.0000000E+00 -2.2491432E+02  2.2491432E+02  0.0000000E+00  0.0000000E+00  1.0000000E+00
 39  2  1  2   0   0 -2.1600499E-12 -3.0695446E-12  9.0236053E+02  1.3521892E+03  1.0070556E+03  0.0000000E+00  1.0000000E+00
 23  2  3  3   0   0 -2.7859299E+02 -3.9226849E+02  6.0840313E+02  7.8094389E+02  9.0721370E+01  0.0000000E+00  1.0000000E+00
 23  2  3  3   0   0  2.7859299E+02  3.9226849E+02  2.9395739E+02  5.7124528E+02  9.1769237E+01  0.0000000E+00  1.0000000E+00
-11  1  4  4   0   0 -1.3719721E+02 -1.3021968E+02  1.9722177E+02  2.7327031E+02  5.3947966E-06  0.0000000E+00  1.0000000E+00
 11  1  4  4   0   0 -1.4139578E+02 -2.6204882E+02  4.1118136E+02  5.0767358E+02  5.3947966E-06  0.0000000E+00  1.0000000E+00
-13  1  5  5   0   0  2.8657131E+01  5.9771128E+01  8.6636910E+00  6.6849671E+01  1.3754087E-05  0.0000000E+00  1.0000000E+00
 13  1  5  5   0   0  2.4993586E+02  3.3249736E+02  2.8529370E+02  5.0439560E+02  1.5451290E-06  0.0000000E+00  1.0000000E+00
</event>
<event>
9 100 1.0000000E+00 1.0000000E+03 7.8125000E-03 0.0000000E+00
 21 -1  0  0 501 502  0.0000000E+00  0.0000000E+00  1.7332741E+03  1.7332741E+03  0.0000000E+00  0.0000000E+00  1.0000000E+00
 21 -1  0  0 502 501  0.0000000E+00  0.0000000E+00 -2.1869458E+02  2.1869458E+02  0.0000000E+00  0.0000000E+00  1.0000000E+00
 39  2  1  2   0   0 -1.7053026E-13 -1.4210855E-13  1.5145796E+03  1.9519687E+03  1.2313532E+03  0.0000000E+00  1.0000000E+00
 23  2  3  3   0   0 -2.3071403E+02 -1.9526794E+02 -8.0159556E+01  3.2541697E+02  9.0067302E+01  0.0000000E+00  1.0000000E+00
 23  2  3  3   0   0  2.3071403E+02  1.9526794E+02  1.5947391E+03  1.6265517E+03  1.0544754E+02  0.0000000E+00  1.0000000E+00
-11  1  4  4   0   0 -4.7375913E+01 -2.1283998E+01 -4.7830711E+01  7.0606392E+01  1.2980135E-05  0.0000000E+00  1.0000000E+00
 11  1  4  4   0   0 -1.8333811E+02 -1.7398394E+02 -3.2328846E+01  2.5481058E+02  5.5197892E-06  0.0000000E+00  1.0000000E+00
-13  1  5  5   0   0  3.4820824E+01  9.1625922E+01  5.3107766E+02  5.4004748E+02  0.0000000E+00  0.0000000E+00  1.0000000E+00
 13  1  5  5   0   0  1.9589320E+02  1.0364202E+02  1.0636615E+03  1.0865043E+03  7.6293945E-06  0.0000000E+00  1.0000000E+00
</event>
<event>
9 100 1.0000000E+00 1.0000000E+03 7.8125000E-03 0.0000000E+00
 21 -1  0  0 501 502  0.0000000E+00  0.0000000E+00  1.1433691E+02  1.1433691E+02  0.0000000E+00  0.0000000E+00  1.0000000E+00
 21 -1  0  0 502 501  0.0000000E+00  0.0000000E+00 -1.6826674E+03  1.6826674E+03  0.0000000E+00  0.0000000E+00  1.0000000E+00
 39  2  1  2   0   0 -3.2400749E-12 -1.0942358E-12 -1.5683304E+03  1.7970043E+03  8.7724796E+02  0.0000000E+00  1.0000000E+00
 23  2  3  3   0   0  1.3588420E+02  4.6078060E+01  4.3751849E+01  1.7599770E+02  9.2050324E+01  0.0000000E+00  1.0000000E+00
 23  2  3  3   0   0 -1.3588420E+02 -4.6078060E+01 -1.6120823E+03  1.6210066E+03  9.0913717E+01  0.0000000E+00  1.0000000E+00
-11  1  4  4   0   0  1.0227815E+02  5.7819000E+01 -2.6429654E+00  1.1751954E+02  5.1356934E-06  0.0000000E+00  1.0000000E+00
 11  1  4  4   0   0  3.3606044E+01 -1.1740939E+01  4.6394814E+01  5.8478155E+01  7.8707476E-06  0.0000000E+00  1.0000000E+00
-13  1  5  5   0   0 -3.3120443E+01  2.3096150E+01 -2.4304865E+02  2.4637988E+02  2.6428998E-05  0.0000000E+00  1.0000000E+00
 13  1  5  5   0   0 -1.0276375E+02 -6.9174211E+01 -1.3690336E+03  1.3746267E+03  2.6973983E-06  0.0000000E+00  1.0000000E+00
</event>
<event>
9 100 1.0000000E+00 1.0000000E+03 7.8125000E-03 0.0000000E+00
 21 -1  0  0 501 502  0.0000000E+00  0.0000000E+00  9.6382594E+01  9.6382594E+01  0.0000000E+00  0.0000000E+00  1.0000000E+00
 21 -1  0  0 502 501  0.0000000E+00  0.0000000E+00 -2.6764507E+03  2.6764507E+03  0.0000000E+00  0.0000000E+00  1.0000000E+00
 39  2  1  2   0   0  6.3380412E-12  4.7073456E-13 -2.5800681E+03  2.7728333E+03  1.0158017E+03  0.0000000E+00  1.0000000E+00
 23  2  3  3   0   0  1.7018301E+02  1.2355505E+01 -1.0168643E+01  1.9574411E+02  9.5380492E+01  0.0000000E+00  1.0000000E+00
 23  2  3  3   0   0 -1.7018301E+02 -1.2355505E+01 -2.5698994E+03  2.5770892E+03  8.8828520E+01  0.0000000E+00  1.0000000E+00
-11  1  4  4   0   0  1.7532858E+02  1.5627936E+01 -2.6779677E+01  1.7804913E+02  3.3717479E-07  0.0000000E+00  1.0000000E+00
 11  1  4  4   0   0 -5.1455670E+00 -3.2724305E+00  1.6611033E+01  1.7694974E+01  9.5367432E-07  0.0000000E+00  1.0000000E+00
-13  1  5  5   0   0 -1.6573795E+01  2.5343911E+01 -2.5483269E+02  2.5662562E+02  0.0000000E+00  0.0000000E+00  1.0000000E+00
 13  1  5  5   0   0 -1.5360922E+02 -3.7699416E+01 -2.3150667E+03  2.3204635E+03  1.1444092E-05  0.0000000E+00  1.0000000E+00
</event>
<event>
9 100 1.0000000E+00 1.0000000E+03 7.8125000E-03 0.0000000E+00
 21 -1  0  0 501 502  0.0000000E+00  0.0000000E+00  2.2518524E+02  2.2518524E+02  0.0000000E+00  0.0000000E+00  1.0000000E+00
 21 -1  0  0 502 501  0.0000000E+00  0.0000000E+00 -1.0941738E+03  1.0941738E+03  0.0000000E+00  0.0000000E+00  1.0000000E+00
 39  2  1  2   0   0 -8.1001872E-13  2.9132252E-13 -8.6898860E+02  1.3193591E+03  9.9275738E+02  0.0000000E+00  1.0000000E+00
 23  2  3  3   0   0 -9.0610865E+01  3.3525517E+01 -1.0705255E+03  1.0785382E+03  8.8800081E+01  0.0000000E+00  1.0000000E+00
 23  2  3  3   0   0  9.0610865E+01 -3.3525517E+01  2.0153694E+02  2.4082088E+02  8.9684266E+01  0.0000000E+00  1.0000000E+00
-11  1  4  4   0   0 -4.5582776E+01  5.3682852E+01 -8.3135741E+02  8.3433493E+02  9.3440618E-06  0.0000000E+00  1.0000000E+00
 11  1  4  4   0   0 -4.5028089E+01 -2.0157335E+01 -2.3916813E+02  2.4420328E+02  1.0789593E-05  0.0000000E+00  1.0000000E+00
-13  1  5  5   0   0  9.4307944E+01 -6.2157066E+00  1.0900937E+02  1.4427636E+02  8.2038167E-06  0.0000000E+00  1.0000000E+00
 13  1  5  5   0   0 -3.6970788E+00 -2.7309810E+01  9.2527566E+01  9.6544521E+01  1.1284027E-05  0.0000000E+00  1.0000000E+00
</event>
<event>
9 100 1.0000000E+00 1.0000000E+03 7.8125000E-03 0.0000000E+00
 21 -1  0  0 501 502  0.0000000E+00  0.0000000E+00  3.3782093E+02  3.3782093E+02  0.0000000E+00  0.0000000E+00  1.0000000E+00
 21 -1  0  0 502 501  0.0000000E+00  0.0000000E+00 -7.6501524E+02  7.6501524E+02  0.0000000E+00  0.0000000E+00  1.0000000E+00
 39  2  1  2   0   0  0.0000000E+00  1.1368684E-13 -4.2719431E+02  1.1028362E+03  1.0167363E+03  0.0000000E+00  1.0000000E+00
 23  2  3  3   0   0 -3.7704862E+02  3.2866121E+02 -2.1135918E+02  5.5067831E+02  9.1597234E+01  0.0000000E+00  1.0000000E+00
 23  2  3  3   0   0  3.7704862E+02 -3.2866121E+02 -2.1583514E+02  5.5215786E+02  9.0053558E+01  0.0000000E+00  1.0000000E+00
-11  1  4  4   0   0  4.8592261E-01  2.2140848E+01 -7.5570321E+00  2.3400043E+01  8.5299224E-06  0.0000000E+00  1.0000000E+00
 11  1  4  4   0   0 -3.7753454E+02  3.0652036E+02 -2.0380215E+02  5.2727827E+02  2.3707368E-06  0.0000000E+00  1.0000000E+00
-13  1  5  5   0   0  8.6063674E+01 -1.1733335E+02 -9.0276543E+01  1.7124230E+02  1.9775812E-05  0.0000000E+00  1.0000000E+00
 13  1  5  5   0   0  2.9098494E+02 -2.1132785E+02 -1.2555859E+02  3.8091555E+02  7.8061607E-06  0.0000000E+00  1.0000000E+00
</event>
<event>
9 100 1.0000000E+00 1.0000000E+03 7.8125000E-03 0.0000000E+00
 21 -1  0  0 501 502  0.0000000E+00  0.0000000E+00  3.6510457E+02  3.6510457E+02  0.0000000E+00  0.0000000E+00  1.0000000E+00
 21 -1  0  0 502 501  0.0000000E+00  0.0000000E+00 -6.8795359E+02  6.8795359E+02  0.0000000E+00  0.0000000E+00  1.0000000E+00
 39  2  1  2   0   0  3.6948222E-13  2.3305802E-12 -3.2284902E+02  1.0530582E+03  1.0023473E+03  0.0000000E+00  1.0000000E+00
 23  2  3  3   0   0 -3.8042413E+01 -2.3052269E+02 -6.1732050E+02  6.6630529E+02  9.1050567E+01  0.0000000E+00  1.0000000E+00
 23  2  3  3   0   0  3.8042413E+01  2.3052269E+02  2.9447148E+02  3.8675288E+02  9.0974716E+01  0.0000000E+00  1.0000000E+00
-11  1  4  4   0   0  1.0499219E+01 -1.4694737E+02 -2.9396696E+02  3.2881657E+02  3.8146973E-06  0.0000000E+00  1.0000000E+00
 11  1  4  4   0   0 -4.8541633E+01 -8.3575313E+01 -3.2335354E+02  3.3748872E+02  0.0000000E+00  0.0000000E+00  1.0000000E+00
-13  1  5  5   0   0  6.0828347E+01  2.0089003E+02  2.2395177E+02  3.0693857E+02  3.8146973E-06  0.0000000E+00  1.0000000E+00
 13  1  5  5   0   0 -2.2785934E+01  2.9632656E+01  7.0519716E+01  7.9814306E+01  1.1444092E-05  0.0000000E+00  1.0000000E+00
</event>
<event>
9 100 1.0000000E+00 1.0000000E+03 7.8125000E-03 0.0000000E+00
 21 -1  0  0 501 502  0.0000000E+00  0.0000000E+00  9.4190754E+02  9.4190754E+02  0.0000000E+00  0.0000000E+00  1.0000000E+00
 21 -1  0  0 502 501  0.0000000E+00  0.0000000E+00 -2.7198565E+02  2.7198565E+02  0.0000000E+00  0.0000000E+00  1.0000000E+00
 39  2  1  2   0   0  0.0000000E+00  0.0000000E+00  6.6992189E+02  1.2138932E+03  1.0122951E+03  0.0000000E+00  1.0000000E+00
 23  2  3  3   0   0 -4.5838660E+02 -1.4978909E+02  1.8673957E+02  5.2512405E+02  9.1260901E+01  0.0000000E+00  1.0000000E+00
 23  2  3  3   0   0  4.5838660E+02  1.4978909E+02  4.8318232E+02  6.8876914E+02  9.1557226E+01  0.0000000E+00  1.0000000E+00
-11  1  4  4   0   0 -3.7137200E+02 -1.4055616E+02  1.1919717E+02  4.1458553E+02  4.0460975E-06  0.0000000E+00  1.0000000E+00
 11  1  4  4   0   0 -8.7014603E+01 -9.2329286E+00  6.7542408E+01  1.1053852E+02  1.7739368E-05  0.0000000E+00  1.0000000E+00
-13  1  5  5   0   0  3.1520276E+02  5.7593335E+01  3.0779471E+02  4.4430548E+02  1.1284027E-05  0.0000000E+00  1.0000000E+00
 13  1  5  5   0   0  1.4318384E+02  9.2195752E+01  1.7538760E+02  2.4446366E+02  1.9451216E-05  0.0000000E+00  1.0000000E+00
</event>
<event>
9 100 1.0000000E+00 1.0000000E+03 7.8125000E-03 0.0000000E+00
 21 -1  0  0 501 502  0.0000000E+00  0.0000000E+00  3.6894398E+02  3.6894398E+02  0.0000000E+00  0.0000000E+00  1.0000000E+00
 21 -1  0  0 502 501  0.0000000E+00  0.0000000E+00 -6.8159979E+02  6.8159979E+02  0.0000000E+00  0.0000000E+00  1.0000000E+00
 39  2  1  2   0   0  6.8212103E-13 -8.5265128E-13 -3.1265581E+02  1.0505438E+03  1.0029400E+03  0.0000000E+00  1.0000000E+00
 23  2  3  3   0   0 -3.3726658E+02  3.5412010E+02 -8.8301345E+01  5.0502425E+02  9.0014276E+01  0.0000000E+00  1.0000000E+00
 23  2  3  3   0   0  3.3726658E+02 -3.5412010E+02 -2.2435446E+02  5.4551952E+02  9.0037939E+01  0.0000000E+00  1.0000000E+00
-11  1  4  4   0   0 -2.5586846E+02  3.0931212E+02 -5.0016343E+01  4.0452972E+02  3.4385216E-06  0.0000000E+00  1.0000000E+00
 11  1  4  4   0   0 -8.1398124E+01  4.4807980E+01 -3.8285002E+01  1.0049453E+02  2.6973983E-06  0.0000000E+00  1.0000000E+00
-13  1  5  5   0   0  2.0290349E+02 -1.5261771E+02 -9.6163699E+01  2.7149484E+02  7.6293945E-06  0.0000000E+00  1.0000000E+00
 13  1  5  5   0   0  1.3436309E+02 -2.0150239E+02 -1.2819076E+02  2.7402468E+02  1.0873560E-05  0.0000000E+00  1.0000000E+00
</event>
<event>
9 100 1.0000000E+00 1.0000000E+03 7.8125000E-03 0.0000000E+00
 21 -1  0  0 501 502  0.0000000E+00  0.0000000E+00  2.1045838E+02  2.1045838E+02  0.0000000E+00  0.0000000E+00  1.0000000E+00
 21 -1  0  0 502 501  0.0000000E+00  0.0000000E+00 -1.1745980E+03  1.1745980E+03  0.0000000E+00  0.0000000E+00  1.0000000E+00
 39  2  1  2   0   0  5.6843419E-14 -1.1368684E-13 -9.6413962E+02  1.3850564E+03  9.9439227E+02  0.0000000E+00  1.0000000E+00
 23  2  3  3   0   0  2.2948410E+02 -3.5444217E+02 -1.3795963E+02  4.5401378E+02  9.3826682E+01  0.0000000E+00  1.0000000E+00
 23  2  3  3   0   0 -2.2948410E+02  3.5444217E+02 -8.2617999E+02  9.3104261E+02  7.7296522E+01  0.0000000E+00  1.0000000E+00
-11  1  4  4   0   0  5.5594435E+01 -1.2675041E+02 -5.8679002E+00  1.3853101E+02  8.7405695E-06  0.0000000E+00  1.0000000E+00
 11  1  4  4   0   0  1.7388966E+02 -2.2769176E+02 -1.3209173E+02  3.1548277E+02  4.3113569E-06  0.0000000E+00  1.0000000E+00
-13  1  5  5   0   0 -2.0205199E+02  3.3097296E+02 -7.0509915E+02  8.0469430E+02  3.0157830E-06  0.0000000E+00  1.0000000E+00
 13  1  5  5   0   0 -2.7432110E+01  2.3469218E+01 -1.2108084E+02  1.2634831E+02  1.8688124E-05  0.0000000E+00  1.0000000E+00
</event>
<event>
9 100 1.0000000E+00 1.0000000E+03 7.8125000E-03 0.0000000E+00
 21 -1  0  0 501 502  0.0000000E+00  0.0000000E+00  3.2311804E+02  3.2311804E+02  0.0000000E+00  0.0000000E+00  1.0000000E+00
 21 -1  0  0 502 501  0.0000000E+00  0.0000000E+00 -7.6774231E+02  7.6774231E+02  0.0000000E+00  0.0000000E+00  1.0000000E+00
 39  2  1  2   0   0 -5.4001248E-13  1.1368684E-13 -4.4462428E+02  1.0908603E+03  9.9613531E+02  0.0000000E+00  1.0000000E+00
 23  2  3  3   0   0  2.3723639E+02 -5.1596631E+01  2.4359584E+02  3.5569340E+02  9.0749893E+01  0.0000000E+00  1.0000000E+00
 23  2  3  3   0   0 -2.3723639E+02  5.1596631E+01 -6.8822012E+02  7.3516695E+02  8.8770430E+01  0.0000000E+00  1.0000000E+00
-11  1  4  4   0   0  2.0335891E+02 -9.3368143E+00  2.0698261E+02  2.9031676E+02  1.8467824E-06  0.0000000E+00  1.0000000E+00
 11  1  4  4   0   0  3.3877480E+01 -4.2259817E+01  3.6613233E+01  6.5376637E+01  5.3947966E-06  0.0000000E+00  1.0000000E+00
-13  1  5  5   0   0 -5.7496348E+01  1.7944075E+01 -3.0064281E+02  3.0661690E+02  5.3947966E-06  0.0000000E+00  1.0000000E+00
 13  1  5  5   0   0 -1.7974004E+02  3.3652556E+01 -3.8757730E+02  4.2855005E+02  6.6072495E-06  0.0000000E+00  1.0000000E+00
</event>
<event>
9 100 1.0000000E+00 1.0000000E+03 7.8125000E-03 0.0000000E+00
 21 -1  0  0 501 502  0.0000000E+00  0.0000000E+00  4.2404687E+02  4.2404687E+02  0.0000000E+00  0.0000000E+00  1.0000000E+00
 21 -1  0  0 502 501  0.0000000E+00  0.0000000E+00 -6.2663349E+02  6.2663349E+02  0.0000000E+00  0.0000000E+00  1.0000000E+00
 39  2  1  2   0   0 -1.2789769E-13  1.0231815E-12 -2.0258663E+02  1.0506804E+03  1.0309645E+03  0.0000000E+00  1.0000000E+00
 23  2  3  3   0   0 -3.9463632E+01  2.7619667E+02  3.3030869E+02  4.4211476E+02  9.2301959E+01  0.0000000E+00  1.0000000E+00
 23  2  3  3   0   0  3.9463632E+01 -2.7619667E+02 -5.3289532E+02  6.0856560E+02  9.2372585E+01  0.0000000E+00  1.0000000E+00
-11  1  4  4   0   0 -2.9677212E+01  2.7969754E+02  3.0573794E+02  4.1543608E+02  2.2110029E-06  0.0000000E+00  1.0000000E+00
 11  1  4  4   0   0 -9.7864204E+00 -3.5008686E+00  2.4570752E+01  2.6678680E+01  1.5258789E-05  0.0000000E+00  1.0000000E+00
-13  1  5  5   0   0  9.5423300E+00 -1.7575304E+02 -4.1521691E+02  4.5098256E+02  2.3360155E-06  0.0000000E+00  1.0000000E+00
 13  1  5  5   0   0  2.9921302E+01 -1.0044363E+02 -1.1767840E+02  1.5758304E+02  9.3440618E-06  0.0000000E+00  1.0000000E+00
</event>
<event>
9 100 1.0000000E+00 1.0000000E+03 7.8125000E-03 0.0000000E+00
 21 -1  0  0 501 502  0.0000000E+00  0.0000000E+00  3.3014629E+02  3.3014629E+02  0.0000000E+00  0.0000000E+00  1.0000000E+00
 21 -1  0  0 502 501  0.0000000E+00  0.0000000E+00 -7.7254046E+02  7.7254046E+02  0.0000000E+00  0.0000000E+00  1.0000000E+00
 39  2  1  2   0   0  2.7355895E-13  2.3021585E-12 -4.4239418E+02  1.1026868E+03  1.0100522E+03  0.0000000E+00  1.0000000E+00
 23  2  3  3   0   0  2.7895516E+01  2.2795828E+02 -7.0192696E+02  7.4397893E+02  8.9777799E+01  0.0000000E+00  1.0000000E+00
 23  2  3  3   0   0 -2.7895516E+01 -2.2795828E+02  2.5953278E+02  3.5870782E+02  9.2579159E+01  0.0000000E+00  1.0000000E+00
-11  1  4  4   0   0  3.8585348E+00 -5.2513287E+00 -6.4080292E+01  6.4410780E+01  7.6293945E-06  0.0000000E+00  1.0000000E+00
 11  1  4  4   0   0  2.4036981E+01  2.3320961E+02 -6.3784667E+02  6.7956815E+02  1.6518124E-06  0.0000000E+00  1.0000000E+00
-13  1  5  5   0   0 -5.4322151E+00 -7.8961758E+01  1.5887703E+02  1.7750036E+02  7.3871295E-06  0.0000000E+00  1.0000000E+00
 13  1  5  5   0   0 -2.2463301E+01 -1.4899652E+02  1.0065575E+02  1.8120746E+02  6.3259598E-06  0.0000000E+00  1.0000000E+00
</event>
<event>
9 100 1.0000000E+00 1.0000000E+03 7.8125000E-03 0.0000000E+00
 21 -1  0  0 501 502  0.0000000E+00  0.0000000E+00  7.8806741E+02  7.8806741E+02  0.0000000E+00  0.0000000E+00  1.0000000E+00
 21 -1  0  0 502 501  0.0000000E+00  0.0000000E+00 -3.1591427E+02  3.1591427E+02  0.0000000E+00  0.0000000E+00  1.0000000E+00
 39  2  1  2   0   0  0.0000000E+00  1.4210855E-14  4.7215314E+02  1.1039817E+03  9.9792131E+02  0.0000000E+00  1.0000000E+00
 23  2  3  3   0   0  3.6010372E+02  6.3007648E+01  5.9766771E+02  7.0608425E+02  8.7770302E+01  0.0000000E+00  1.0000000E+00
 23  2  3  3   0   0 -3.6010372E+02 -6.3007648E+01 -1.2551456E+02  3.9789743E+02  9.4465890E+01  0.0000000E+00  1.0000000E+00
-11  1  4  4   0   0  2.8591604E+01  3.1090999E+01  5.4660782E+01  6.9079166E+01  1.5258789E-05  0.0000000E+00  1.0000000E+00
 11  1  4  4   0   0  3.3151211E+02  3.1916649E+01  5.4300693E+02  6.3700508E+02  0.0000000E+00  0.0000000E+00  1.0000000E+00
-13  1  5  5   0   0 -1.8437984E+02  6.8472530E+00 -3.3208367E+01  1.8747161E+02  7.5092391E-06  0.0000000E+00  1.0000000E+00
 13  1  5  5   0   0 -1.7572388E+02 -6.9854901E+01 -9.2306196E+01  2.1042581E+02  5.4991544E-06  0.0000000E+00  1.0000000E+00
</event>
<event>
9 100 1.0000000E+00 1.0000000E+03 7.8125000E-03 0.0000000E+00
 21 -1  0  0 501 502  0.0000000E+00  0.0000000E+00  8.2717053E+02  8.2717053E+02  0.0000000E+00  0.0000000E+00  1.0000000E+00
 21 -1  0  0 502 501  0.0000000E+00  0.0000000E+00 -3.0584273E+02  3.0584273E+02  0.0000000E+00  0.0000000E+00  1.0000000E+00
 39  2  1  2   0   0 -1.1937118E-12  1.5631940E-13  5.2132780E+02  1.1330133E+03  1.0059505E+03  0.0000000E+00  1.0000000E+00
 23  2  3  3   0   0  3.0568033E+02 -3.9504349E+01  6.9642938E+02  7.6720817E+02  9.2700835E+01  0.0000000E+00  1.0000000E+00
 23  2  3  3   0   0 -3.0568033E+02  3.9504349E+01 -1.7510158E+02  3.6580509E+02  9.0287042E+01  0.0000000E+00  1.0000000E+00
-11  1  4  4   0   0  1.1195294E+02 -4.9474666E+01  2.0336921E+02  2.3736099E+02  9.3440618E-06  0.0000000E+00  1.0000000E+00
 11  1  4  4   0   0  1.9372738E+02  9.9703174E+00  4.9306017E+02  5.2984718E+02  0.0000000E+00  0.0000000E+00  1.0000000E+00
-13  1  5  5   0   0 -5.8593973E+01  2.0364211E+01  5.6455996E-01  6.2034454E+01  7.8641999E-06  0.0000000E+00  1.0000000E+00
 13  1  5  5   0   0 -2.4708635E+02  1.9140138E+01 -1.7566614E+02  3.0377064E+02  2.5872403E-06  0.0000000E+00  1.0000000E+00
</event>
<event>
9 100 1.0000000E+00 1.0000000E+03 7.8125000E-03 0.0000000E+00
 21 -1  0  0 501 502  0.0000000E+00  0.0000000E+00  7.0680338E+02  7.0680338E+02  0.0000000E+00  0.0000000E+00  1.0000000E+00
 21 -1  0  0 502 501  0.0000000E+00  0.0000000E+00 -3.4568290E+02  3.4568290E+02  0.0000000E+00  0.0000000E+00  1.0000000E+00
 39  2  1  2   0   0  5.1159077E-13  2.8421709E-14  3.6112048E+02  1.0524863E+03  9.8859465E+02  0.0000000E+00  1.0000000E+00
 23  2  3  3   0   0 -4.4237486E+02 -4.3276594E+01 -2.6184356E+01  4.5466374E+02  9.2006048E+01  0.0000000E+00  1.0000000E+00
 23  2  3  3   0   0  4.4237486E+02  4.3276594E+01  3.8730484E+02  5.9782254E+02  9.9087703E+01  0.0000000E+00  1.0000000E+00
-11  1  4  4   0   0 -2.5912873E+02 -5.9716359E+01  1.4208018E+01  2.6629985E+02  9.5367432E-07  0.0000000E+00  1.0000000E+00
 11  1  4  4   0   0 -1.8324613E+02  1.6439765E+01 -4.0392374E+01  1.8836389E+02  1.9221920E-06  0.0000000E+00  1.0000000E+00
-13  1  5  5   0   0  4.4668346E+01  9.8732945E+00  8.7209032E+01  9.8479228E+01  1.2651920E-05  0.0000000E+00  1.0000000E+00
 13  1  5  5   0   0  3.9770652E+02  3.3403300E+01  3.0009581E+02  4.9934332E+02  9.5367432E-07  0.0000000E+00  1.0000000E+00
</event>
<event>
9 100 1.0000000E+00 1.0000000E+03 7.8125000E-03 0.0000000E+00
 21 -1  0  0 501 502  0.0000000E+00  0.0000000E+00  1.1856692E+02  1.1856692E+02  0.0000000E+00  0.0000000E+00  1.0000000E+00
 21 -1  0  0 502 501  0.0000000E+00  0.0000000E+00 -2.1245155E+03  2.1245155E+03  0.0000000E+00  0.0000000E+00  1.0000000E+00
 39  2  1  2   0   0 -1.5916157E-12  7.6738615E-13 -2.0059485E+03  2.2430824E+03  1.0037873E+03  0.0000000E+00  1.0000000E+00
 23  2  3  3   0   0  3.5305603E+02 -1.7236374E+02 -1.6696432E+03  1.7178079E+03  9.3797071E+01  0.0000000E+00  1.0000000E+00
 23  2  3  3   0   0 -3.5305603E+02  1.7236374E+02 -3.3630538E+02  5.2527447E+02  9.1946418E+01  0.0000000E+00  1.0000000E+00
-11  1  4  4   0   0  3.0116028E+02 -1.7008407E+02 -1.3310274E+03  1.3752309E+03  0.0000000E+00  0.0000000E+00  1.0000000E+00
 11  1  4  4   0   0  5.1895746E+01 -2.2796774E+00 -3.3861580E+02  3.4257704E+02  3.0517578E-05  0.0000000E+00  1.0000000E+00
-13  1  5  5   0   0 -2.9951183E+02  1.2537865E+02 -3.1119083E+02  4.4974090E+02  4.4220059E-06  0.0000000E+00  1.0000000E+00
 13  1  5  5   0   0 -5.3544197E+01  4.6985097E+01 -2.5114549E+01  7.5533575E+01  2.0893957E-05  0.0000000E+00  1.0000000E+00
</event>
<event>
9 100 1.0000000E+00 1.0000000E+03 7.8125000E-03 0.0000000E+00
 21 -1  0  0 501 502  0.0000000E+00  0.0000000E+00  2.5252147E+02  2.5252147E+02  0.0000000E+00  0.0000000E+00  1.0000000E+00
 21 -1  0  0 502 501  0.0000000E+00  0.0000000E+00 -9.9116418E+02  9.9116418E+02  0.0000000E+00  0.0000000E+00  1.0000000E+00
 39  2  1  2   0   0  3.1263880E-12 -7.4606987E-14 -7.3864271E+02  1.2436856E+03  1.0005803E+03  0.0000000E+00  1.0000000E+00
 23  2  3  3   0   0  3.9854591E+02 -9.9078324E+00 -7.2584543E+02  8.3307239E+02  9.0669763E+01  0.0000000E+00  1.0000000E+00
 23  2  3  3   0   0 -3.9854591E+02  9.9078324E+00 -1.2797286E+01  4.1061326E+02  9.7480602E+01  0.0000000E+00  1.0000000E+00
-11  1  4  4   0   0  3.5542816E+02 -2.6591439E+01 -5.8703540E+02  6.8676550E+02  4.2649612E-06  0.0000000E+00  1.0000000E+00
 11  1  4  4   0   0  4.3117754E+01  1.6683606E+01 -1.3881002E+02  1.4630689E+02  1.5258789E-05  0.0000000E+00  1.0000000E+00
-13  1  5  5   0   0 -2.2890349E+00  1.3505027E+01  3.0117350E+00  1.4024834E+01  1.2008820E-05  0.0000000E+00  1.0000000E+00
 13  1  5  5   0   0 -3.9625688E+02 -3.5971944E+00 -1.5809021E+01  3.9658843E+02  1.4410278E-06  0.0000000E+00  1.0000000E+00
</event>
<event>
9 100 1.0000000E+00 1.0000000E+03 7.8125000E-03 0.0000000E+00
 21 -1  0  0 501 502  0.0000000E+00  0.0000000E+00  5.9295257E+02  5.9295257E+02  0.0000000E+00  0.0000000E+00  1.0000000E+00
 21 -1  0  0 502 501  0.0000000E+00  0.0000000E+00 -4.2012920E+02  4.2012920E+02  0.0000000E+00  0.0000000E+00  1.0000000E+00
 39  2  1  2   0   0  1.7053026E-13  2.8421709E-14  1.7282338E+02  1.0130818E+03  9.9823181E+02  0.0000000E+00  1.0000000E+00
 23  2  3  3   0   0  3.8496852E+02  7.1992911E+01  3.8598906E+02  5.5765389E+02  9.2771610E+01  0.0000000E+00  1.0000000E+00
 23  2  3  3   0   0 -3.8496852E+02 -7.1992911E+01 -2.1316568E+02  4.5542788E+02  9.2688758E+01  0.0000000E+00  1.0000000E+00
-11  1  4  4   0   0  4.5800365E+01 -1.8277169E+00  9.1957927E+01  1.0274860E+02  5.3947966E-06  0.0000000E+00  1.0000000E+00
 11  1  4  4   0   0  3.3916815E+02  7.3820628E+01  2.9403113E+02  4.5490529E+02  4.6720309E-06  0.0000000E+00  1.0000000E+00
-13  1  5  5   0   0 -3.7523142E+02 -8.5020743E+01 -1.9603710E+02  4.3180747E+02  2.5678467E-06  0.0000000E+00  1.0000000E+00
 13  1  5  5   0   0 -9.7370981E+00  1.3027832E+01 -1.7128581E+01  2.3620410E+01  1.7271776E-05  0.0000000E+00  1.0000000E+00
</event>
<event>
9 100 1.0000000E+00 1.0000000E+03 7.8125000E-03 0.0000000E+00
 21 -1  0  0 501 502  0.0000000E+00  0.0000000E+00  1.3931257E+02  1.3931257E+02  0.0000000E+00  0.0000000E+00  1.0000000E+00
 21 -1  0  0 502 501  0.0000000E+00  0.0000000E+00 -1.7649407E+03  1.7649407E+03  0.0000000E+00  0.0000000E+00  1.0000000E+00
 39  2  1  2   0   0 -5.3717031E-12  9.7770680E-12 -1.6256281E+03  1.9042532E+03  9.9172260E+02  0.0000000E+00  1.0000000E+00
 23  2  3  3   0   0  2.1837852E+02 -3.9881565E+02 -4.7894755E+02  6.6680119E+02  9.2141027E+01  0.0000000E+00  1.0000000E+00
 23  2  3  3   0   0 -2.1837852E+02  3.9881565E+02 -1.1466805E+03  1.2374521E+03  9.8327099E+01  0.0000000E+00  1.0000000E+00
-11  1  4  4   0   0  2.1918155E+02 -4.0343461E+02 -4.7547991E+02  6.6096988E+02  4.6169559E-07  0.0000000E+00  1.0000000E+00
 11  1  4  4   0   0 -8.0303290E-01  4.6189585E+00 -3.4676376E+00  5.8313077E+00  5.3947966E-06  0.0000000E+00  1.0000000E+00
-13  1  5  5   0   0 -2.2228503E+02  3.5254352E+02 -9.9318014E+02  1.0770814E+03  3.8146973E-06  0.0000000E+00  1.0000000E+00
 13  1  5  5   0   0  3.9065052E+00  4.6272129E+01 -1.5350041E+02  1.6037066E+02  0.0000000E+00  0.0000000E+00  1.0000000E+00
</event>
<event>
9 100 1.0000000E+00 1.0000000E+03 7.8125000E-03 0.0000000E+00
 21 -1  0  0 501 502  0.0000000E+00  0.0000000E+00  3.6139535E+02  3.6139535E+02  0.0000000E+00  0.0000000E+00  1.0000000E+00
 21 -1  0  0 502 501  0.0000000E+00  0.0000000E+00 -6.8150377E+02  6.8150377E+02  0.0000000E+00  0.0000000E+00  1.0000000E+00
 39  2  1  2   0   0 -7.3896445E-13 -2.9842795E-13 -3.2010842E+02  1.0428991E+03  9.9255689E+02  0.0000000E+00  1.0000000E+00
 23  2  3  3   0   0  2.2883856E+02  9.1989440E+01  2.8212845E+02  3.8583770E+02  9.1897386E+01  0.0000000E+00  1.0000000E+00
 23  2  3  3   0   0 -2.2883856E+02 -9.1989440E+01 -6.0223687E+02  6.5706141E+02  9.0616288E+01  0.0000000E+00  1.0000000E+00
-11  1  4  4   0   0  8.4193954E+01 -1.1816875E+01  8.5307315E+01  1.2043919E+02  7.1366451E-06  0.0000000E+00  1.0000000E+00
 11  1  4  4   0   0  1.4464460E+02  1.0380631E+02  1.9682114E+02  2.6539851E+02  6.6757202E-06  0.0000000E+00  1.0000000E+00
-13  1  5  5   0   0 -2.1982399E+02 -1.0587017E+02 -5.3825335E+02  5.9097187E+02  2.6973983E-06  0.0000000E+00  1.0000000E+00
 13  1  5  5   0   0 -9.0145671E+00  1.3880734E+01 -6.3983524E+01  6.6089550E+01  0.0000000E+00  0.0000000E+00  1.0000000E+00
</event>
<event>
9 100 1.0000000E+00 1.0000000E+03 7.8125000E-03 0.0000000E+00
 21 -1  0  0 501 502  0.0000000E+00  0.0000000E+00  2.7770102E+02  2.7770102E+02  0.0000000E+00  0.0000000E+00  1.0000000E+00
 21 -1  0  0 502 501  0.0000000E+00  0.0000000E+00 -9.0219908E+02  9.0219908E+02  0.0000000E+00  0.0000000E+00  1.0000000E+00
 39  2  1  2   0   0  6.2527761E-13  5.9685590E-13 -6.2449806E+02  1.1799001E+03  1.0010826E+03  0.0000000E+00  1.0000000E+00
 23  2  3  3   0   0  1.4065276E+02  1.2894630E+02 -8.4661104E+02  8.7264973E+02  9.1416379E+01  0.0000000E+00  1.0000000E+00
 23  2  3  3   0   0 -1.4065276E+02 -1.2894630E+02  2.2211297E+02  3.0725038E+02  9.3049859E+01  0.0000000E+00  1.0000000E+00
-11  1  4  4   0   0  1.4291127E+02  8.4296736E+01 -6.3076270E+02  6.5222017E+02  5.3947966E-06  0.0000000E+00  1.0000000E+00
 11  1  4  4   0   0 -2.2585107E+00  4.4649560E+01 -2.1584834E+02  2.2042956E+02  7.6293945E-06  0.0000000E+00  1.0000000E+00
-13  1  5  5   0   0  4.2762088E+00 -1.7959815E+01 -1.5777315E+00  1.8529170E+01  1.2651920E-05  0.0000000E+00  1.0000000E+00
 13  1  5  5   0   0 -1.4492897E+02 -1.1098648E+02  2.2369070E+02  2.8872121E+02  1.2575379E-06  0.0000000E+00  1.0000000E+00
</event>
<event>
9 100 1.0000000E+00 1.0000000E+03 7.8125000E-03 0.0000000E+00
 21 -1  0  0 501 502  0.0000000E+00  0.0000000E+00  5.4915759E+02  5.4915759E+02  0.0000000E+00  0.0000000E+00  1.0000000E+00
 21 -1  0  0 502 501  0.0000000E+00  0.0000000E+00 -4.3884515E+02  4.3884515E+02  0.0000000E+00  0.0000000E+00  1.0000000E+00
 39  2  1  2   0   0  5.6843419E-14  1.4210855E-13  1.1031244E+02  9.8800273E+02  9.8182512E+02  0.0000000E+00  1.0000000E+00
 23  2  3  3   0   0  1.3698089E+02  2.1847735E+02  4.6364753E+02  5.3849946E+02  9.2285033E+01  0.0000000E+00  1.0000000E+00
 23  2  3  3   0   0 -1.3698089E+02 -2.1847735E+02 -3.5333508E+02  4.4950327E+02  1.0349586E+02  0.0000000E+00  1.0000000E+00
-11  1  4  4   0   0  6.9915295E+01  1.4599911E+02  3.6321056E+02  3.9765034E+02  1.9073486E-06  0.0000000E+00  1.0000000E+00
 11  1  4  4   0   0  6.7065590E+01  7.2478249E+01  1.0043697E+02  1.4084912E+02  7.6293945E-06  0.0000000E+00  1.0000000E+00
-13  1  5  5   0   0 -4.2924620E+01 -1.2234428E+01 -1.0030369E+02  1.0978632E+02  6.0315660E-06  0.0000000E+00  1.0000000E+00
 13  1  5  5   0   0 -9.4056265E+01 -2.0624293E+02 -2.5303139E+02  3.3971695E+02  2.3360155E-06  0.0000000E+00  1.0000000E+00
</event>
<event>
9 100 1.0000000E+00 1.0000000E+03 7.8125000E-03 0.0000000E+00
 21 -1  0  0 501 502  0.0000000E+00  0.0000000E+00  7.3007214E+02  7.3007214E+02  0.0000000E+00  0.0000000E+00  1.0000000E+00
 21 -1  0  0 502 501  0.0000000E+00  0.0000000E+00 -3.1846530E+02  3.1846530E+02  0.0000000E+00  0.0000000E+00  1.0000000E+00
 39  2  1  2   0   0  2.1316282E-14 -1.1368684E-12  4.1160685E+02  1.0485374E+03  9.6437055E+02  0.0000000E+00  1.0000000E+00
 23  2  3  3   0   0 -2.5767570E+00  1.9079053E+02 -2.6507601E+02  3.3993128E+02  9.4235440E+01  0.0000000E+00  1.0000000E+00
 23  2  3  3   0   0  2.5767570E+00 -1.9079053E+02  6.7668286E+02  7.0860616E+02  8.8404326E+01  0.0000000E+00  1.0000000E+00
-11  1  4  4   0   0 -3.7488297E+01  5.6233365E+01 -1.2775751E+02  1.4453216E+02  6.3259598E-06  0.0000000E+00  1.0000000E+00
 11  1  4  4   0   0  3.4911540E+01  1.3455716E+02 -1.3731851E+02  1.9539913E+02  3.5683226E-06  0.0000000E+00  1.0000000E+00
-13  1  5  5   0   0  4.3045297E+01 -1.0954567E+02  3.3507534E+02  3.5514594E+02  7.6293945E-06  0.0000000E+00  1.0000000E+00
 13  1  5  5   0   0 -4.0468540E+01 -8.1244857E+01  3.4160752E+02  3.5346022E+02  5.3947966E-06  0.0000000E+00  1.0000000E+00
</event>
<event>
9 100 1.0000000E+00 1.0000000E+03 7.8125000E-03 0.0000000E+00
 21 -1  0  0 501 502  0.0000000E+00  0.0000000E+00  1.0387598E+03  1.0387598E+03  0.0000000E+00  0.0000000E+00  1.0000000E+00
 21 -1  0  0 502 501  0.0000000E+00  0.0000000E+00 -2.4185368E+02  2.4185368E+02  0.0000000E+00  0.0000000E+00  1.0000000E+00
 39  2  1  2   0   0 -2.6147973E-12  5.5422333E-13  7.9690607E+02  1.2806134E+03  1.0024527E+03  0.0000000E+00  1.0000000E+00
 23  2  3  3   0   0  4.3247535E+02 -9.4231311E+01  1.2186712E+02  4.6809713E+02  9.1372077E+01  0.0000000E+00  1.0000000E+00
 23  2  3  3   0   0 -4.3247535E+02  9.4231311E+01  6.7503895E+02  8.1251631E+02  9.2686086E+01  0.0000000E+00  1.0000000E+00
-11  1  4  4   0   0  1.6521095E+02 -7.0762380E+01  1.8878154E+01  1.8071624E+02  1.0002221E-05  0.0000000E+00  1.0000000E+00
 11  1  4  4   0   0  2.6726439E+02 -2.3468931E+01  1.0298897E+02  2.8738089E+02  6.7012164E-06  0.0000000E+00  1.0000000E+00
-13  1  5  5   0   0 -2.2741028E+02  1.1813720E+01  2.9206151E+02  3.7034433E+02  1.6184390E-05  0.0000000E+00  1.0000000E+00
 13  1  5  5   0   0 -2.0506507E+02  8.2417591E+01  3.8297744E+02  4.4217199E+02  1.4774259E-05  0.0000000E+00  1.0000000E+00
</event>
<event>
9 100 1.0000000E+00 1.0000000E+03 7.8125000E-03 0.0000000E+00
 21 -1  0  0 501 502  0.0000000E+00  0.0000000E+00  1.1937675E+03  1.1937675E+03  0.0000000E+00  0.0000000E+00  1.0000000E+00
 21 -1  0  0 502 501  0.0000000E+00  0.0000000E+00 -2.1023602E+02  2.1023602E+02  0.0000000E+00  0.0000000E+00  1.0000000E+00
 39  2  1  2   0   0 -7.1054274E-14 -5.1159077E-13  9.8353144E+02  1.4040035E+03  1.0019439E+03  0.0000000E+00  1.0000000E+00
 23  2  3  3   0   0  5.4177963E+01  3.4465358E+02  9.8000444E+02  1.0435769E+03  8.3202800E+01  0.0000000E+00  1.0000000E+00
 23  2  3  3   0   0 -5.4177963E+01 -3.4465358E+02  3.5269993E+00  3.6042657E+02  9.0407587E+01  0.0000000E+00  1.0000000E+00
-11  1  4  4   0   0  6.4006234E+01  2.4144718E+02  7.6764152E+02  8.0725897E+02  8.5299224E-06  0.0000000E+00  1.0000000E+00
 11  1  4  4   0   0 -9.8282712E+00  1.0320640E+02  2.1236292E+02  2.3631793E+02  1.8688124E-05  0.0000000E+00  1.0000000E+00
-13  1  5  5   0   0 -3.7846583E+01 -2.9410436E+02 -2.9310675E+01  2.9797459E+02  3.9320999E-06  0.0000000E+00  1.0000000E+00
 13  1  5  5   0   0 -1.6331379E+01 -5.0549221E+01  3.2837674E+01  6.2451986E+01  1.5033610E-05  0.0000000E+00  1.0000000E+00
</event>
<event>
9 100 1.0000000E+00 1.0000000E+03 7.8125000E-03 0.0000000E+00
 21 -1  0  0 501 502  0.0000000E+00  0.0000000E+00  8.3223947E+02  8.3223947E+02  0.0000000E+00  0.0000000E+00  1.0000000E+00
 21 -1  0  0 502 501  0.0000000E+00  0.0000000E+00 -2.7033997E+02  2.7033997E+02  0.0000000E+00  0.0000000E+00  1.0000000E+00
 39  2  1  2   0   0  9.0949470E-13  8.5265128E-13  5.6189951E+02  1.1025794E+03  9.4865714E+02  0.0000000E+00  1.0000000E+00
 23  2  3  3   0   0 -2.8830899E+02 -2.8060416E+02  9.1329104E+00  4.1258271E+02  9.0996233E+01  0.0000000E+00  1.0000000E+00
 23  2  3  3   0   0  2.8830899E+02  2.8060416E+02  5.5276660E+02  6.8999673E+02  9.3186949E+01  0.0000000E+00  1.0000000E+00
-11  1  4  4   0   0 -1.2578746E+02 -7.4952489E+01  3.0595081E+01  1.4958750E+02  1.1820369E-05  0.0000000E+00  1.0000000E+00
 11  1  4  4   0   0 -1.6252154E+02 -2.0565167E+02 -2.1462170E+01  2.6299521E+02  7.1446057E-06  0.0000000E+00  1.0000000E+00
-13  1  5  5   0   0  6.4056973E+01  3.6918939E+01  1.5994642E+02  1.7620772E+02  1.7892516E-05  0.0000000E+00  1.0000000E+00
 13  1  5  5   0   0  2.2425202E+02  2.4368522E+02  3.9282018E+02  5.1378901E+02  7.8641999E-06  0.0000000E+00  1.0000000E+00
</event>
<event>
9 100 1.0000000E+00 1.0000000E+03 7.8125000E-03 0.0000000E+00
 21 -1  0  0 501 502  0.0000000E+00  0.0000000E+00  2.5780990E+02  2.5780990E+02  0.0000000E+00  0.0000000E+00  1.0000000E+00
 21 -1  0  0 502 501  0.0000000E+00  0.0000000E+00 -9.4807282E+02  9.4807282E+02  0.0000000E+00  0.0000000E+00  1.0000000E+00
 39  2  1  2   0   0  2.8421709E-13 -1.1368684E-13 -6.9026292E+02  1.2058827E+03  9.8878221E+02  0.0000000E+00  1.0000000E+00
 23  2  3  3   0   0 -3.7183185E+02  1.5180133E+02 -1.1139962E+01  4.1174944E+02  9.0060693E+01  0.0000000E+00  1.0000000E+00
 23  2  3  3   0   0  3.7183185E+02 -1.5180133E+02 -6.7912296E+02  7.9413329E+02  9.0205993E+01  0.0000000E+00  1.0000000E+00
-11  1  4  4   0   0 -9.3520337E+01  4.6469302E+01 -4.2037349E+01  1.1257259E+02  1.9369217E-06  0.0000000E+00  1.0000000E+00
 11  1  4  4   0   0 -2.7831152E+02  1.0533203E+02  3.0897388E+01  2.9917684E+02  4.1569700E-06  0.0000000E+00  1.0000000E+00
-13  1  5  5   0   0  2.8190074E+02 -1.4574732E+02 -5.7198597E+02  6.5412404E+02  3.3036247E-06  0.0000000E+00  1.0000000E+00
 13  1  5  5   0   0  8.9931117E+01 -6.0540072E+00 -1.0713699E+02  1.4000925E+02  1.7059845E-05  0.0000000E+00  1.0000000E+00
</event>
<event>
9 100 1.0000000E+00 1.0000000E+03 7.8125000E-03 0.0000000E+00
 21 -1  0  0 501 502  0.0000000E+00  0.0000000E+00  4.2927102E+02  4.2927102E+02  0.0000000E+00  0.0000000E+00  1.0000000E+00
 21 -1  0  0 502 501  0.0000000E+00  0.0000000E+00 -5.8139997E+02  5.8139997E+02  0.0000000E+00  0.0000000E+00  1.0000000E+00
 39  2  1  2   0   0 -1.5063506E-12 -4.8316906E-13 -1.5212895E+02  1.0106710E+03  9.9915596E+02  0.0000000E+00  1.0000000E+00
 23  2  3  3   0   0 -1.9418784E+02 -6.4050696E+01  3.7520427E+02  4.3695489E+02  9.1323195E+01  0.0000000E+00  1.0000000E+00
 23  2  3  3   0   0  1.9418784E+02  6.4050696E+01 -5.2733322E+02  5.7371610E+02  9.6220729E+01  0.0000000E+00  1.0000000E+00
-11  1  4  4   0   0 -1.5344851E+02 -8.0997623E+01  2.5091788E+02  3.0506858E+02  3.5683226E-06  0.0000000E+00  1.0000000E+00
 11  1  4  4   0   0 -4.0739333E+01  1.6946928E+01  1.2428639E+02  1.3188630E+02  6.0315660E-06  0.0000000E+00  1.0000000E+00
-13  1  5  5   0   0  6.3118673E+01  5.7313095E+01 -1.3174354E+02  1.5692392E+02  1.6184390E-05  0.0000000E+00  1.0000000E+00
 13  1  5  5   0   0  1.3106917E+02  6.7376010E+00 -3.9558968E+02  4.1679218E+02  8.5299224E-06  0.0000000E+00  1.0000000E+00
</event>
<event>
9 100 1.0000000E+00 1.0000000E+03 7.8125000E-03 0.0000000E+00
 21 -1  0  0 501 502  0.0000000E+00  0.0000000E+00  4.9793337E+02  4.9793337E+02  0.0000000E+00  0.0000000E+00  1.0000000E+00
 21 -1  0  0 502 501  0.0000000E+00  0.0000000E+00 -5.0221056E+02  5.0221056E+02  0.0000000E+00  0.0000000E+00  1.0000000E+00
 39  2  1  2   0   0  7.1054274E-15 -1.7053026E-13 -4.2771891E+00  1.0001439E+03  1.0001348E+03  0.0000000E+00  1.0000000E+00
 23  2  3  3   0   0 -1.2894967E+01  3.0382554E+02  3.8431850E+02  4.9848707E+02  9.1172425E+01  0.0000000E+00  1.0000000E+00
 23  2  3  3   0   0  1.2894967E+01 -3.0382554E+02 -3.8859569E+02  5.0165686E+02  9.0425388E+01  0.0000000E+00  1.0000000E+00
-11  1  4  4   0   0  3.9294496E+01  1.1325776E+02  1.4356502E+02  1.8703554E+02  1.0092740E-05  0.0000000E+00  1.0000000E+00
 11  1  4  4   0   0 -5.2189463E+01  1.9056778E+02  2.4075348E+02  3.1145153E+02  8.3139399E-06  0.0000000E+00  1.0000000E+00
-13  1  5  5   0   0  4.9619027E+01 -2.1493088E+02 -2.8322272E+02  3.5898808E+02  6.1805160E-06  0.0000000E+00  1.0000000E+00
 13  1  5  5   0   0 -3.6724060E+01 -8.8894660E+01 -1.0537297E+02  1.4266878E+02  1.1444092E-05  0.0000000E+00  1.0000000E+00
</event>
<event>
9 100 1.0000000E+00 1.0000000E+03 7.8125000E-03 0.0000000E+00
 21 -1  0  0 501 502  0.0000000E+00  0.0000000E+00  5.1897304E+02  5.1897304E+02  0.0000000E+00  0.0000000E+00  1.0000000E+00
 21 -1  0  0 502 501  0.0000000E+00  0.0000000E+00 -4.7837980E+02  4.7837980E+02  0.0000000E+00  0.0000000E+00  1.0000000E+00
 39  2  1  2   0   0 -1.4210855E-13  2.2737368E-13  4.0593234E+01  9.9735284E+02  9.9652641E+02  0.0000000E+00  1.0000000E+00
 23  2  3  3   0   0 -1.8163173E+02  3.1791528E+02 -3.0538686E+02  4.8553602E+02  9.1781676E+01  0.0000000E+00  1.0000000E+00
 23  2  3  3   0   0  1.8163173E+02 -3.1791528E+02  3.4598010E+02  5.1181682E+02  9.0520842E+01  0.0000000E+00  1.0000000E+00
-11  1  4  4   0   0  3.4500626E+00  4.7679154E+01 -2.2896196E+01  5.3004155E+01  1.2651920E-05  0.0000000E+00  1.0000000E+00
 11  1  4  4   0   0 -1.8508179E+02  2.7023613E+02 -2.8249067E+02  4.3253186E+02  2.4777186E-06  0.0000000E+00  1.0000000E+00
-13  1  5  5   0   0  1.7095741E+02 -3.2223149E+02  3.4075462E+02  4.9917260E+02  1.1920929E-07  0.0000000E+00  1.0000000E+00
 13  1  5  5   0   0  1.0674322E+01  4.3162134E+00  5.2254774E+00  1.2644227E+01  5.3947966E-06  0.0000000E+00  1.0000000E+00
</event>
<event>
9 100 1.0000000E+00 1.0000000E+03 7.8125000E-03 0.0000000E+00
 21 -1  0  0 501 502  0.0000000E+00  0.0000000E+00  9.9147722E+02  9.9147722E+02  0.0000000E+00  0.0000000E+00  1.0000000E+00
 21 -1  0  0 502 501  0.0000000E+00  0.0000000E+00 -2.4764437E+02  2.4764437E+02  0.0000000E+00  0.0000000E+00  1.0000000E+00
 39  2  1  2   0   0 -1.0658141E-14  2.4868996E-14  7.4383285E+02  1.2391216E+03  9.9102725E+02  0.0000000E+00  1.0000000E+00
 23  2  3  3   0   0  7.9155667E+00 -2.4101895E+01 -2.3600795E+02  2.5473139E+02  9.2437933E+01  0.0000000E+00  1.0000000E+00
 23  2  3  3   0   0 -7.9155667E+00  2.4101895E+01  9.7984080E+02  9.8439020E+02  9.1063254E+01  0.0000000E+00  1.0000000E+00
-11  1  4  4   0   0  3.3706173E+00 -5.5552173E+01 -9.4248701E+01  1.0945420E+02  1.0271387E-05  0.0000000E+00  1.0000000E+00
 11  1  4  4   0   0  4.5449494E+00  3.1450278E+01 -1.4175925E+02  1.4527719E+02  8.8440118E-06  0.0000000E+00  1.0000000E+00
-13  1  5  5   0   0 -6.6758698E+00  3.7495782E+01  9.5788340E+02  9.5864024E+02  1.2615925E-06  0.0000000E+00  1.0000000E+00
 13  1  5  5   0   0 -1.2396969E+00 -1.3393887E+01  2.1957398E+01  2.5749959E+01  1.5258789E-05  0.0000000E+00  1.0000000E+00
</event>
<event>
9 100 1.0000000E+00 1.0000000E+03 7.8125000E-03 0.0000000E+00
 21 -1  0  0 501 502  0.0000000E+00  0.0000000E+00  3.7900188E+02  3.7900188E+02  0.0000000E+00  0.0000000E+00  1.0000000E+00
 21 -1  0  0 502 501  0.0000000E+00  0.0000000E+00 -5.9744413E+02  5.9744413E+02  0.0000000E+00  0.0000000E+00  1.0000000E+00
 39  2  1  2   0   0 -5.6843419E-13  1.0800250E-12 -2.1844224E+02  9.7644601E+02  9.5169838E+02  0.0000000E+00  1.0000000E+00
 23  2  3  3   0   0 -1.8239042E+02  3.4243598E+02 -3.7568610E+02  5.4805228E+02  9.3234065E+01  0.0000000E+00  1.0000000E+00
 23  2  3  3   0   0  1.8239042E+02 -3.4243598E+02  1.5724386E+02  4.2839373E+02  9.0922444E+01  0.0000000E+00  1.0000000E+00
-11  1  4  4   0   0 -5.4622859E+01  1.3436031E+02 -2.0083097E+02  2.4772854E+02  6.3259598E-06  0.0000000E+00  1.0000000E+00
 11  1  4  4   0   0 -1.2776756E+02  2.0807567E+02 -1.7485513E+02  3.0032374E+02  2.6973983E-06  0.0000000E+00  1.0000000E+00
-13  1  5  5   0   0  1.1058337E+02 -2.3594658E+02  6.0259775E+01  2.6745226E+02  6.4681339E-06  0.0000000E+00  1.0000000E+00
 13  1  5  5   0   0  7.1807052E+01 -1.0648940E+02  9.6984082E+01  1.6094147E+02  1.0204761E-05  0.0000000E+00  1.0000000E+00
</event>
<event>
9 100 1.0000000E+00 1.0000000E+03 7.8125000E-03 0.0000000E+00
 21 -1  0  0 501 502  0.0000000E+00  0.0000000E+00  4.1360595E+02  4.1360595E+02  0.0000000E+00  0.0000000E+00  1.0000000E+00
 21 -1  0  0 502 501  0.0000000E+00  0.0000000E+00 -6.0769226E+02  6.0769226E+02  0.0000000E+00  0.0000000E+00  1.0000000E+00
 39  2  1  2   0   0  0.0000000E+00 -7.1054274E-15 -1.9408631E+02  1.0212982E+03  1.0026867E+03  0.0000000E+00  1.0000000E+00
 23  2  3  3   0   0 -1.5850639E+02 -3.8157704E+01 -5.7102048E+02  6.0065103E+02  9.0205230E+01  0.0000000E+00  1.0000000E+00
 23  2  3  3   0   0  1.5850639E+02  3.8157704E+01  3.7693416E+02  4.2064719E+02  9.1018727E+01  0.0000000E+00  1.0000000E+00
-11  1  4  4   0   0 -3.7445891E+01 -5.1384315E+01 -2.2577177E+02  2.3455369E+02  1.2063132E-05  0.0000000E+00  1.0000000E+00
 11  1  4  4   0   0 -1.2106050E+02  1.3226610E+01 -3.4524871E+02  3.6609733E+02  7.6293945E-06  0.0000000E+00  1.0000000E+00
-13  1  5  5   0   0  1.3291297E+02  6.0421187E+01  2.5250264E+02  2.9167475E+02  5.8788433E-06  0.0000000E+00  1.0000000E+00
 13  1  5  5   0   0  2.5593422E+01 -2.2263483E+01  1.2443153E+02  1.2897244E+02  8.5299224E-06  0.0000000E+00  1.0000000E+00
</event>
<event>
9 100 1.0000000E+00 1.0000000E+03 7.8125000E-03 0.0000000E+00
 21 -1  0  0 501 502  0.0000000E+00  0.0000000E+00  5.7007686E+02  5.7007686E+02  0.0000000E+00  0.0000000E+00  1.0000000E+00
 21 -1  0  0 502 501  0.0000000E+00  0.0000000E+00 -4.0977118E+02  4.0977118E+02  0.0000000E+00  0.0000000E+00  1.0000000E+00
 39  2  1  2   0   0  1.1368684E-13  1.4210855E-14  1.6030568E+02  9.7984805E+02  9.6664589E+02  0.0000000E+00  1.0000000E+00
 23  2  3  3   0   0  4.1774521E+02  1.1522458E+02  2.8185583E+02  5.2474882E+02  9.0171212E+01  0.0000000E+00  1.0000000E+00
 23  2  3  3   0   0 -4.1774521E+02 -1.1522458E+02 -1.2155015E+02  4.5509923E+02  6.7476727E+01  0.0000000E+00  1.0000000E+00
-11  1  4  4   0   0  3.3692109E+01 -8.5773431E+00  4.3878035E+00  3.5042572E+01  6.6072495E-06  0.0000000E+00  1.0000000E+00
 11  1  4  4   0   0  3.8405310E+02  1.2380193E+02  2.7746803E+02  4.8970624E+02  9.7577009E-07  0.0000000E+00  1.0000000E+00
-13  1  5  5   0   0 -2.1379477E+02 -6.4350998E+01 -2.7987047E+01  2.2501673E+02  6.0315660E-06  0.0000000E+00  1.0000000E+00
 13  1  5  5   0   0 -2.0395044E+02 -5.0873584E+01 -9.3563105E+01  2.3008251E+02  4.8393686E-06  0.0000000E+00  1.0000000E+00
</event>
<event>
9 100 1.0000000E+00 1.0000000E+03 7.8125000E-03 0.0000000E+00
 21 -1  0  0 501 502  0.0000000E+00  0.0000000E+00  4.7226291E+02  4.7226291E+02  0.0000000E+00  0.0000000E+00  1.0000000E+00
 21 -1  0  0 502 501  0.0000000E+00  0.0000000E+00 -5.3516792E+02  5.3516792E+02  0.0000000E+00  0.0000000E+00  1.0000000E+00
 39  2  1  2   0   0 -2.2737368E-13  1.0231815E-12 -6.2905002E+01  1.0074308E+03  1.0054650E+03  0.0000000E+00  1.0000000E+00
 23  2  3  3   0   0 -4.7486127E+01  2.2490859E+02  4.0730097E+02  4.7635307E+02  9.0439808E+01  0.0000000E+00  1.0000000E+00
 23  2  3  3   0   0  4.7486127E+01 -2.2490859E+02 -4.7020598E+02  5.3107776E+02  9.0061732E+01  0.0000000E+00  1.0000000E+00
-11  1  4  4   0   0  6.7190526E+00  9.0040435E+01  9.0700692E+01  1.2798063E+02  6.6072495E-06  0.0000000E+00  1.0000000E+00
 11  1  4  4   0   0 -5.4205179E+01  1.3486816E+02  3.1660028E+02  3.4837244E+02  3.0157830E-06  0.0000000E+00  1.0000000E+00
-13  1  5  5   0   0 -8.3648228E+00 -1.1578109E+02 -2.9699152E+02  3.1887175E+02  1.0956884E-05  0.0000000E+00  1.0000000E+00
 13  1  5  5   0   0  5.5850949E+01 -1.0912750E+02 -1.7321446E+02  2.1220601E+02  1.4273290E-05  0.0000000E+00  1.0000000E+00
</event>
<event>
9 100 1.0000000E+00 1.0000000E+03 7.8125000E-03 0.0000000E+00
 21 -1  0  0 501 502  0.0000000E+00  0.0000000E+00  8.1847851E+02  8.1847851E+02  0.0000000E+00  0.0000000E+00  1.0000000E+00
 21 -1  0  0 502 501  0.0000000E+00  0.0000000E+00 -3.1007604E+02  3.1007604E+02  0.0000000E+00  0.0000000E+00  1.0000000E+00
 39  2  1  2   0   0  2.8421709E-14 -5.6843419E-13  5.0840246E+02  1.1285546E+03  1.0075526E+03  0.0000000E+00  1.0000000E+00
 23  2  3  3   0   0 -1.4457089E+01  3.1826591E+02 -1.7190981E+02  3.7282775E+02  8.9136684E+01  0.0000000E+00  1.0000000E+00
 23  2  3  3   0   0  1.4457089E+01 -3.1826591E+02  6.8031227E+02  7.5572680E+02  8.2437962E+01  0.0000000E+00  1.0000000E+00
-11  1  4  4   0   0 -1.7919832E+01  1.6083488E+02 -1.3582824E+02  2.1127775E+02  5.4991544E-06  0.0000000E+00  1.0000000E+00
 11  1  4  4   0   0  3.4627425E+00  1.5743104E+02 -3.6081572E+01  1.6155000E+02  8.0921949E-06  0.0000000E+00  1.0000000E+00
-13  1  5  5   0   0  1.3564612E+01 -2.7803318E+01  2.8240869E+01  4.1887586E+01  2.4126264E-05  0.0000000E+00  1.0000000E+00
 13  1  5  5   0   0  8.9247672E-01 -2.9046260E+02  6.5207140E+02  7.1383922E+02  1.5814899E-06  0.0000000E+00  1.0000000E+00
</event>
<event>
9 100 1.0000000E+00 1.0000000E+03 7.8125000E-03 0.0000000E+00
 21 -1  0  0 501 502  0.0000000E+00  0.0000000E+00  2.2034856E+02  2.2034856E+02  0.0000000E+00  0.0000000E+00  1.0000000E+00
 21 -1  0  0 502 501  0.0000000E+00  0.0000000E+00 -1.1429835E+03  1.1429835E+03  0.0000000E+00  0.0000000E+00  1.0000000E+00
 39  2  1  2   0   0  4.5474735E-13 -2.5579538E-13 -9.2263492E+02  1.3633320E+03  1.0037027E+03  0.0000000E+00  1.0000000E+00
 23  2  3  3   0   0  1.8742127E+02 -1.1263589E+02 -1.0624328E+03  1.0883598E+03  8.9162885E+01  0.0000000E+00  1.0000000E+00
 23  2  3  3   0   0 -1.8742127E+02  1.1263589E+02  1.3979784E+02  2.7497228E+02  9.0844608E+01  0.0000000E+00  1.0000000E+00
-11  1  4  4   0   0  1.0588506E+02 -9.9913693E+01 -5.3258987E+02  5.5212894E+02  7.6293945E-06  0.0000000E+00  1.0000000E+00
 11  1  4  4   0   0  8.1536208E+01 -1.2722193E+01 -5.2984289E+02  5.3623082E+02  0.0000000E+00  0.0000000E+00  1.0000000E+00
-13  1  5  5   0   0  8.3125493E+00 -4.5713535E-01  1.3951082E+01  1.6246235E+01  1.2287234E-05  0.0000000E+00  1.0000000E+00
 13  1  5  5   0   0 -1.9573382E+02  1.1309302E+02  1.2584675E+02  2.5872604E+02  2.7079145E-06  0.0000000E+00  1.0000000E+00
</event>
<event>
9 100 1.0000000E+00 1.0000000E+03 7.8125000E-03 0.0000000E+00
 21 -1  0  0 501 502  0.0000000E+00  0.0000000E+00  4.3187331E+02  4.3187331E+02  0.0000000E+00  0.0000000E+00  1.0000000E+00
 21 -1  0  0 502 501  0.0000000E+00  0.0000000E+00 -5.8355094E+02  5.8355094E+02  0.0000000E+00  0.0000000E+00  1.0000000E+00
 39  2  1  2   0   0  1.6342483E-13  1.5347723E-12 -1.5167763E+02  1.0154243E+03  1.0040320E+03  0.0000000E+00  1.0000000E+00
 23  2  3  3   0   0  5.1326223E+01  4.8795592E+02 -1.3021960E+02  5.1580386E+02  9.1439193E+01  0.0000000E+00  1.0000000E+00
 23  2  3  3   0   0 -5.1326223E+01 -4.8795592E+02 -2.1458031E+01  4.9962039E+02  9.1786331E+01  0.0000000E+00  1.0000000E+00
-11  1  4  4   0   0 -1.6576590E+00  1.2069217E+02  5.1585802E+00  1.2081374E+02  6.6072495E-06  0.0000000E+00  1.0000000E+00
 11  1  4  4   0   0  5.2983882E+01  3.6726374E+02 -1.3537818E+02  3.9499013E+02  1.8264715E-06  0.0000000E+00  1.0000000E+00
-13  1  5  5   0   0 -1.7064913E+01 -4.2283193E+02 -3.5659950E+01  4.2467597E+02  2.8709399E-06  0.0000000E+00  1.0000000E+00
 13  1  5  5   0   0 -3.4261310E+01 -6.5123990E+01  1.4201919E+01  7.4944419E+01  1.1223414E-05  0.0000000E+00  1.0000000E+00
</event>
<event>
9 100 1.0000000E+00 1.0000000E+03 7.8125000E-03 0.0000000E+00
 21 -1  0  0 501 502  0.0000000E+00  0.0000000E+00  1.1374856E+03  1.1374856E+03  0.0000000E+00  0.0000000E+00  1.0000000E+00
 21 -1  0  0 502 501  0.0000000E+00  0.0000000E+00 -2.2197805E+02  2.2197805E+02  0.0000000E+00  0.0000000E+00  1.0000000E+00
 39  2  1  2   0   0  2.8421709E-12  2.5579538E-13  9.1550756E+02  1.3594637E+03  1.0049813E+03  0.0000000E+00  1.0000000E+00
 23  2  3  3   0   0  4.3276937E+02  3.8286841E+01  7.7705225E+02  8.9512896E+02  9.3222577E+01  0.0000000E+00  1.0000000E+00
 23  2  3  3   0   0 -4.3276937E+02 -3.8286841E+01  1.3845532E+02  4.6433470E+02  8.7644895E+01  0.0000000E+00  1.0000000E+00
-11  1  4  4   0   0  4.3154765E+02  2.8509971E+01  7.4327654E+02  8.5994547E+02  4.1019083E-06  0.0000000E+00  1.0000000E+00
 11  1  4  4   0   0  1.2217228E+00  9.7768697E+00  3.3775704E+01  3.5183490E+01  3.5785032E-05  0.0000000E+00  1.0000000E+00
-13  1  5  5   0   0 -1.9572190E+02 -5.0530480E+01  3.3893961E+01  2.0496144E+02  4.2649612E-06  0.0000000E+00  1.0000000E+00
 13  1  5  5   0   0 -2.3704747E+02  1.2243639E+01  1.0456136E+02  2.5937326E+02  6.6244335E-06  0.0000000E+00  1.0000000E+00
</event>
<event>
9 100 1.0000000E+00 1.0000000E+03 7.8125000E-03 0.0000000E+00
 21 -1  0  0 501 502  0.0000000E+00  0.0000000E+00  2.1463586E+02  2.1463586E+02  0.0000000E+00  0.0000000E+00  1.0000000E+00
 21 -1  0  0 502 501  0.0000000E+00  0.0000000E+00 -1.1269598E+03  1.1269598E+03  0.0000000E+00  0.0000000E+00  1.0000000E+00
 39  2  1  2   0   0 -3.4106051E-13 -3.4106051E-13 -9.1232396E+02  1.3415957E+03  9.8363811E+02  0.0000000E+00  1.0000000E+00
 23  2  3  3   0   0  2.6321063E+02  3.2412772E+02 -1.2456147E+02  4.4535011E+02  9.2100763E+01  0.0000000E+00  1.0000000E+00
 23  2  3  3   0   0 -2.6321063E+02 -3.2412772E+02 -7.8776248E+02  8.9624555E+02  9.1366019E+01  0.0000000E+00  1.0000000E+00
-11  1  4  4   0   0  1.7061613E+02  1.4384869E+02 -8.5320786E+01  2.3891829E+02  1.3795353E-05  0.0000000E+00  1.0000000E+00
 11  1  4  4   0   0  9.2594497E+01  1.8027902E+02 -3.9240686E+01  2.0643183E+02  1.5986495E-05  0.0000000E+00  1.0000000E+00
-13  1  5  5   0   0 -1.6834930E+02 -2.6582807E+02 -5.4848852E+02  6.3233354E+02  7.6293945E-06  0.0000000E+00  1.0000000E+00
 13  1  5  5   0   0 -9.4861329E+01 -5.8299642E+01 -2.3927397E+02  2.6391202E+02  2.0185481E-05  0.0000000E+00  1.0000000E+00
</event>
<event>
9 100 1.0000000E+00 1.0000000E+03 7.8125000E-03 0.0000000E+00
 21 -1  0  0 501 502  0.0000000E+00  0.0000000E+00  2.1503269E+03  2.1503269E+03  0.0000000E+00  0.0000000E+00  1.0000000E+00
 21 -1  0  0 502 501  0.0000000E+00  0.0000000E+00 -1.0269529E+02  1.0269529E+02  0.0000000E+00  0.0000000E+00  1.0000000E+00
 39  2  1  2   0   0 -1.2221335E-12 -2.3874236E-12  2.0476316E+03  2.2530222E+03  9.3984774E+02  0.0000000E+00  1.0000000E+00
 23  2  3  3   0   0  2.1293600E+02  4.0263950E+02  8.5635577E+02  9.7424289E+02  9.1343881E+01  0.0000000E+00  1.0000000E+00
 23  2  3  3   0   0 -2.1293600E+02 -4.0263950E+02  1.1912759E+03  1.2787793E+03  9.3156095E+01  0.0000000E+00  1.0000000E+00
-11  1  4  4   0   0  1.6102584E+02  2.6737119E+02  4.9824286E+02  5.8793080E+02  1.2063132E-05  0.0000000E+00  1.0000000E+00
 11  1  4  4   0   0  5.1910164E+01  1.3526831E+02  3.5811290E+02  3.8631209E+02  2.7508173E-05  0.0000000E+00  1.0000000E+00
-13  1  5  5   0   0 -3.3850181E+01 -8.6701686E+01  1.5603041E+02  1.8168243E+02  1.5258789E-05  0.0000000E+00  1.0000000E+00
 13  1  5  5   0   0 -1.7908582E+02 -3.1593781E+02  1.0352454E+03  1.0970969E+03  6.3259598E-06  0.0000000E+00  1.0000000E+00
</event>
<event>
9 100 1.0000000E+00 1.0000000E+03 7.8125000E-03 0.0000000E+00
 21 -1  0  0 501 502  0.0000000E+00  0.0000000E+00  8.7258015E+02  8.7258015E+02  0.0000000E+00  0.0000000E+00  1.0000000E+00
 21 -1  0  0 502 501  0.0000000E+00  0.0000000E+00 -2.8538433E+02  2.8538433E+02  0.0000000E+00  0.0000000E+00  1.0000000E+00
 39  2  1  2   0   0  4.9737992E-13  2.7284841E-12  5.8719582E+02  1.1579645E+03  9.9803948E+02  0.0000000E+00  1.0000000E+00
 23  2  3  3   0   0  6.9696802E+01  3.6812853E+02  6.5920164E+02  7.6407869E+02  9.4303762E+01  0.0000000E+00  1.0000000E+00
 23  2  3  3   0   0 -6.9696802E+01 -3.6812853E+02 -7.2005813E+01  3.9388578E+02  9.7902589E+01  0.0000000E+00  1.0000000E+00
-11  1  4  4   0   0  2.0753055E+01  1.0322206E+02  1.0944754E+02  1.5186918E+02  1.0789593E-05  0.0000000E+00  1.0000000E+00
 11  1  4  4   0   0  4.8943746E+01  2.6490646E+02  5.4975410E+02  6.1220951E+02  3.8146973E-06  0.0000000E+00  1.0000000E+00
-13  1  5  5   0   0 -5.1481314E+00 -6.9372012E+00  1.4531256E+01  1.6905189E+01  1.3654538E-05  0.0000000E+00  1.0000000E+00
 13  1  5  5   0   0 -6.4548670E+01 -3.6119132E+02 -8.6537068E+01  3.7698059E+02  2.0300611E-06  0.0000000E+00  1.0000000E+00
</event>
<event>
9 100 1.0000000E+00 1.0000000E+03 7.8125000E-03 0.0000000E+00
 21 -1  0  0 501 502  0.0000000E+00  0.0000000E+00  3.2844650E+02  3.2844650E+02  0.0000000E+00  0.0000000E+00  1.0000000E+00
 21 -1  0  0 502 501  0.0000000E+00  0.0000000E+00 -7.7890609E+02  7.7890609E+02  0.0000000E+00  0.0000000E+00  1.0000000E+00
 39  2  1  2   0   0  6.2527761E-13 -6.3948846E-14 -4.5045959E+02  1.1073526E+03  1.0115908E+03  0.0000000E+00  1.0000000E+00
 23  2  3  3   0   0  3.4811501E+02 -3.5984720E+01  1.6203320E+02  3.9607937E+02  9.0250485E+01  0.0000000E+00  1.0000000E+00
 23  2  3  3   0   0 -3.4811501E+02  3.5984720E+01 -6.1249279E+02  7.1127322E+02  9.1012182E+01  0.0000000E+00  1.0000000E+00
-11  1  4  4   0   0  3.4521236E+01 -5.5438665E+00  5.1375262E+01  6.2143928E+01  6.1805160E-06  0.0000000E+00  1.0000000E+00
 11  1  4  4   0   0  3.1359378E+02 -3.0440854E+01  1.1065793E+02  3.3393544E+02  1.5078915E-06  0.0000000E+00  1.0000000E+00
-13  1  5  5   0   0 -2.3272675E+02  8.3768138E+00 -3.2114514E+02  3.9669398E+02  7.6293945E-06  0.0000000E+00  1.0000000E+00
 13  1  5  5   0   0 -1.1538826E+02  2.7607907E+01 -2.9134765E+02  3.1457924E+02  7.6293945E-06  0.0000000E+00  1.0000000E+00
</event>
<event>
9 100 1.0000000E+00 1.0000000E+03 7.8125000E-03 0.0000000E+00
 21 -1  0  0 501 502  0.0000000E+00  0.0000000E+00  6.7691958E+02  6.7691958E+02  0.0000000E+00  0.0000000E+00  1.0000000E+00
 21 -1  0  0 502 501  0.0000000E+00  0.0000000E+00 -3.7162156E+02  3.7162156E+02  0.0000000E+00  0.0000000E+00  1.0000000E+00
 39  2  1  2   0   0  1.9895197E-13 -2.2737368E-13  3.0529803E+02  1.0485411E+03  1.0031110E+03  0.0000000E+00  1.0000000E+00
 23  2  3  3   0   0  1.4837804E+02 -1.3115639E+02  6.2458329E+02  6.6121724E+02  8.8802629E+01  0.0000000E+00  1.0000000E+00
 23  2  3  3   0   0 -1.4837804E+02  1.3115639E+02 -3.1928527E+02  3.8732390E+02  9.4120570E+01  0.0000000E+00  1.0000000E+00
-11  1  4  4   0   0  7.1346967E+00 -3.8443438E+01  5.7761027E+01  6.9750542E+01  7.6293945E-06  0.0000000E+00  1.0000000E+00
 11  1  4  4   0   0  1.4124334E+02 -9.2712948E+01  5.6682227E+02  5.9146670E+02  2.6973983E-06  0.0000000E+00  1.0000000E+00
-13  1  5  5   0   0 -1.8333840E+01  2.6872589E+01 -6.9129115E+00  3.3257391E+01  8.5299224E-06  0.0000000E+00  1.0000000E+00
 13  1  5  5   0   0 -1.3004420E+02  1.0428380E+02 -3.1237236E+02  3.5406651E+02  1.7377591E-06  0.0000000E+00  1.0000000E+00
</event>
<event>
9 100 1.0000000E+00 1.0000000E+03 7.8125000E-03 0.0000000E+00
 21 -1  0  0 501 502  0.0000000E+00  0.0000000E+00  7.4967498E+02  7.4967498E+02  0.0000000E+00  0.0000000E+00  1.0000000E+00
 21 -1  0  0 502 501  0.0000000E+00  0.0000000E+00 -3.3340380E+02  3.3340380E+02  0.0000000E+00  0.0000000E+00  1.0000000E+00
 39  2  1  2   0   0  1.3642421E-12 -1.4210855E-12  4.1627118E+02  1.0830788E+03  9.9988897E+02  0.0000000E+00  1.0000000E+00
 23  2  3  3   0   0  1.5774750E+02 -1.6924798E+02  6.7807856E+02  7.2222904E+02  9.1077431E+01  0.0000000E+00  1.0000000E+00
 23  2  3  3   0   0 -1.5774750E+02  1.6924798E+02 -2.6180738E+02  3.6084974E+02  9.0223495E+01  0.0000000E+00  1.0000000E+00
-11  1  4  4   0   0  1.6280624E+02 -1.7316975E+02  6.7389448E+02  7.1458197E+02  7.7256449E-07  0.0000000E+00  1.0000000E+00
 11  1  4  4   0   0 -5.0587345E+00  3.9217657E+00  4.1840805E+00  7.6470629E+00  1.0789593E-05  0.0000000E+00  1.0000000E+00
-13  1  5  5   0   0 -1.9232879E+01  2.9463629E+00  2.0701222E+00  1.9567066E+01  1.1444092E-05  0.0000000E+00  1.0000000E+00
 13  1  5  5   0   0 -1.3851462E+02  1.6630162E+02 -2.6387750E+02  3.4128268E+02  2.2218226E-06  0.0000000E+00  1.0000000E+00
</event>
<event>
9 100 1.0000000E+00 1.0000000E+03 7.8125000E-03 0.0000000E+00
 21 -1  0  0 501 502  0.0000000E+00  0.0000000E+00  2.3231260E+02  2.3231260E+02  0.0000000E+00  0.0000000E+00  1.0000000E+00
 21 -1  0  0 502 501  0.0000000E+00  0.0000000E+00 -1.0854383E+03  1.0854383E+03  0.0000000E+00  0.0000000E+00  1.0000000E+00
 39  2  1  2   0   0 -3.9790393E-13  8.5265128E-14 -8.5312567E+02  1.3177509E+03  1.0043127E+03  0.0000000E+00  1.0000000E+00
 23  2  3  3   0   0 -2.8993207E+02  6.1865884E+01 -9.4487357E+02  9.9488326E+02  9.5491519E+01  0.0000000E+00  1.0000000E+00
 23  2  3  3   0   0  2.8993207E+02 -6.1865884E+01  9.1747899E+01  3.2286763E+02  8.9094542E+01  0.0000000E+00  1.0000000E+00
-11  1  4  4   0   0 -6.9708622E+01 -2.5158176E+01 -2.0079624E+02  2.1403588E+02  1.8688124E-05  0.0000000E+00  1.0000000E+00
 11  1  4  4   0   0 -2.2022344E+02  8.7024060E+01 -7.4407733E+02  7.8084738E+02  7.1366451E-06  0.0000000E+00  1.0000000E+00
-13  1  5  5   0   0  1.0653791E+02 -2.1907693E+01  7.9590980E+01  1.3477758E+02  4.0880270E-06  0.0000000E+00  1.0000000E+00
 13  1  5  5   0   0  1.8339416E+02 -3.9958191E+01  1.2156919E+01  1.8809004E+02  1.9073486E-06  0.0000000E+00  1.0000000E+00
</event>
<event>
9 100 1.0000000E+00 1.0000000E+03 7.8125000E-03 0.0000000E+00
 21 -1  0  0 501 502  0.0000000E+00  0.0000000E+00  6.9267780E+02  6.9267780E+02  0.0000000E+00  0.0000000E+00  1.0000000E+00
 21 -1  0  0 502 501  0.0000000E+00  0.0000000E+00 -3.6091893E+02  3.6091893E+02  0.0000000E+00  0.0000000E+00  1.0000000E+00
 39  2  1  2   0   0  1.1368684E-13  3.9790393E-13  3.3175887E+02  1.0535967E+03  1.0000011E+03  0.0000000E+00  1.0000000E+00
 23  2  3  3   0   0  1.0596721E+02  2.9660921E+02  5.6287481E+02  6.5210310E+02  9.5939221E+01  0.0000000E+00  1.0000000E+00
 23  2  3  3   0   0 -1.0596721E+02 -2.9660921E+02 -2.3111593E+02  4.0149362E+02  9.2609277E+01  0.0000000E+00  1.0000000E+00
-11  1  4  4   0   0  5.8580777E+01  2.4803297E+02  3.8488050E+02  4.6161137E+02  4.2649612E-06  0.0000000E+00  1.0000000E+00
 11  1  4  4   0   0  4.7386431E+01  4.8576243E+01  1.7799431E+02  1.9049173E+02  1.3214499E-05  0.0000000E+00  1.0000000E+00
-13  1  5  5   0   0 -7.7609491E+01 -2.5675069E+02 -2.2874840E+02  3.5251947E+02  3.4571979E-06  0.0000000E+00  1.0000000E+00
 13  1  5  5   0   0 -2.8357717E+01 -3.9858522E+01 -2.3675381E+00  4.8974148E+01  1.2361032E-05  0.0000000E+00  1.0000000E+00
</event>
<event>
9 100 1.0000000E+00 1.0000000E+03 7.8125000E-03 0.0000000E+00
 21 -1  0  0 501 502  0.0000000E+00  0.0000000E+00  1.8671295E+03  1.8671295E+03  0.0000000E+00  0.0000000E+00  1.0000000E+00
 21 -1  0  0 502 501  0.0000000E+00  0.0000000E+00 -1.3384378E+02  1.3384378E+02  0.0000000E+00  0.0000000E+00  1.0000000E+00
 39  2  1  2   0   0  8.2422957E-12  5.1514348E-13  1.7332857E+03  2.0009733E+03  9.9980733E+02  0.0000000E+00  1.0000000E+00
 23  2  3  3   0   0  3.7117433E+02  2.3198511E+01  1.5111584E+03  1.5584082E+03  8.2024144E+01  0.0000000E+00  1.0000000E+00
 23  2  3  3   0   0 -3.7117433E+02 -2.3198511E+01  2.2212732E+02  4.4256505E+02  9.0635087E+01  0.0000000E+00  1.0000000E+00
-11  1  4  4   0   0  3.9515668E+01 -1.9108365E+01  2.4200946E+02  2.4595771E+02  5.0607678E-05  0.0000000E+00  1.0000000E+00
 11  1  4  4   0   0  3.3165867E+02  4.2306875E+01  1.2691489E+03  1.3124505E+03  1.1444092E-05  0.0000000E+00  1.0000000E+00
-13  1  5  5   0   0 -1.3328593E+02  1.5876184E+01  3.8868467E+01  1.3974244E+02  1.3486992E-05  0.0000000E+00  1.0000000E+00
 13  1  5  5   0   0 -2.3788841E+02 -3.9074694E+01  1.8325885E+02  3.0282261E+02  6.6927284E-06  0.0000000E+00  1.0000000E+00
</event>
<event>
9 100 1.0000000E+00 1.0000000E+03 7.8125000E-03 0.0000000E+00
 21 -1  0  0 501 502  0.0000000E+00  0.0000000E+00  8.7443545E+02  8.7443545E+02  0.0000000E+00  0.0000000E+00  1.0000000E+00
 21 -1  0  0 502 501  0.0000000E+00  0.0000000E+00 -2.8416723E+02  2.8416723E+02  0.0000000E+00  0.0000000E+00  1.0000000E+00
 39  2  1  2   0   0  9.9475983E-14  1.1084467E-12  5.9026823E+02  1.1586027E+03  9.9696720E+02  0.0000000E+00  1.0000000E+00
 23  2  3  3   0   0 -2.1643462E+01 -2.2334365E+02  8.0115727E+02  8.3704147E+02  9.1840130E+01  0.0000000E+00  1.0000000E+00
 23  2  3  3   0   0  2.1643462E+01  2.2334365E+02 -2.1088905E+02  3.2156122E+02  9.2609932E+01  0.0000000E+00  1.0000000E+00
-11  1  4  4   0   0  6.0835901E+00  7.4501836E+00  4.2297462E+01  4.3377305E+01  2.8546580E-05  0.0000000E+00  1.0000000E+00
 11  1  4  4   0   0 -2.7727052E+01 -2.3079383E+02  7.5885981E+02  7.9366416E+02  2.7392209E-06  0.0000000E+00  1.0000000E+00
-13  1  5  5   0   0  3.4612433E+01  1.3666335E+02 -7.4536687E+01  1.5946977E+02  7.8641999E-06  0.0000000E+00  1.0000000E+00
 13  1  5  5   0   0 -1.2968971E+01  8.6680302E+01 -1.3635236E+02  1.6209144E+02  6.3974418E-06  0.0000000E+00  1.0000000E+00
</event>
<event>
9 100 1.0000000E+00 1.0000000E+03 7.8125000E-03 0.0000000E+00
 21 -1  0  0 501 502  0.0000000E+00  0.0000000E+00  7.6909903E+02  7.6909903E+02  0.0000000E+00  0.0000000E+00  1.0000000E+00
 21 -1  0  0 502 501  0.0000000E+00  0.0000000E+00 -3.2848248E+02  3.2848248E+02  0.0000000E+00  0.0000000E+00  1.0000000E+00
 39  2  1  2   0   0  8.5265128E-14 -1.1368684E-13  4.4061655E+02  1.0975815E+03  1.0052573E+03  0.0000000E+00  1.0000000E+00
 23  2  3  3   0   0  9.4842718E+01 -2.5755142E+02 -2.2875416E+02  3.6890840E+02  9.1853515E+01  0.0000000E+00  1.0000000E+00
 23  2  3  3   0   0 -9.4842718E+01  2.5755142E+02  6.6937072E+02  7.2867311E+02  8.7060147E+01  0.0000000E+00  1.0000000E+00
-11  1  4  4   0   0  8.3428828E+01 -2.1432672E+02 -2.2849556E+02  3.2420138E+02  2.5157462E-06  0.0000000E+00  1.0000000E+00
 11  1  4  4   0   0  1.1413890E+01 -4.3224696E+01 -2.5860526E-01  4.4707026E+01  1.1444092E-05  0.0000000E+00  1.0000000E+00
-13  1  5  5   0   0 -1.0413366E+02  1.8034923E+02  4.4787904E+02  4.9392844E+02  7.1366451E-06  0.0000000E+00  1.0000000E+00
 13  1  5  5   0   0  9.2909417E+00  7.7202187E+01  2.2149167E+02  2.3474467E+02  1.3214499E-05  0.0000000E+00  1.0000000E+00
</event>
<event>
9 100 1.0000000E+00 1.0000000E+03 7.8125000E-03 0.0000000E+00
 21 -1  0  0 501 502  0.0000000E+00  0.0000000E+00  1.0863836E+03  1.0863836E+03  0.0000000E+00  0.0000000E+00  1.0000000E+00
 21 -1  0  0 502 501  0.0000000E+00  0.0000000E+00 -2.2917862E+02  2.2917862E+02  0.0000000E+00  0.0000000E+00  1.0000000E+00
 39  2  1  2   0   0  2.7853275E-12  2.4868996E-13  8.5720500E+02  1.3155622E+03  9.9794969E+02  0.0000000E+00  1.0000000E+00
 23  2  3  3   0   0 -4.0137166E+02 -3.4383395E+01  5.9538189E+01  4.1732185E+02  9.1275993E+01  0.0000000E+00  1.0000000E+00
 23  2  3  3   0   0  4.0137166E+02  3.4383395E+01  7.9766681E+02  8.9824038E+02  9.1005580E+01  0.0000000E+00  1.0000000E+00
-11  1  4  4   0   0 -1.2962331E+01  1.6193127E+01  8.1115073E+00  2.2271864E+01  1.0726187E-05  0.0000000E+00  1.0000000E+00
 11  1  4  4   0   0 -3.8840933E+02 -5.0576521E+01  5.1426682E+01  3.9504999E+02  1.5814899E-06  0.0000000E+00  1.0000000E+00
-13  1  5  5   0   0  1.8571690E+01  3.8739129E+00  1.0081027E+02  1.0257985E+02  1.5258789E-05  0.0000000E+00  1.0000000E+00
 13  1  5  5   0   0  3.8279997E+02  3.0509482E+01  6.9685654E+02  7.9566053E+02  1.3486992E-06  0.0000000E+00  1.0000000E+00
</event>
<event>
9 100 1.0000000E+00 1.0000000E+03 7.8125000E-03 0.0000000E+00
 21 -1  0  0 501 502  0.0000000E+00  0.0000000E+00  2.4918074E+02  2.4918074E+02  0.0000000E+00  0.0000000E+00  1.0000000E+00
 21 -1  0  0 502 501  0.0000000E+00  0.0000000E+00 -1.0117808E+03  1.0117808E+03  0.0000000E+00  0.0000000E+00  1.0000000E+00
 39  2  1  2   0   0 -4.2632564E-13 -1.4779289E-12 -7.6260007E+02  1.2609616E+03  1.0042237E+03  0.0000000E+00  1.0000000E+00
 23  2  3  3   0   0 -1.1861512E+02 -3.9973502E+02 -7.1400478E+02  8.3182371E+02  9.0940786E+01  0.0000000E+00  1.0000000E+00
 23  2  3  3   0   0  1.1861512E+02  3.9973502E+02 -4.8595289E+01  4.2913784E+02  8.9107530E+01  0.0000000E+00  1.0000000E+00
-11  1  4  4   0   0 -1.0634213E+02 -3.7219806E+02 -6.9682812E+02  7.9712576E+02  1.2839233E-06  0.0000000E+00  1.0000000E+00
 11  1  4  4   0   0 -1.2272983E+01 -2.7536956E+01 -1.7176659E+01  3.4697949E+01  1.7059845E-05  0.0000000E+00  1.0000000E+00
-13  1  5  5   0   0  6.2453700E+01  2.5759746E+02  1.0529323E+01  2.6526926E+02  3.8146973E-06  0.0000000E+00  1.0000000E+00
 13  1  5  5   0   0  5.6161415E+01  1.4213757E+02 -5.9124611E+01  1.6386858E+02  7.0876915E-06  0.0000000E+00  1.0000000E+00
</event>
<event>
9 100 1.0000000E+00 1.0000000E+03 7.8125000E-03 0.0000000E+00
 21 -1  0  0 501 502  0.0000000E+00  0.0000000E+00  1.3700021E+03  1.3700021E+03  0.0000000E+00  0.0000000E+00  1.0000000E+00
 21 -1  0  0 502 501  0.0000000E+00  0.0000000E+00 -1.8231876E+02  1.8231876E+02  0.0000000E+00  0.0000000E+00  1.0000000E+00
 39  2  1  2   0   0  1.8758328E-12  1.1368684E-12  1.1876833E+03  1.5523209E+03  9.9955408E+02  0.0000000E+00  1.0000000E+00
 23  2  3  3   0   0  3.7908429E+02  2.1494127E+02  9.4581957E+02  1.0454838E+03  9.2504938E+01  0.0000000E+00  1.0000000E+00
 23  2  3  3   0   0 -3.7908429E+02 -2.1494127E+02  2.4186376E+02  5.0683701E+02  9.2092523E+01  0.0000000E+00  1.0000000E+00
-11  1  4  4   0   0  1.9883412E+02  8.1123491E+01  3.7546872E+02  4.3254223E+02  7.6293945E-06  0.0000000E+00  1.0000000E+00
 11  1  4  4   0   0  1.8025017E+02  1.3381778E+02  5.7035086E+02  6.1294161E+02  1.0789593E-05  0.0000000E+00  1.0000000E+00
-13  1  5  5   0   0 -2.2339519E+02 -7.8132484E+01  1.0827284E+02  2.6025585E+02  8.3139399E-06  0.0000000E+00  1.0000000E+00
 13  1  5  5   0   0 -1.5568909E+02 -1.3680879E+02  1.3359092E+02  2.4658117E+02  8.6358882E-06  0.0000000E+00  1.0000000E+00
</event>
<event>
9 100 1.0000000E+00 1.0000000E+03 7.8125000E-03 0.0000000E+00
 21 -1  0  0 501 502  0.0000000E+00  0.0000000E+00  5.8777669E+02  5.8777669E+02  0.0000000E+00  0.0000000E+00  1.0000000E+00
 21 -1  0  0 502 501  0.0000000E+00  0.0000000E+00 -4.2943787E+02  4.2943787E+02  0.0000000E+00  0.0000000E+00  1.0000000E+00
 39  2  1  2   0   0  5.6843419E-13  3.5527137E-14  1.5833883E+02  1.0172146E+03  1.0048155E+03  0.0000000E+00  1.0000000E+00
 23  2  3  3   0   0 -3.6953366E+02 -2.8156656E+01  4.1011077E+02  5.6002239E+02  8.9923906E+01  0.0000000E+00  1.0000000E+00
 23  2  3  3   0   0  3.6953366E+02  2.8156656E+01 -2.5177194E+02  4.5719217E+02  9.1036498E+01  0.0000000E+00  1.0000000E+00
-11  1  4  4   0   0 -8.4513675E+01  1.9019947E+01  5.6599601E+01  1.0347867E+02  5.3947966E-06  0.0000000E+00  1.0000000E+00
 11  1  4  4   0   0 -2.8501999E+02 -4.7176602E+01  3.5351117E+02  4.5654372E+02  3.6314836E-06  0.0000000E+00  1.0000000E+00
-13  1  5  5   0   0  3.4187557E+02  1.9100660E+01 -2.5634232E+02  4.2773254E+02  2.2938110E-06  0.0000000E+00  1.0000000E+00
 13  1  5  5   0   0  2.7658095E+01  9.0559958E+00  4.5703841E+00  2.9459628E+01  6.6072495E-06  0.0000000E+00  1.0000000E+00
</event>
<event>
9 100 1.0000000E+00 1.0000000E+03 7.8125000E-03 0.0000000E+00
 21 -1  0  0 501 502  0.0000000E+00  0.0000000E+00  4.6339337E+02  4.6339337E+02  0.0000000E+00  0.0000000E+00  1.0000000E+00
 21 -1  0  0 502 501  0.0000000E+00  0.0000000E+00 -5.2919644E+02  5.2919644E+02  0.0000000E+00  0.0000000E+00  1.0000000E+00
 39  2  1  2   0   0 -4.8316906E-13  1.1368684E-12 -6.5803075E+01  9.9258981E+02  9.9040622E+02  0.0000000E+00  1.0000000E+00
 23  2  3  3   0   0  1.6931536E+02 -4.4610439E+02  6.1059922E+01  4.9063585E+02  9.6531876E+01  0.0000000E+00  1.0000000E+00
 23  2  3  3   0   0 -1.6931536E+02  4.4610439E+02 -1.2686300E+02  5.0195396E+02  9.0480560E+01  0.0000000E+00  1.0000000E+00
-11  1  4  4   0   0  1.1791307E+02 -1.7734430E+02  1.9341896E+01  2.1384247E+02  7.3562854E-06  0.0000000E+00  1.0000000E+00
 11  1  4  4   0   0  5.1402295E+01 -2.6876009E+02  4.1718026E+01  2.7679338E+02  4.2981521E-06  0.0000000E+00  1.0000000E+00
-13  1  5  5   0   0 -2.7576372E+01  7.3499948E+01 -5.7507913E+01  9.7313199E+01  8.8440118E-06  0.0000000E+00  1.0000000E+00
 13  1  5  5   0   0 -1.4173899E+02  3.7260445E+02 -6.9355083E+01  4.0464076E+02  1.7841613E-06  0.0000000E+00  1.0000000E+00
</event>
<event>
9 100 1.0000000E+00 1.0000000E+03 7.8125000E-03 0.0000000E+00
 21 -1  0  0 501 502  0.0000000E+00  0.0000000E+00  5.4750311E+02  5.4750311E+02  0.0000000E+00  0.0000000E+00  1.0000000E+00
 21 -1  0  0 502 501  0.0000000E+00  0.0000000E+00 -4.4019933E+02  4.4019933E+02  0.0000000E+00  0.0000000E+00  1.0000000E+00
 39  2  1  2   0   0  1.9895197E-13 -3.9790393E-13  1.0730378E+02  9.8770244E+02  9.8185641E+02  0.0000000E+00  1.0000000E+00
 23  2  3  3   0   0 -1.4641210E+02  3.1360344E+02  3.9168173E+02  5.3065272E+02  9.1619376E+01  0.0000000E+00  1.0000000E+00
 23  2  3  3   0   0  1.4641210E+02 -3.1360344E+02 -2.8437795E+02  4.5704971E+02  9.0774422E+01  0.0000000E+00  1.0000000E+00
-11  1  4  4   0   0  3.9708107E-01  5.8388262E+01  3.4717521E+01  6.7931238E+01  1.6184390E-05  0.0000000E+00  1.0000000E+00
 11  1  4  4   0   0 -1.4680918E+02  2.5521518E+02  3.5696421E+02  4.6272149E+02  4.5487366E-06  0.0000000E+00  1.0000000E+00
-13  1  5  5   0   0  2.9342589E+00 -2.6387334E+01 -5.9246052E+01  6.4923000E+01  5.3947966E-06  0.0000000E+00  1.0000000E+00
 13  1  5  5   0   0  1.4347784E+02 -2.8721611E+02 -2.2513190E+02  3.9212671E+02  9.5367432E-07  0.0000000E+00  1.0000000E+00
</event>
<event>
9 100 1.0000000E+00 1.0000000E+03 7.8125000E-03 0.0000000E+00
 21 -1  0  0 501 502  0.0000000E+00  0.0000000E+00  3.0059999E+02  3.0059999E+02  0.0000000E+00  0.0000000E+00  1.0000000E+00
 21 -1  0  0 502 501  0.0000000E+00  0.0000000E+00 -8.3223487E+02  8.3223487E+02  0.0000000E+00  0.0000000E+00  1.0000000E+00
 39  2  1  2   0   0  4.5474735E-13  3.5527137E-14 -5.3163488E+02  1.1328349E+03  1.0003395E+03  0.0000000E+00  1.0000000E+00
 23  2  3  3   0   0 -2.6305234E+02 -1.8570225E+01 -7.3580712E+02  7.8698989E+02  9.1649202E+01  0.0000000E+00  1.0000000E+00
 23  2  3  3   0   0  2.6305234E+02  1.8570225E+01  2.0417224E+02  3.4584497E+02  9.1548081E+01  0.0000000E+00  1.0000000E+00
-11  1  4  4   0   0 -9.7270032E+01  3.5908086E+01 -2.4290441E+02  2.6410870E+02  7.6293945E-06  0.0000000E+00  1.0000000E+00
 11  1  4  4   0   0 -1.6578231E+02 -5.4478310E+01 -4.9290271E+02  5.2288119E+02  6.6072495E-06  0.0000000E+00  1.0000000E+00
-13  1  5  5   0   0  2.1640113E+02  2.0936793E+01  2.0543375E+02  2.9911674E+02  2.2945853E-06  0.0000000E+00  1.0000000E+00
 13  1  5  5   0   0  4.6651209E+01 -2.3665684E+00 -1.2615074E+00  4.6728229E+01  6.0315660E-06  0.0000000E+00  1.0000000E+00
</event>
<event>
9 100 1.0000000E+00 1.0000000E+03 7.8125000E-03 0.0000000E+00
 21 -1  0  0 501 502  0.0000000E+00  0.0000000E+00  1.3739097E+02  1.3739097E+02  0.0000000E+00  0.0000000E+00  1.0000000E+00
 21 -1  0  0 502 501  0.0000000E+00  0.0000000E+00 -1.5321973E+03  1.5321973E+03  0.0000000E+00  0.0000000E+00  1.0000000E+00
 39  2  1  2   0   0  2.4726887E-12 -3.0695446E-12 -1.3948064E+03  1.6695883E+03  9.1762755E+02  0.0000000E+00  1.0000000E+00
 23  2  3  3   0   0 -1.5691347E+02  1.9400031E+02 -1.6517789E+01  2.6596109E+02  9.0578747E+01  0.0000000E+00  1.0000000E+00
 23  2  3  3   0   0  1.5691347E+02 -1.9400031E+02 -1.3782886E+03  1.4036272E+03  9.0730388E+01  0.0000000E+00  1.0000000E+00
-11  1  4  4   0   0 -4.7934062E+01  1.0432184E+02 -4.2564994E+01  1.2244386E+02  6.1897063E-06  0.0000000E+00  1.0000000E+00
 11  1  4  4   0   0 -1.0897941E+02  8.9678470E+01  2.6047205E+01  1.4351724E+02  3.9030804E-06  0.0000000E+00  1.0000000E+00
-13  1  5  5   0   0  4.6291450E+01 -1.2875257E+02 -6.8064969E+02  6.9426516E+02  1.0789593E-05  0.0000000E+00  1.0000000E+00
 13  1  5  5   0   0  1.1062202E+02 -6.5247737E+01 -6.9763889E+02  7.0936205E+02  2.0185481E-05  0.0000000E+00  1.0000000E+00
</event>
<event>
9 100 1.0000000E+00 1.0000000E+03 7.8125000E-03 0.0000000E+00
 21 -1  0  0 501 502  0.0000000E+00  0.0000000E+00  2.7033265E+02  2.7033265E+02  0.0000000E+00  0.0000000E+00  1.0000000E+00
 21 -1  0  0 502 501  0.0000000E+00  0.0000000E+00 -9.4214118E+02  9.4214118E+02  0.0000000E+00  0.0000000E+00  1.0000000E+00
 39  2  1  2   0   0 -1.7053026E-12  1.6484591E-12 -6.7180852E+02  1.2124738E+03  1.0093394E+03  0.0000000E+00  1.0000000E+00
 23  2  3  3   0   0 -2.7669919E+02  2.5954771E+02 -7.2095913E+02  8.1971822E+02  9.0710722E+01  0.0000000E+00  1.0000000E+00
 23  2  3  3   0   0  2.7669919E+02 -2.5954771E+02  4.9150611E+01  3.9275561E+02  8.8959148E+01  0.0000000E+00  1.0000000E+00
-11  1  4  4   0   0 -2.6416517E+02  2.0578101E+02 -6.1725399E+02  7.0223326E+02  5.8788433E-06  0.0000000E+00  1.0000000E+00
 11  1  4  4   0   0 -1.2534018E+01  5.3766699E+01 -1.0370514E+02  1.1748496E+02  1.5258789E-05  0.0000000E+00  1.0000000E+00
-13  1  5  5   0   0  1.7254849E+02 -1.0090816E+02  2.6325976E+01  2.0161472E+02  9.4829473E-06  0.0000000E+00  1.0000000E+00
 13  1  5  5   0   0  1.0415070E+02 -1.5863955E+02  2.2824635E+01  1.9114089E+02  9.3074900E-06  0.0000000E+00  1.0000000E+00
</event>
<event>
9 100 1.0000000E+00 1.0000000E+03 7.8125000E-03 0.0000000E+00
 21 -1  0  0 501 502  0.0000000E+00  0.0000000E+00  7.3802837E+02  7.3802837E+02  0.0000000E+00  0.0000000E+00  1.0000000E+00
 21 -1  0  0 502 501  0.0000000E+00  0.0000000E+00 -3.4413125E+02  3.4413125E+02  0.0000000E+00  0.0000000E+00  1.0000000E+00
 39  2  1  2   0   0  2.8421709E-12 -8.5265128E-13  3.9389712E+02  1.0821596E+03  1.0079258E+03  0.0000000E+00  1.0000000E+00
 23  2  3  3   0   0 -3.8585286E+02  1.1734312E+02  5.0682961E+02  6.5408039E+02  9.1066258E+01  0.0000000E+00  1.0000000E+00
 23  2  3  3   0   0  3.8585286E+02 -1.1734312E+02 -1.1293249E+02  4.2807924E+02  8.8579043E+01  0.0000000E+00  1.0000000E+00
-11  1  4  4   0   0 -3.1514232E+02  1.0118025E+02  4.6363990E+02  5.6966137E+02  6.7434958E-07  0.0000000E+00  1.0000000E+00
 11  1  4  4   0   0 -7.0710540E+01  1.6162872E+01  4.3189710E+01  8.4419014E+01  1.6184390E-05  0.0000000E+00  1.0000000E+00
-13  1  5  5   0   0  1.4725514E+02 -5.3311122E+01 -8.8370612E+01  1.7982079E+02  9.7780689E-06  0.0000000E+00  1.0000000E+00
 13  1  5  5   0   0  2.3859772E+02 -6.4032001E+01 -2.4561874E+01  2.4825844E+02  7.2000832E-06  0.0000000E+00  1.0000000E+00
</event>
<event>
9 100 1.0000000E+00 1.0000000E+03 7.8125000E-03 0.0000000E+00
 21 -1  0  0 501 502  0.0000000E+00  0.0000000E+00  8.6339260E+02  8.6339260E+02  0.0000000E+00  0.0000000E+00  1.0000000E+00
 21 -1  0  0 502 501  0.0000000E+00  0.0000000E+00 -2.8774787E+02  2.8774787E+02  0.0000000E+00  0.0000000E+00  1.0000000E+00
 39  2  1  2   0   0  2.0605739E-13 -1.5916157E-12  5.7564473E+02  1.1511405E+03  9.9687387E+02  0.0000000E+00  1.0000000E+00
 23  2  3  3   0   0 -5.3442962E+01  3.7430643E+02  6.4229182E+02  7.5190208E+02  9.9279928E+01  0.0000000E+00  1.0000000E+00
 23  2  3  3   0   0  5.3442962E+01 -3.7430643E+02 -6.6647090E+01  3.9923839E+02  1.0948974E+02  0.0000000E+00  1.0000000E+00
-11  1  4  4   0   0  2.0973448E+01  2.4961129E+01  7.1213399E+01  7.8321719E+01  1.5258789E-05  0.0000000E+00  1.0000000E+00
 11  1  4  4   0   0 -7.4416410E+01  3.4934530E+02  5.7107842E+02  6.7358036E+02  0.0000000E+00  0.0000000E+00  1.0000000E+00
-13  1  5  5   0   0  2.9378559E+01 -2.1047096E+02 -9.2262758E+01  2.3167551E+02  7.9361520E-06  0.0000000E+00  1.0000000E+00
 13  1  5  5   0   0  2.4064403E+01 -1.6383547E+02  2.5615668E+01  1.6756288E+02  7.6293945E-06  0.0000000E+00  1.0000000E+00
</event>
<event>
9 100 1.0000000E+00 1.0000000E+03 7.8125000E-03 0.0000000E+00
 21 -1  0  0 501 502  0.0000000E+00  0.0000000E+00  6.0433049E+02  6.0433049E+02  0.0000000E+00  0.0000000E+00  1.0000000E+00
 21 -1  0  0 502 501  0.0000000E+00  0.0000000E+00 -4.0727228E+02  4.0727228E+02  0.0000000E+00  0.0000000E+00  1.0000000E+00
 39  2  1  2   0   0  4.2632564E-14  6.3948846E-14  1.9705821E+02  1.0116028E+03  9.9222387E+02  0.0000000E+00  1.0000000E+00
 23  2  3  3   0   0  3.9129058E+01  5.8200497E+01 -3.9427455E+02  4.0928470E+02  8.4517231E+01  0.0000000E+00  1.0000000E+00
 23  2  3  3   0   0 -3.9129058E+01 -5.8200497E+01  5.9133276E+02  6.0231806E+02  9.0521975E+01  0.0000000E+00  1.0000000E+00
-11  1  4  4   0   0 -7.9774535E+00 -3.0896910E+00 -2.0018647E+02  2.0036918E+02  5.3947966E-06  0.0000000E+00  1.0000000E+00
 11  1  4  4   0   0  4.7106511E+01  6.1290188E+01 -1.9408808E+02  2.0891552E+02  2.6973983E-06  0.0000000E+00  1.0000000E+00
-13  1  5  5   0   0 -3.1875676E+01 -2.4208516E+01  5.3237595E+02  5.3387851E+02  6.7434958E-07  0.0000000E+00  1.0000000E+00
 13  1  5  5   0   0 -7.2533815E+00 -3.3991982E+01  5.8956817E+01  6.8439555E+01  7.6293945E-06  0.0000000E+00  1.0000000E+00
</event>
<event>
9 100 1.0000000E+00 1.0000000E+03 7.8125000E-03 0.0000000E+00
 21 -1  0  0 501 502  0.0000000E+00  0.0000000E+00  1.2706294E+03  1.2706294E+03  0.0000000E+00  0.0000000E+00  1.0000000E+00
 21 -1  0  0 502 501  0.0000000E+00  0.0000000E+00 -1.9493066E+02  1.9493066E+02  0.0000000E+00  0.0000000E+00  1.0000000E+00
 39  2  1  2   0   0 -8.3844043E-13  4.8316906E-13  1.0756987E+03  1.4655601E+03  9.9535848E+02  0.0000000E+00  1.0000000E+00
 23  2  3  3   0   0  9.9478651E+01 -5.7059623E+01 -1.2563128E+02  2.5541040E+02  1.9052415E+02  0.0000000E+00  1.0000000E+00
 23  2  3  3   0   0 -9.9478651E+01  5.7059623E+01  1.2013300E+03  1.2101497E+03  9.0091896E+01  0.0000000E+00  1.0000000E+00
-11  1  4  4   0   0  5.3681508E+01 -4.8944583E+01  4.0306520E+01  8.3077627E+01  3.3036247E-06  0.0000000E+00  1.0000000E+00
 11  1  4  4   0   0  4.5797143E+01 -8.1150401E+00 -1.6593780E+02  1.7233278E+02  4.8628039E-06  0.0000000E+00  1.0000000E+00
-13  1  5  5   0   0 -8.5533218E+01  9.1972565E+00  5.2659873E+02  5.3357918E+02  2.7508173E-05  0.0000000E+00  1.0000000E+00
 13  1  5  5   0   0 -1.3945433E+01  4.7862366E+01  6.7473130E+02  6.7657047E+02  2.6428998E-05  0.0000000E+00  1.0000000E+00
</event>
<event>
9 100 1.0000000E+00 1.0000000E+03 7.8125000E-03 0.0000000E+00
 21 -1  0  0 501 502  0.0000000E+00  0.0000000E+00  2.5121854E+03  2.5121854E+03  0.0000000E+00  0.0000000E+00  1.0000000E+00
 21 -1  0  0 502 501  0.0000000E+00  0.0000000E+00 -1.0147815E+02  1.0147815E+02  0.0000000E+00  0.0000000E+00  1.0000000E+00
 39  2  1  2   0   0  2.5313085E-14  2.6318503E-11  2.4107072E+03  2.6136635E+03  1.0098157E+03  0.0000000E+00  1.0000000E+00
 23  2  3  3   0   0  3.0594950E-01  2.8707196E+02  2.2521395E+03  2.2722065E+03  9.1541792E+01  0.0000000E+00  1.0000000E+00
 23  2  3  3   0   0 -3.0594950E-01 -2.8707196E+02  1.5856773E+02  3.4145697E+02  9.5072263E+01  0.0000000E+00  1.0000000E+00
-11  1  4  4   0   0  1.3844685E+01  2.8631290E+02  2.1017873E+03  2.1212441E+03  7.3871295E-06  0.0000000E+00  1.0000000E+00
 11  1  4  4   0   0 -1.3538735E+01  7.5905760E-01  1.5035221E+02  1.5096245E+02  9.1552734E-05  0.0000000E+00  1.0000000E+00
-13  1  5  5   0   0 -3.8680042E+00 -2.3451463E+01  5.1839843E+01  5.7028956E+01  2.0806717E-05  0.0000000E+00  1.0000000E+00
 13  1  5  5   0   0  3.5620547E+00 -2.6362049E+02  1.0672789E+02  2.8442801E+02  6.3259598E-06  0.0000000E+00  1.0000000E+00
</event>
<event>
9 100 1.0000000E+00 1.0000000E+03 7.8125000E-03 0.0000000E+00
 21 -1  0  0 501 502  0.0000000E+00  0.0000000E+00  2.0887750E+02  2.0887750E+02  0.0000000E+00  0.0000000E+00  1.0000000E+00
 21 -1  0  0 502 501  0.0000000E+00  0.0000000E+00 -1.1826769E+03  1.1826769E+03  0.0000000E+00  0.0000000E+00  1.0000000E+00
 39  2  1  2   0   0  2.8421709E-14  7.1054274E-15 -9.7379941E+02  1.3915544E+03  9.9405151E+02  0.0000000E+00  1.0000000E+00
 23  2  3  3   0   0 -1.2983858E+02  5.1936524E+01 -1.1380272E+03  1.1505238E+03  9.5098277E+01  0.0000000E+00  1.0000000E+00
 23  2  3  3   0   0  1.2983858E+02 -5.1936524E+01  1.6422774E+02  2.4103065E+02  1.0756190E+02  0.0000000E+00  1.0000000E+00
-11  1  4  4   0   0 -1.0220431E+02  5.9798722E-01 -5.3428224E+02  5.4397021E+02  1.3214499E-05  0.0000000E+00  1.0000000E+00
 11  1  4  4   0   0 -2.7634269E+01  5.1338537E+01 -6.0374491E+02  6.0655356E+02  2.1579186E-05  0.0000000E+00  1.0000000E+00
-13  1  5  5   0   0  1.4610293E+02 -5.2340739E+01  1.2747168E+02  2.0083488E+02  2.5678467E-06  0.0000000E+00  1.0000000E+00
 13  1  5  5   0   0 -1.6264345E+01  4.0421462E-01  3.6756059E+01  4.0195773E+01  6.4681339E-06  0.0000000E+00  1.0000000E+00
</event>
<event>
9 100 1.0000000E+00 1.0000000E+03 7.8125000E-03 0.0000000E+00
 21 -1  0  0 501 502  0.0000000E+00  0.0000000E+00  1.0773757E+03  1.0773757E+03  0.0000000E+00  0.0000000E+00  1.0000000E+00
 21 -1  0  0 502 501  0.0000000E+00  0.0000000E+00 -2.3304373E+02  2.3304373E+02  0.0000000E+00  0.0000000E+00  1.0000000E+00
 39  2  1  2   0   0  1.5347723E-12 -1.1652901E-12  8.4433198E+02  1.3104194E+03  1.0021490E+03  0.0000000E+00  1.0000000E+00
 23  2  3  3   0   0 -2.8007775E+02  2.2655139E+02  8.6153776E+02  9.3879846E+02  9.6572105E+01  0.0000000E+00  1.0000000E+00
 23  2  3  3   0   0  2.8007775E+02 -2.2655139E+02 -1.7205781E+01  3.7162098E+02  8.9649519E+01  0.0000000E+00  1.0000000E+00
-11  1  4  4   0   0 -4.7871484E+01  1.4281170E+01  2.0172666E+02  2.0782030E+02  2.1579186E-05  0.0000000E+00  1.0000000E+00
 11  1  4  4   0   0 -2.3220626E+02  2.1227022E+02  6.5981110E+02  7.3097816E+02  5.3947966E-06  0.0000000E+00  1.0000000E+00
-13  1  5  5   0   0  1.5039559E+02 -6.9857216E+01 -2.6886388E+01  1.6799328E+02  6.2057567E-06  0.0000000E+00  1.0000000E+00
 13  1  5  5   0   0  1.2968216E+02 -1.5669417E+02  9.6806075E+00  2.0362770E+02  5.3205284E-06  0.0000000E+00  1.0000000E+00
</event>
<event>
9 100 1.0000000E+00 1.0000000E+03 7.8125000E-03 0.0000000E+00
 21 -1  0  0 501 502  0.0000000E+00  0.0000000E+00  6.5171463E+02  6.5171463E+02  0.0000000E+00  0.0000000E+00  1.0000000E+00
 21 -1  0  0 502 501  0.0000000E+00  0.0000000E+00 -3.7198589E+02  3.7198589E+02  0.0000000E+00  0.0000000E+00  1.0000000E+00
 39  2  1  2   0   0  2.8421709E-14 -5.6843419E-14  2.7972874E+02  1.0237005E+03  9.8474088E+02  0.0000000E+00  1.0000000E+00
 23  2  3  3   0   0  7.2470102E+01 -3.1636577E+02 -2.3320619E+02  4.0998648E+02  9.1458028E+01  0.0000000E+00  1.0000000E+00
 23  2  3  3   0   0 -7.2470102E+01  3.1636577E+02  5.1293494E+02  6.1371404E+02  9.0572950E+01  0.0000000E+00  1.0000000E+00
-11  1  4  4   0   0  5.6497672E+01 -3.1091889E+02 -2.0363398E+02  3.7593795E+02  1.1680077E-06  0.0000000E+00  1.0000000E+00
 11  1  4  4   0   0  1.5972430E+01 -5.4468825E+00 -2.9572211E+01  3.4048534E+01  9.7256079E-06  0.0000000E+00  1.0000000E+00
-13  1  5  5   0   0  3.6043836E+00  1.6525127E+02  2.1631398E+02  2.7223650E+02  1.0092740E-05  0.0000000E+00  1.0000000E+00
 13  1  5  5   0   0 -7.6074486E+01  1.5111450E+02  2.9662095E+02  3.4147754E+02  8.9462581E-06  0.0000000E+00  1.0000000E+00
</event>
<event>
9 100 1.0000000E+00 1.0000000E+03 7.8125000E-03 0.0000000E+00
 21 -1  0  0 501 502  0.0000000E+00  0.0000000E+00  1.5385270E+03  1.5385270E+03  0.0000000E+00  0.0000000E+00  1.0000000E+00
 21 -1  0  0 502 501  0.0000000E+00  0.0000000E+00 -1.6097974E+02  1.6097974E+02  0.0000000E+00  0.0000000E+00  1.0000000E+00
 39  2  1  2   0   0 -1.1368684E-12 -3.4674486E-12  1.3775472E+03  1.6995067E+03  9.9533246E+02  0.0000000E+00  1.0000000E+00
 23  2  3  3   0   0 -7.9142832E+01 -2.4257711E+02  1.4015264E+03  1.4274122E+03  9.0123620E+01  0.0000000E+00  1.0000000E+00
 23  2  3  3   0   0  7.9142832E+01  2.4257711E+02 -2.3979137E+01  2.7209449E+02  9.1395665E+01  0.0000000E+00  1.0000000E+00
-11  1  4  4   0   0 -3.2005378E+01 -2.4293247E+01  1.1930752E+02  1.2589198E+02  5.2857996E-05  0.0000000E+00  1.0000000E+00
 11  1  4  4   0   0 -4.7137454E+01 -2.1828387E+02  1.2822189E+03  1.3015203E+03  8.4226235E-06  0.0000000E+00  1.0000000E+00
-13  1  5  5   0   0  9.8097729E+01  1.7266784E+02 -1.8795686E+01  1.9947588E+02  8.0550115E-06  0.0000000E+00  1.0000000E+00
 13  1  5  5   0   0 -1.8954897E+01  6.9909269E+01 -5.1834514E+00  7.2618608E+01  1.6057451E-05  0.0000000E+00  1.0000000E+00
</event>
<event>
9 100 1.0000000E+00 1.0000000E+03 7.8125000E-03 0.0000000E+00
 21 -1  0  0 501 502  0.0000000E+00  0.0000000E+00  3.3876018E+02  3.3876018E+02  0.0000000E+00  0.0000000E+00  1.0000000E+00
 21 -1  0  0 502 501  0.0000000E+00  0.0000000E+00 -7.4622802E+02  7.4622802E+02  0.0000000E+00  0.0000000E+00  1.0000000E+00
 39  2  1  2   0   0  9.6633812E-13  2.4158453E-13 -4.0746784E+02  1.0849882E+03  1.0055692E+03  0.0000000E+00  1.0000000E+00
 23  2  3  3   0   0  3.0933251E+02  8.8285340E+01 -6.1217648E+02  6.9292535E+02  4.3641702E+01  0.0000000E+00  1.0000000E+00
 23  2  3  3   0   0 -3.0933251E+02 -8.8285340E+01  2.0470864E+02  3.9206285E+02  9.1251025E+01  0.0000000E+00  1.0000000E+00
-11  1  4  4   0   0  2.6681153E+02  7.8087954E+01 -4.9301898E+02  5.6599809E+02  1.3486992E-06  0.0000000E+00  1.0000000E+00
 11  1  4  4   0   0  4.2520973E+01  1.0197386E+01 -1.1915749E+02  1.2692726E+02  0.0000000E+00  0.0000000E+00  1.0000000E+00
-13  1  5  5   0   0 -3.1565895E+02 -8.8894594E+01  1.9956659E+02  3.8388754E+02  1.5439789E-06  0.0000000E+00  1.0000000E+00
 13  1  5  5   0   0  6.3264391E+00  6.0925435E-01  5.1420466E+00  8.1753083E+00  1.3214499E-05  0.0000000E+00  1.0000000E+00
</event>
<event>
9 100 1.0000000E+00 1.0000000E+03 7.8125000E-03 0.0000000E+00
 21 -1  0  0 501 502  0.0000000E+00  0.0000000E+00  1.9872001E+03  1.9872001E+03  0.0000000E+00  0.0000000E+00  1.0000000E+00
 21 -1  0  0 502 501  0.0000000E+00  0.0000000E+00 -1.2466607E+02  1.2466607E+02  0.0000000E+00  0.0000000E+00  1.0000000E+00
 39  2  1  2   0   0  4.2632564E-13  4.2632564E-13  1.8625341E+03  2.1118662E+03  9.9546258E+02  0.0000000E+00  1.0000000E+00
 23  2  3  3   0   0  1.8430194E+02  1.6937643E+02  3.8972484E+01  2.6869627E+02  8.9572578E+01  0.0000000E+00  1.0000000E+00
 23  2  3  3   0   0 -1.8430194E+02 -1.6937643E+02  1.8235616E+03  1.8431699E+03  9.6140671E+01  0.0000000E+00  1.0000000E+00
-11  1  4  4   0   0  5.0737106E+01  5.3014561E+01  5.3716118E+01  9.0940744E+01  9.0143035E-06  0.0000000E+00  1.0000000E+00
 11  1  4  4   0   0  1.3356484E+02  1.1636187E+02 -1.4743634E+01  1.7775552E+02  6.0691462E-06  0.0000000E+00  1.0000000E+00
-13  1  5  5   0   0  2.9029193E+00 -3.0398915E+01  1.2473564E+02  1.2841924E+02  3.0517578E-05  0.0000000E+00  1.0000000E+00
 13  1  5  5   0   0 -1.8720486E+02 -1.3897752E+02  1.6988259E+03  1.7147507E+03  4.4731290E-06  0.0000000E+00  1.0000000E+00
</event>
<event>
9 100 1.0000000E+00 1.0000000E+03 7.8125000E-03 0.0000000E+00
 21 -1  0  0 501 502  0.0000000E+00  0.0000000E+00  1.3184281E+03  1.3184281E+03  0.0000000E+00  0.0000000E+00  1.0000000E+00
 21 -1  0  0 502 501  0.0000000E+00  0.0000000E+00 -2.1129643E+02  2.1129643E+02  0.0000000E+00  0.0000000E+00  1.0000000E+00
 39  2  1  2   0   0  2.0463631E-12 -9.5212727E-13  1.1071316E+03  1.5297245E+03  1.0556119E+03  0.0000000E+00  1.0000000E+00
 23  2  3  3   0   0  1.7488368E+02 -8.1949434E+01  1.2537165E+03  1.2718110E+03  9.1641328E+01  0.0000000E+00  1.0000000E+00
 23  2  3  3   0   0 -1.7488368E+02  8.1949434E+01 -1.4658489E+02  2.5791347E+02  8.7933031E+01  0.0000000E+00  1.0000000E+00
-11  1  4  4   0   0  1.0283038E+02 -9.4801534E+00  4.5429128E+02  4.6588038E+02  2.4126264E-05  0.0000000E+00  1.0000000E+00
 11  1  4  4   0   0  7.2053301E+01 -7.2469281E+01  7.9942525E+02  8.0593065E+02  1.0789593E-05  0.0000000E+00  1.0000000E+00
-13  1  5  5   0   0 -4.7799176E+01 -8.9432548E+00 -8.4379608E+00  4.9355265E+01  1.5018478E-05  0.0000000E+00  1.0000000E+00
 13  1  5  5   0   0 -1.2708451E+02  9.0892689E+01 -1.3814693E+02  2.0855821E+02  6.1701604E-06  0.0000000E+00  1.0000000E+00
</event>
<event>
9 100 1.0000000E+00 1.0000000E+03 7.8125000E-03 0.0000000E+00
 21 -1  0  0 501 502  0.0000000E+00  0.0000000E+00  2.7589143E+02  2.7589143E+02  0.0000000E+00  0.0000000E+00  1.0000000E+00
 21 -1  0  0 502 501  0.0000000E+00  0.0000000E+00 -9.1122850E+02  9.1122850E+02  0.0000000E+00  0.0000000E+00  1.0000000E+00
 39  2  1  2   0   0  2.7000624E-12 -2.2737368E-12 -6.3533707E+02  1.1871199E+03  1.0027964E+03  0.0000000E+00  1.0000000E+00
 23  2  3  3   0   0  1.9356067E+02 -1.6541801E+02 -8.1718501E+02  8.6068809E+02  9.0353787E+01  0.0000000E+00  1.0000000E+00
 23  2  3  3   0   0 -1.9356067E+02  1.6541801E+02  1.8184794E+02  3.2643183E+02  9.3060288E+01  0.0000000E+00  1.0000000E+00
-11  1  4  4   0   0  4.8401729E+01 -8.9000547E+01 -2.3672546E+02  2.5749324E+02  1.5258789E-05  0.0000000E+00  1.0000000E+00
 11  1  4  4   0   0  1.4515894E+02 -7.6417468E+01 -5.8045955E+02  6.0319485E+02  9.7256079E-06  0.0000000E+00  1.0000000E+00
-13  1  5  5   0   0 -1.2252564E+02  9.4050266E+01  5.3859927E+01  1.6358140E+02  5.8788433E-06  0.0000000E+00  1.0000000E+00
 13  1  5  5   0   0 -7.1035031E+01  7.1367748E+01  1.2798801E+02  1.6285043E+02  4.5236745E-06  0.0000000E+00  1.0000000E+00
</event>
<event>
9 100 1.0000000E+00 1.0000000E+03 7.8125000E-03 0.0000000E+00
 21 -1  0  0 501 502  0.0000000E+00  0.0000000E+00  1.1020370E+03  1.1020370E+03  0.0000000E+00  0.0000000E+00  1.0000000E+00
 21 -1  0  0 502 501  0.0000000E+00  0.0000000E+00 -2.2654504E+02  2.2654504E+02  0.0000000E+00  0.0000000E+00  1.0000000E+00
 39  2  1  2   0   0  7.9580786E-13 -3.4106051E-13  8.7549192E+02  1.3285820E+03  9.9932179E+02  0.0000000E+00  1.0000000E+00
 23  2  3  3   0   0  2.7781803E+02 -1.1661397E+02 -7.8424909E+01  3.2396805E+02  8.9572047E+01  0.0000000E+00  1.0000000E+00
 23  2  3  3   0   0 -2.7781803E+02  1.1661397E+02  9.5391683E+02  1.0046140E+03  9.2250781E+01  0.0000000E+00  1.0000000E+00
-11  1  4  4   0   0  2.4945289E+02 -8.3539465E+01 -4.0432317E+01  2.6615852E+02  4.8393686E-06  0.0000000E+00  1.0000000E+00
 11  1  4  4   0   0  2.8365147E+01 -3.3074509E+01 -3.7992591E+01  5.7809530E+01  1.4689371E-05  0.0000000E+00  1.0000000E+00
-13  1  5  5   0   0 -6.5323749E+01  7.7969949E+00  1.1606377E+02  1.3341209E+02  3.8902432E-05  0.0000000E+00  1.0000000E+00
 13  1  5  5   0   0 -2.1249428E+02  1.0881698E+02  8.3785305E+02  8.7120187E+02  1.9073486E-06  0.0000000E+00  1.0000000E+00
</event>
<event>
9 100 1.0000000E+00 1.0000000E+03 7.8125000E-03 0.0000000E+00
 21 -1  0  0 501 502  0.0000000E+00  0.0000000E+00  2.4158138E+02  2.4158138E+02  0.0000000E+00  0.0000000E+00  1.0000000E+00
 21 -1  0  0 502 501  0.0000000E+00  0.0000000E+00 -9.8863868E+02  9.8863868E+02  0.0000000E+00  0.0000000E+00  1.0000000E+00
 39  2  1  2   0   0 -2.8990144E-12 -2.2168933E-12 -7.4705730E+02  1.2302201E+03  9.7741842E+02  0.0000000E+00  1.0000000E+00
 23  2  3  3   0   0 -3.5391348E+02 -2.7994812E+02 -1.6777767E+02  4.8995500E+02  9.0999175E+01  0.0000000E+00  1.0000000E+00
 23  2  3  3   0   0  3.5391348E+02  2.7994812E+02 -5.7927964E+02  7.4026506E+02  9.3817680E+01  0.0000000E+00  1.0000000E+00
-11  1  4  4   0   0 -1.5218355E+02 -6.8999578E+01 -4.3120068E+01  1.7256916E+02  1.3419387E-05  0.0000000E+00  1.0000000E+00
 11  1  4  4   0   0 -2.0172994E+02 -2.1094854E+02 -1.2465760E+02  3.1738584E+02  8.4091149E-06  0.0000000E+00  1.0000000E+00
-13  1  5  5   0   0  1.5232287E+02  6.9190401E+01 -2.4459073E+02  2.9633459E+02  9.3440618E-06  0.0000000E+00  1.0000000E+00
 13  1  5  5   0   0  2.0159062E+02  2.1075772E+02 -3.3468891E+02  4.4393047E+02  1.0789593E-05  0.0000000E+00  1.0000000E+00
</event>
<event>
9 100 1.0000000E+00 1.0000000E+03 7.8125000E-03 0.0000000E+00
 21 -1  0  0 501 502  0.0000000E+00  0.0000000E+00  8.4036037E+02  8.4036037E+02  0.0000000E+00  0.0000000E+00  1.0000000E+00
 21 -1  0  0 502 501  0.0000000E+00  0.0000000E+00 -2.9416095E+02  2.9416095E+02  0.0000000E+00  0.0000000E+00  1.0000000E+00
 39  2  1  2   0   0  4.2632564E-14  2.8421709E-14  5.4619942E+02  1.1345213E+03  9.9438665E+02  0.0000000E+00  1.0000000E+00
 23  2  3  3   0   0 -6.7196898E+01 -1.8122742E+02 -2.3842983E+02  3.2134982E+02  9.5174152E+01  0.0000000E+00  1.0000000E+00
 23  2  3  3   0   0  6.7196898E+01  1.8122742E+02  7.8462925E+02  8.1317151E+02  9.0807675E+01  0.0000000E+00  1.0000000E+00
-11  1  4  4   0   0  9.1491447E+00 -1.0325428E+01 -6.4082572E+01  6.5550723E+01  1.1757687E-05  0.0000000E+00  1.0000000E+00
 11  1  4  4   0   0 -7.6346042E+01 -1.7090199E+02 -1.7434726E+02  2.5579909E+02  4.1569700E-06  0.0000000E+00  1.0000000E+00
-13  1  5  5   0   0  6.1955729E+01  1.8307175E+02  6.4264340E+02  6.7107698E+02  2.6973983E-06  0.0000000E+00  1.0000000E+00
 13  1  5  5   0   0  5.2411683E+00 -1.8443258E+00  1.4198585E+02  1.4209452E+02  7.6293945E-06  0.0000000E+00  1.0000000E+00
</event>
<event>
9 100 1.0000000E+00 1.0000000E+03 7.8125000E-03 0.0000000E+00
 21 -1  0  0 501 502  0.0000000E+00  0.0000000E+00  5.3637564E+02  5.3637564E+02  0.0000000E+00  0.0000000E+00  1.0000000E+00
 21 -1  0  0 502 501  0.0000000E+00  0.0000000E+00 -4.5353326E+02  4.5353326E+02  0.0000000E+00  0.0000000E+00  1.0000000E+00
 39  2  1  2   0   0 -3.9790393E-13  0.0000000E+00  8.2842372E+01  9.8990890E+02  9.8643640E+02  0.0000000E+00  1.0000000E+00
 23  2  3  3   0   0  3.8360001E+02 -3.0464070E+00  3.3852497E+02  5.1964837E+02  9.0978138E+01  0.0000000E+00  1.0000000E+00
 23  2  3  3   0   0 -3.8360001E+02  3.0464070E+00 -2.5568260E+02  4.7026053E+02  9.2806958E+01  0.0000000E+00  1.0000000E+00
-11  1  4  4   0   0  3.4775117E+02 -1.8699622E+01  2.6966787E+02  4.4045579E+02  2.5231851E-06  0.0000000E+00  1.0000000E+00
 11  1  4  4   0   0  3.5848845E+01  1.5653215E+01  6.8857103E+01  7.9192572E+01  1.0092740E-05  0.0000000E+00  1.0000000E+00
-13  1  5  5   0   0 -2.8818787E+02 -3.5503404E+01 -2.0579967E+02  3.5590202E+02  5.8788433E-06  0.0000000E+00  1.0000000E+00
 13  1  5  5   0   0 -9.5412139E+01  3.8549811E+01 -4.9882924E+01  1.1435852E+02  9.3440618E-06  0.0000000E+00  1.0000000E+00
</event>
<event>
9 100 1.0000000E+00 1.0000000E+03 7.8125000E-03 0.0000000E+00
 21 -1  0  0 501 502  0.0000000E+00  0.0000000E+00  5.0513834E+02  5.0513834E+02  0.0000000E+00  0.0000000E+00  1.0000000E+00
 21 -1  0  0 502 501  0.0000000E+00  0.0000000E+00 -5.0018111E+02  5.0018111E+02  0.0000000E+00  0.0000000E+00  1.0000000E+00
 39  2  1  2   0   0  5.6843419E-14 -5.1159077E-13  4.9572344E+00  1.0053194E+03  1.0053072E+03  0.0000000E+00  1.0000000E+00
 23  2  3  3   0   0 -3.7728187E+01  3.0062812E+02 -3.8788754E+02  5.0122701E+02  9.4715848E+01  0.0000000E+00  1.0000000E+00
 23  2  3  3   0   0  3.7728187E+01 -3.0062812E+02  3.9284478E+02  5.0409244E+02  8.9339154E+01  0.0000000E+00  1.0000000E+00
-11  1  4  4   0   0  2.0053587E+01  9.0165783E+01 -7.1234399E+01  1.1664628E+02  1.0092740E-05  0.0000000E+00  1.0000000E+00
 11  1  4  4   0   0 -5.7781775E+01  2.1046233E+02 -3.1665314E+02  3.8458073E+02  4.2649612E-06  0.0000000E+00  1.0000000E+00
-13  1  5  5   0   0  5.2680789E+00 -2.3836550E+02  2.5319429E+02  3.4778329E+02  4.2649612E-06  0.0000000E+00  1.0000000E+00
 13  1  5  5   0   0  3.2460108E+01 -6.2262613E+01  1.3965049E+02  1.5630915E+02  6.6072495E-06  0.0000000E+00  1.0000000E+00
</event>
<event>
9 100 1.0000000E+00 1.0000000E+03 7.8125000E-03 0.0000000E+00
 21 -1  0  0 501 502  0.0000000E+00  0.0000000E+00  2.6715628E+02  2.6715628E+02  0.0000000E+00  0.0000000E+00  1.0000000E+00
 21 -1  0  0 502 501  0.0000000E+00  0.0000000E+00 -5.0385636E+02  5.0385636E+02  0.0000000E+00  0.0000000E+00  1.0000000E+00
 39  2  1  2   0   0  1.7053026E-13 -1.7053026E-13 -2.3670008E+02  7.7101264E+02  7.3378032E+02  0.0000000E+00  1.0000000E+00
 23  2  3  3   0   0  1.6541250E+02 -1.6425135E+02 -4.0016428E+02  4.7216191E+02  9.2008806E+01  0.0000000E+00  1.0000000E+00
 23  2  3  3   0   0 -1.6541250E+02  1.6425135E+02  1.6346420E+02  2.9885073E+02  9.0837283E+01  0.0000000E+00  1.0000000E+00
-11  1  4  4   0   0  1.0134160E+02 -1.0231715E+02 -3.2539240E+02  3.5583583E+02  2.8610229E-06  0.0000000E+00  1.0000000E+00
 11  1  4  4   0   0  6.4070897E+01 -6.1934196E+01 -7.4771876E+01  1.1632608E+02  1.1444092E-05  0.0000000E+00  1.0000000E+00
-13  1  5  5   0   0 -1.0224386E+02  9.7372242E+01  1.4978973E+02  2.0584490E+02  5.5223631E-06  0.0000000E+00  1.0000000E+00
 13  1  5  5   0   0 -6.3168639E+01  6.6879106E+01  1.3674465E+01  9.3005822E+01  1.0446979E-05  0.0000000E+00  1.0000000E+00
</event>
<event>
9 100 1.0000000E+00 1.0000000E+03 7.8125000E-03 0.0000000E+00
 21 -1  0  0 501 502  0.0000000E+00  0.0000000E+00  5.5067581E+02  5.5067581E+02  0.0000000E+00  0.0000000E+00  1.0000000E+00
 21 -1  0  0 502 501  0.0000000E+00  0.0000000E+00 -4.7193396E+02  4.7193396E+02  0.0000000E+00  0.0000000E+00  1.0000000E+00
 39  2  1  2   0   0  0.0000000E+00 -1.7053026E-13  7.8741847E+01  1.0226098E+03  1.0195737E+03  0.0000000E+00  1.0000000E+00
 23  2  3  3   0   0  1.3290887E+02 -4.6188938E+02 -1.0370549E+02  5.0021108E+02  9.1922401E+01  0.0000000E+00  1.0000000E+00
 23  2  3  3   0   0 -1.3290887E+02  4.6188938E+02  1.8244733E+02  5.2239869E+02  9.2772793E+01  0.0000000E+00  1.0000000E+00
-11  1  4  4   0   0  5.9867057E+01 -3.2170130E+02 -3.9522260E+01  3.2960249E+02  4.4731290E-06  0.0000000E+00  1.0000000E+00
 11  1  4  4   0   0  7.3041817E+01 -1.4018808E+02 -6.4183225E+01  1.7060859E+02  8.9080533E-06  0.0000000E+00  1.0000000E+00
-13  1  5  5   0   0 -6.6377210E+01  2.1236069E+02  1.3375457E+02  2.5960216E+02  9.6787372E-06  0.0000000E+00  1.0000000E+00
 13  1  5  5   0   0 -6.6531664E+01  2.4952869E+02  4.8692762E+01  2.6279653E+02  1.0092740E-05  0.0000000E+00  1.0000000E+00
</event>
<event>
9 100 1.0000000E+00 1.0000000E+03 7.8125000E-03 0.0000000E+00
 21 -1  0  0 501 502  0.0000000E+00  0.0000000E+00  2.2093443E+02  2.2093443E+02  0.0000000E+00  0.0000000E+00  1.0000000E+00
 21 -1  0  0 502 501  0.0000000E+00  0.0000000E+00 -1.1264805E+03  1.1264805E+03  0.0000000E+00  0.0000000E+00  1.0000000E+00
 39  2  1  2   0   0  1.8189894E-12 -5.2864380E-12 -9.0554607E+02  1.3474149E+03  9.9775414E+02  0.0000000E+00  1.0000000E+00
 23  2  3  3   0   0 -9.3861598E+01  2.7693482E+02  7.9098686E+01  3.1642477E+02  9.1461129E+01  0.0000000E+00  1.0000000E+00
 23  2  3  3   0   0  9.3861598E+01 -2.7693482E+02 -9.8464476E+02  1.0309902E+03  8.8952465E+01  0.0000000E+00  1.0000000E+00
-11  1  4  4   0   0 -4.2999487E+01  2.2799782E+02  3.9073953E+01  2.3528438E+02  5.9173935E-06  0.0000000E+00  1.0000000E+00
 11  1  4  4   0   0 -5.0862111E+01  4.8936991E+01  4.0024733E+01  8.1140389E+01  1.3084815E-05  0.0000000E+00  1.0000000E+00
-13  1  5  5   0   0  1.9762747E+01 -2.3213003E+00 -9.1871648E+01  9.4001884E+01  2.6428998E-05  0.0000000E+00  1.0000000E+00
 13  1  5  5   0   0  7.4098851E+01 -2.7461352E+02 -8.9277311E+02  9.3698829E+02  3.5683226E-06  0.0000000E+00  1.0000000E+00
</event>
<event>
9 100 1.0000000E+00 1.0000000E+03 7.8125000E-03 0.0000000E+00
 21 -1  0  0 501 502  0.0000000E+00  0.0000000E+00  2.9382644E+02  2.9382644E+02  0.0000000E+00  0.0000000E+00  1.0000000E+00
 21 -1  0  0 502 501  0.0000000E+00  0.0000000E+00 -8.4009177E+02  8.4009177E+02  0.0000000E+00  0.0000000E+00  1.0000000E+00
 39  2  1  2   0   0  8.1001872E-13 -7.9936058E-14 -5.4626533E+02  1.1339182E+03  9.9366226E+02  0.0000000E+00  1.0000000E+00
 23  2  3  3   0   0  1.2719445E+02 -1.2902916E+01 -8.1128728E+02  8.2592122E+02  8.7257601E+01  0.0000000E+00  1.0000000E+00
 23  2  3  3   0   0 -1.2719445E+02  1.2902916E+01  2.6502195E+02  3.0799699E+02  9.0997795E+01  0.0000000E+00  1.0000000E+00
-11  1  4  4   0   0  6.1051676E+01 -1.2977704E+01 -1.6760526E+02  1.7884980E+02  7.6293945E-06  0.0000000E+00  1.0000000E+00
 11  1  4  4   0   0  6.6142769E+01  7.4787447E-02 -6.4368202E+02  6.4707141E+02  0.0000000E+00  0.0000000E+00  1.0000000E+00
-13  1  5  5   0   0 -1.1077701E+02 -2.4948066E+01  1.7036609E+02  2.0474021E+02  2.6973983E-06  0.0000000E+00  1.0000000E+00
 13  1  5  5   0   0 -1.6417437E+01  3.7850982E+01  9.4655864E+01  1.0325678E+02  6.8770433E-06  0.0000000E+00  1.0000000E+00
</event>
<event>
9 100 1.0000000E+00 1.0000000E+03 7.8125000E-03 0.0000000E+00
 21 -1  0  0 501 502  0.0000000E+00  0.0000000E+00  3.6873648E+02  3.6873648E+02  0.0000000E+00  0.0000000E+00  1.0000000E+00
 21 -1  0  0 502 501  0.0000000E+00  0.0000000E+00 -6.9520864E+02  6.9520864E+02  0.0000000E+00  0.0000000E+00  1.0000000E+00
 39  2  1  2   0   0  2.8421709E-14  4.2632564E-14 -3.2647216E+02  1.0639451E+03  1.0126180E+03  0.0000000E+00  1.0000000E+00
 23  2  3  3   0   0 -1.1951517E+02 -1.0782996E+02 -6.6075922E+02  6.8627338E+02  9.1963166E+01  0.0000000E+00  1.0000000E+00
 23  2  3  3   0   0  1.1951517E+02  1.0782996E+02  3.3428706E+02  3.7767174E+02  7.0547327E+01  0.0000000E+00  1.0000000E+00
-11  1  4  4   0   0 -4.7616078E+00 -9.9943982E-01  1.9716074E+00  5.2496690E+00  1.7059845E-05  0.0000000E+00  1.0000000E+00
 11  1  4  4   0   0 -1.1475356E+02 -1.0683052E+02 -6.6273083E+02  6.8102371E+02  1.4662319E-06  0.0000000E+00  1.0000000E+00
-13  1  5  5   0   0  1.2665615E+02  1.0061806E+02  3.2804006E+02  3.6575410E+02  3.1539813E-07  0.0000000E+00  1.0000000E+00
 13  1  5  5   0   0 -7.1409862E+00  7.2118968E+00  6.2469965E+00  1.1917638E+01  6.6072495E-06  0.0000000E+00  1.0000000E+00
</event>
<event>
9 100 1.0000000E+00 1.0000000E+03 7.8125000E-03 0.0000000E+00
 21 -1  0  0 501 502  0.0000000E+00  0.0000000E+00  1.1932832E+02  1.1932832E+02  0.0000000E+00  0.0000000E+00  1.0000000E+00
 21 -1  0  0 502 501  0.0000000E+00  0.0000000E+00 -1.7156499E+03  1.7156499E+03  0.0000000E+00  0.0000000E+00  1.0000000E+00
 39  2  1  2   0   0 -4.4337867E-12  4.6043169E-12 -1.5963216E+03  1.8349782E+03  9.0493230E+02  0.0000000E+00  1.0000000E+00
 23  2  3  3   0   0 -2.8342921E+02  2.9892936E+02 -1.1296137E+03  1.2058229E+03  9.1053203E+01  0.0000000E+00  1.0000000E+00
 23  2  3  3   0   0  2.8342921E+02 -2.9892936E+02 -4.6670785E+02  6.2915537E+02  9.1265450E+01  0.0000000E+00  1.0000000E+00
-11  1  4  4   0   0 -1.1638316E+02  1.5374085E+02 -6.4197970E+02  6.7031278E+02  2.1579186E-05  0.0000000E+00  1.0000000E+00
 11  1  4  4   0   0 -1.6704605E+02  1.4518850E+02 -4.8763404E+02  5.3551008E+02  1.8688124E-05  0.0000000E+00  1.0000000E+00
-13  1  5  5   0   0  1.1343008E+02 -1.1933702E+02 -1.2199963E+02  2.0491856E+02  1.9821748E-05  0.0000000E+00  1.0000000E+00
 13  1  5  5   0   0  1.6999913E+02 -1.7959234E+02 -3.4470822E+02  4.2423681E+02  1.0359555E-05  0.0000000E+00  1.0000000E+00
</event>
<event>
9 100 1.0000000E+00 1.0000000E+03 7.8125000E-03 0.0000000E+00
 21 -1  0  0 501 502  0.0000000E+00  0.0000000E+00  9.1390840E+02  9.1390840E+02  0.0000000E+00  0.0000000E+00  1.0000000E+00
 21 -1  0  0 502 501  0.0000000E+00  0.0000000E+00 -2.7336105E+02  2.7336105E+02  0.0000000E+00  0.0000000E+00  1.0000000E+00
 39  2  1  2   0   0 -1.1368684E-12 -2.1316282E-13  6.4054735E+02  1.1872695E+03  9.9965386E+02  0.0000000E+00  1.0000000E+00
 23  2  3  3   0   0  3.4479659E+02  6.6199579E+01 -8.8489229E+01  3.7287603E+02  8.9101709E+01  0.0000000E+00  1.0000000E+00
 23  2  3  3   0   0 -3.4479659E+02 -6.6199579E+01  7.2903658E+02  8.1439342E+02  9.2061032E+01  0.0000000E+00  1.0000000E+00
-11  1  4  4   0   0  3.3885170E+02  5.3165877E+01 -7.0999844E+01  3.5026856E+02  2.7495772E-06  0.0000000E+00  1.0000000E+00
 11  1  4  4   0   0  5.9448925E+00  1.3033703E+01 -1.7489384E+01  2.2607470E+01  1.6268465E-05  0.0000000E+00  1.0000000E+00
-13  1  5  5   0   0 -2.0181507E+02 -3.4563010E+00  4.7644839E+02  5.1744018E+02  0.0000000E+00  0.0000000E+00  1.0000000E+00
 13  1  5  5   0   0 -1.4298153E+02 -6.2743278E+01  2.5258819E+02  2.9695325E+02  1.0789593E-05  0.0000000E+00  1.0000000E+00
</event>
<event>
9 100 1.0000000E+00 1.0000000E+03 7.8125000E-03 0.0000000E+00
 21 -1  0  0 501 502  0.0000000E+00  0.0000000E+00  3.8635697E+02  3.8635697E+02  0.0000000E+00  0.0000000E+00  1.0000000E+00
 21 -1  0  0 502 501  0.0000000E+00  0.0000000E+00 -6.5078848E+02  6.5078848E+02  0.0000000E+00  0.0000000E+00  1.0000000E+00
 39  2  1  2   0   0 -2.8990144E-12 -6.2527761E-13 -2.6443151E+02  1.0371454E+03  1.0028692E+03  0.0000000E+00  1.0000000E+00
 23  2  3  3   0   0 -4.4932305E+02 -9.8720045E+01 -3.1686890E+02  5.6531486E+02  8.6822457E+01  0.0000000E+00  1.0000000E+00
 23  2  3  3   0   0  4.4932305E+02  9.8720045E+01  5.2437393E+01  4.7183059E+02  9.0761108E+01  0.0000000E+00  1.0000000E+00
-11  1  4  4   0   0 -1.0134874E+02  4.4593453E+00 -4.0973611E+01  1.0940882E+02  5.3947966E-06  0.0000000E+00  1.0000000E+00
 11  1  4  4   0   0 -3.4797431E+02 -1.0317939E+02 -2.7589529E+02  4.5590604E+02  3.9320999E-06  0.0000000E+00  1.0000000E+00
-13  1  5  5   0   0  1.6778183E+02  4.4082022E+01  6.3736216E+01  1.8481416E+02  1.4081842E-05  0.0000000E+00  1.0000000E+00
 13  1  5  5   0   0  2.8154122E+02  5.4638022E+01 -1.1298823E+01  2.8701644E+02  1.0137697E-05  0.0000000E+00  1.0000000E+00
</event>
<event>
9 100 1.0000000E+00 1.0000000E+03 7.8125000E-03 0.0000000E+00
 21 -1  0  0 501 502  0.0000000E+00  0.0000000E+00  1.3656075E+03  1.3656075E+03  0.0000000E+00  0.0000000E+00  1.0000000E+00
 21 -1  0  0 502 501  0.0000000E+00  0.0000000E+00 -1.7971738E+02  1.7971738E+02  0.0000000E+00  0.0000000E+00  1.0000000E+00
 39  2  1  2   0   0 -1.3500312E-12 -5.6843419E-12  1.1858901E+03  1.5453249E+03  9.9080452E+02  0.0000000E+00  1.0000000E+00
 23  2  3  3   0   0 -9.7580893E+01 -4.1272214E+02  9.6448569E+02  1.0574766E+03  9.0346746E+01  0.0000000E+00  1.0000000E+00
 23  2  3  3   0   0  9.7580893E+01  4.1272214E+02  2.2140442E+02  4.8784826E+02  9.5469418E+01  0.0000000E+00  1.0000000E+00
-11  1  4  4   0   0 -1.7275381E+01 -7.9761354E+01  2.8635602E+02  2.9775843E+02  2.2888184E-05  0.0000000E+00  1.0000000E+00
 11  1  4  4   0   0 -8.0305512E+01 -3.3296079E+02  6.7812967E+02  7.5971818E+02  3.8146973E-06  0.0000000E+00  1.0000000E+00
-13  1  5  5   0   0  3.8507713E+01  2.8718210E+02  1.1006081E+02  3.0995126E+02  8.7405695E-06  0.0000000E+00  1.0000000E+00
 13  1  5  5   0   0  5.9073180E+01  1.2554004E+02  1.1134361E+02  1.7789700E+02  1.6014915E-05  0.0000000E+00  1.0000000E+00
</event>
<event>
9 100 1.0000000E+00 1.0000000E+03 7.8125000E-03 0.0000000E+00
 21 -1  0  0 501 502  0.0000000E+00  0.0000000E+00  8.8820853E+02  8.8820853E+02  0.0000000E+00  0.0000000E+00  1.0000000E+00
 21 -1  0  0 502 501  0.0000000E+00  0.0000000E+00 -2.8406658E+02  2.8406658E+02  0.0000000E+00  0.0000000E+00  1.0000000E+00
 39  2  1  2   0   0  1.4637180E-12  3.0553338E-13  6.0414195E+02  1.1722751E+03  1.0046101E+03  0.0000000E+00  1.0000000E+00
 23  2  3  3   0   0 -1.1372512E+02 -2.4036430E+01 -2.5735755E+02  2.9701214E+02  9.2044273E+01  0.0000000E+00  1.0000000E+00
 23  2  3  3   0   0  1.1372512E+02  2.4036430E+01  8.6149951E+02  8.7526297E+02  1.0194466E+02  0.0000000E+00  1.0000000E+00
-11  1  4  4   0   0  1.3273266E+01  9.7093205E+00 -2.2159260E+01  2.7594987E+01  1.1757687E-05  0.0000000E+00  1.0000000E+00
 11  1  4  4   0   0 -1.2699838E+02 -3.3745751E+01 -2.3519829E+02  2.6941715E+02  2.5898887E-06  0.0000000E+00  1.0000000E+00
-13  1  5  5   0   0 -3.8728847E+00 -1.8746697E+01  4.0676082E+01  4.4955328E+01  3.7376247E-05  0.0000000E+00  1.0000000E+00
 13  1  5  5   0   0  1.1759800E+02  4.2783127E+01  8.2082342E+02  8.3030764E+02  4.5236745E-06  0.0000000E+00  1.0000000E+00
</event>
<event>
9 100 1.0000000E+00 1.0000000E+03 7.8125000E-03 0.0000000E+00
 21 -1  0  0 501 502  0.0000000E+00  0.0000000E+00  1.8112812E+02  1.8112812E+02  0.0000000E+00  0.0000000E+00  1.0000000E+00
 21 -1  0  0 502 501  0.0000000E+00  0.0000000E+00 -1.4638426E+03  1.4638426E+03  0.0000000E+00  0.0000000E+00  1.0000000E+00
 39  2  1  2   0   0 -1.4779289E-12 -1.9184654E-13 -1.2827145E+03  1.6449707E+03  1.0298409E+03  0.0000000E+00  1.0000000E+00
 23  2  3  3   0   0 -1.8937824E+02 -2.4251382E+01 -1.3908892E+03  1.4068699E+03  9.0873431E+01  0.0000000E+00  1.0000000E+00
 23  2  3  3   0   0  1.8937824E+02  2.4251382E+01  1.0817466E+02  2.3810084E+02  9.2401334E+01  0.0000000E+00  1.0000000E+00
-11  1  4  4   0   0 -1.1801052E+02 -2.5295042E+01 -5.5668716E+02  5.6961997E+02  2.8546580E-05  0.0000000E+00  1.0000000E+00
 11  1  4  4   0   0 -7.1367722E+01  1.0436600E+00 -8.3420202E+02  8.3724993E+02  1.8688124E-05  0.0000000E+00  1.0000000E+00
-13  1  5  5   0   0 -2.5474339E+00 -4.8733636E+00 -9.5863518E+00  1.1051572E+01  1.2723602E-05  0.0000000E+00  1.0000000E+00
 13  1  5  5   0   0  1.9192568E+02  2.9124745E+01  1.1776102E+02  2.2704927E+02  2.5539738E-06  0.0000000E+00  1.0000000E+00
</event>
<event>
9 100 1.0000000E+00 1.0000000E+03 7.8125000E-03 0.0000000E+00
 21 -1  0  0 501 502  0.0000000E+00  0.0000000E+00  8.9297510E+02  8.9297510E+02  0.0000000E+00  0.0000000E+00  1.0000000E+00
 21 -1  0  0 502 501  0.0000000E+00  0.0000000E+00 -2.7963711E+02  2.7963711E+02  0.0000000E+00  0.0000000E+00  1.0000000E+00
 39  2  1  2   0   0 -6.9277917E-14  2.7284841E-12  6.1333799E+02  1.1726122E+03  9.9941779E+02  0.0000000E+00  1.0000000E+00
 23  2  3  3   0   0  1.1982556E+01 -4.0185457E+02 -2.5510880E+01  4.1269766E+02  8.9654166E+01  0.0000000E+00  1.0000000E+00
 23  2  3  3   0   0 -1.1982556E+01  4.0185457E+02  6.3884887E+02  7.5991456E+02  8.7815561E+01  0.0000000E+00  1.0000000E+00
-11  1  4  4   0   0  3.7200346E+01 -7.3835749E+01 -1.0825440E+01  8.3383294E+01  1.1859976E-05  0.0000000E+00  1.0000000E+00
 11  1  4  4   0   0 -2.5217789E+01 -3.2801883E+02 -1.4685440E+01  3.2931436E+02  3.1291019E-06  0.0000000E+00  1.0000000E+00
-13  1  5  5   0   0  1.1363078E+01  1.3084238E+01  5.8340571E+01  6.0859996E+01  1.7059845E-05  0.0000000E+00  1.0000000E+00
 13  1  5  5   0   0 -2.3345634E+01  3.8877034E+02  5.8050830E+02  6.9905456E+02  2.7804145E-06  0.0000000E+00  1.0000000E+00
</event>
<event>
9 100 1.0000000E+00 1.0000000E+03 7.8125000E-03 0.0000000E+00
 21 -1  0  0 501 502  0.0000000E+00  0.0000000E+00  1.2617635E+03  1.2617635E+03  0.0000000E+00  0.0000000E+00  1.0000000E+00
 21 -1  0  0 502 501  0.0000000E+00  0.0000000E+00 -1.9771665E+02  1.9771665E+02  0.0000000E+00  0.0000000E+00  1.0000000E+00
 39  2  1  2   0   0  1.7337243E-12 -3.2400749E-12  1.0640468E+03  1.4594801E+03  9.9894273E+02  0.0000000E+00  1.0000000E+00
 23  2  3  3   0   0 -2.2527856E+02  4.0968556E+02  3.1330779E+02  5.7037992E+02  9.2621767E+01  0.0000000E+00  1.0000000E+00
 23  2  3  3   0   0  2.2527856E+02 -4.0968556E+02  7.5073904E+02  8.8910020E+02  9.1089924E+01  0.0000000E+00  1.0000000E+00
-11  1  4  4   0   0  8.2079422E+00  1.0089601E+01  3.5740623E+00  1.3488672E+01  2.2243316E-05  0.0000000E+00  1.0000000E+00
 11  1  4  4   0   0 -2.3348650E+02  3.9959596E+02  3.0973373E+02  5.5689125E+02  2.6451975E-06  0.0000000E+00  1.0000000E+00
-13  1  5  5   0   0  9.1377029E+01 -2.2187232E+02  4.5127189E+02  5.1110019E+02  5.3947966E-06  0.0000000E+00  1.0000000E+00
 13  1  5  5   0   0  1.3390153E+02 -1.8781325E+02  2.9946715E+02  3.7800001E+02  1.6184390E-05  0.0000000E+00  1.0000000E+00
</event>
<event>
9 100 1.0000000E+00 1.0000000E+03 7.8125000E-03 0.0000000E+00
 21 -1  0  0 501 502  0.0000000E+00  0.0000000E+00  5.9874801E+02  5.9874801E+02  0.0000000E+00  0.0000000E+00  1.0000000E+00
 21 -1  0  0 502 501  0.0000000E+00  0.0000000E+00 -3.9727751E+02  3.9727751E+02  0.0000000E+00  0.0000000E+00  1.0000000E+00
 39  2  1  2   0   0 -7.1054274E-15  0.0000000E+00  2.0147050E+02  9.9602552E+02  9.7543656E+02  0.0000000E+00  1.0000000E+00
 23  2  3  3   0   0 -4.1715999E+01  4.0949256E+02  3.5089608E+02  5.4856882E+02  9.1516705E+01  0.0000000E+00  1.0000000E+00
 23  2  3  3   0   0  4.1715999E+01 -4.0949256E+02 -1.4942558E+02  4.4745671E+02  9.2006075E+01  0.0000000E+00  1.0000000E+00
-11  1  4  4   0   0  2.6376586E+01  5.9221560E+01  5.4904934E+01  8.4955690E+01  1.5728400E-05  0.0000000E+00  1.0000000E+00
 11  1  4  4   0   0 -6.8092585E+01  3.5027100E+02  2.9599114E+02  4.6361313E+02  4.2649612E-06  0.0000000E+00  1.0000000E+00
-13  1  5  5   0   0  6.6059455E+01 -2.1728532E+02 -6.5873896E+01  2.3646593E+02  7.0080464E-06  0.0000000E+00  1.0000000E+00
 13  1  5  5   0   0 -2.4343456E+01 -1.9220724E+02 -8.3551682E+01  2.1099078E+02  8.4226235E-06  0.0000000E+00  1.0000000E+00
</event>
<event>
9 100 1.0000000E+00 1.0000000E+03 7.8125000E-03 0.0000000E+00
 21 -1  0  0 501 502  0.0000000E+00  0.0000000E+00  1.7816746E+02  1.7816746E+02  0.0000000E+00  0.0000000E+00  1.0000000E+00
 21 -1  0  0 502 501  0.0000000E+00  0.0000000E+00 -1.4152684E+03  1.4152684E+03  0.0000000E+00  0.0000000E+00  1.0000000E+00
 39  2  1  2   0   0 -5.4569682E-12  2.2168933E-12 -1.2371009E+03  1.5934359E+03  1.0043003E+03  0.0000000E+00  1.0000000E+00
 23  2  3  3   0   0 -4.5673656E+02  1.8669396E+02 -6.4029393E+02  8.1340543E+02  9.0493969E+01  0.0000000E+00  1.0000000E+00
 23  2  3  3   0   0  4.5673656E+02 -1.8669396E+02 -5.9680699E+02  7.8003042E+02  9.3840043E+01  0.0000000E+00  1.0000000E+00
-11  1  4  4   0   0 -1.9430817E+02  1.1179751E+02 -2.3483056E+02  3.2465326E+02  1.4273290E-05  0.0000000E+00  1.0000000E+00
 11  1  4  4   0   0 -2.6242838E+02  7.4896451E+01 -4.0546338E+02  4.8875217E+02  1.2361032E-05  0.0000000E+00  1.0000000E+00
-13  1  5  5   0   0  1.4517451E+02 -7.0386915E+01 -2.6499774E+02  3.1024790E+02  1.3214499E-05  0.0000000E+00  1.0000000E+00
 13  1  5  5   0   0  3.1156205E+02 -1.1630705E+02 -3.3180925E+02  4.6978252E+02  1.4774259E-05  0.0000000E+00  1.0000000E+00
</event>
<event>
9 100 1.0000000E+00 1.0000000E+03 7.8125000E-03 0.0000000E+00
 21 -1  0  0 501 502  0.0000000E+00  0.0000000E+00  8.7358487E+02  8.7358487E+02  0.0000000E+00  0.0000000E+00  1.0000000E+00
 21 -1  0  0 502 501  0.0000000E+00  0.0000000E+00 -2.8610177E+02  2.8610177E+02  0.0000000E+00  0.0000000E+00  1.0000000E+00
 39  2  1  2   0   0  2.1600499E-12 -9.6633812E-13  5.8748309E+02  1.1596866E+03  9.9986835E+02  0.0000000E+00  1.0000000E+00
 23  2  3  3   0   0  4.2053192E+02 -1.9761468E+02  1.1011754E+02  4.8739158E+02  9.7601358E+01  0.0000000E+00  1.0000000E+00
 23  2  3  3   0   0 -4.2053192E+02  1.9761468E+02  4.7736555E+02  6.7229506E+02  9.0576651E+01  0.0000000E+00  1.0000000E+00
-11  1  4  4   0   0  9.5780315E+01 -5.5502890E+01 -1.4489378E+01  1.1164399E+02  1.2794884E-05  0.0000000E+00  1.0000000E+00
 11  1  4  4   0   0  3.2475160E+02 -1.4211179E+02  1.2460692E+02  3.7574758E+02  5.0407349E-06  0.0000000E+00  1.0000000E+00
-13  1  5  5   0   0 -7.5093292E+01  4.6513622E+01  4.6747714E+01  9.9939323E+01  2.2243316E-05  0.0000000E+00  1.0000000E+00
 13  1  5  5   0   0 -3.4543862E+02  1.5110106E+02  4.3061784E+02  5.7235574E+02  5.6420133E-06  0.0000000E+00  1.0000000E+00
</event>
<event>
9 100 1.0000000E+00 1.0000000E+03 7.8125000E-03 0.0000000E+00
 21 -1  0  0 501 502  0.0000000E+00  0.0000000E+00  1.2151580E+03  1.2151580E+03  0.0000000E+00  0.0000000E+00  1.0000000E+00
 21 -1  0  0 502 501  0.0000000E+00  0.0000000E+00 -2.0654530E+02  2.0654530E+02  0.0000000E+00  0.0000000E+00  1.0000000E+00
 39  2  1  2   0   0  2.1600499E-12 -1.3073986E-12  1.0086127E+03  1.4217034E+03  1.0019684E+03  0.0000000E+00  1.0000000E+00
 23  2  3  3   0   0  3.5594627E+02 -2.1786942E+02  1.3033230E+02  4.4521245E+02  8.4040418E+01  0.0000000E+00  1.0000000E+00
 23  2  3  3   0   0 -3.5594627E+02  2.1786942E+02  8.7828045E+02  9.7649090E+02  8.9404117E+01  0.0000000E+00  1.0000000E+00
-11  1  4  4   0   0  1.1789501E+01  7.3120632E+00  8.4904734E+00  1.6264893E+01  1.1523291E-05  0.0000000E+00  1.0000000E+00
 11  1  4  4   0   0  3.4415677E+02 -2.2518148E+02  1.2184183E+02  4.2894756E+02  1.6126334E-06  0.0000000E+00  1.0000000E+00
-13  1  5  5   0   0 -5.4613710E+00  2.0906264E+01  2.3745114E+01  3.2104967E+01  2.1579186E-05  0.0000000E+00  1.0000000E+00
 13  1  5  5   0   0 -3.5048490E+02  1.9696315E+02  8.5453533E+02  9.4438593E+02  2.3602235E-06  0.0000000E+00  1.0000000E+00
</event>
<event>
9 100 1.0000000E+00 1.0000000E+03 7.8125000E-03 0.0000000E+00
 21 -1  0  0 501 502  0.0000000E+00  0.0000000E+00  3.5094803E+02  3.5094803E+02  0.0000000E+00  0.0000000E+00  1.0000000E+00
 21 -1  0  0 502 501  0.0000000E+00  0.0000000E+00 -7.0786124E+02  7.0786124E+02  0.0000000E+00  0.0000000E+00  1.0000000E+00
 39  2  1  2   0   0  5.6843419E-14  0.0000000E+00 -3.5691322E+02  1.0588093E+03  9.9684002E+02  0.0000000E+00  1.0000000E+00
 23  2  3  3   0   0 -4.1991582E+02 -6.6294838E+01  8.0057456E+01  4.4246281E+02  9.2950734E+01  0.0000000E+00  1.0000000E+00
 23  2  3  3   0   0  4.1991582E+02  6.6294838E+01 -4.3697067E+02  6.1634646E+02  9.0638227E+01  0.0000000E+00  1.0000000E+00
-11  1  4  4   0   0 -1.6578862E+01 -1.2856452E+01 -1.3545891E+01  2.4972749E+01  4.0460975E-06  0.0000000E+00  1.0000000E+00
 11  1  4  4   0   0 -4.0333696E+02 -5.3438386E+01  9.3603347E+01  4.1749006E+02  2.0230487E-06  0.0000000E+00  1.0000000E+00
-13  1  5  5   0   0  6.0956904E+01  1.0002857E+01 -1.1650810E+02  1.3187092E+02  1.7481139E-05  0.0000000E+00  1.0000000E+00
 13  1  5  5   0   0  3.5895892E+02  5.6291982E+01 -3.2046257E+02  4.8447554E+02  6.1805160E-06  0.0000000E+00  1.0000000E+00
</event>
<event>
9 100 1.0000000E+00 1.0000000E+03 7.8125000E-03 0.0000000E+00
 21 -1  0  0 501 502  0.0000000E+00  0.0000000E+00  8.2870557E+02  8.2870557E+02  0.0000000E+00  0.0000000E+00  1.0000000E+00
 21 -1  0  0 502 501  0.0000000E+00  0.0000000E+00 -3.2137566E+02  3.2137566E+02  0.0000000E+00  0.0000000E+00  1.0000000E+00
 39  2  1  2   0   0  2.7000624E-13  5.9685590E-13  5.0732991E+02  1.1500812E+03  1.0321353E+03  0.0000000E+00  1.0000000E+00
 23  2  3  3   0   0 -9.3739134E+01 -2.2143288E+02  7.5266929E+02  7.9478861E+02  8.5780749E+01  0.0000000E+00  1.0000000E+00
 23  2  3  3   0   0  9.3739134E+01  2.2143288E+02 -2.4533937E+02  3.5529262E+02  9.0674654E+01  0.0000000E+00  1.0000000E+00
-11  1  4  4   0   0 -6.5553029E+00  5.3069356E+00  6.3520367E+01  6.4077864E+01  7.6293945E-06  0.0000000E+00  1.0000000E+00
 11  1  4  4   0   0 -8.7183831E+01 -2.2673981E+02  6.8914892E+02  7.3071075E+02  1.6518124E-06  0.0000000E+00  1.0000000E+00
-13  1  5  5   0   0  6.6788300E+01  2.1883709E+02 -2.2875475E+02  3.2354148E+02  6.3079627E-07  0.0000000E+00  1.0000000E+00
 13  1  5  5   0   0  2.6950833E+01  2.5957868E+00 -1.6584623E+01  3.1751145E+01  7.6293945E-06  0.0000000E+00  1.0000000E+00
</event>
<event>
9 100 1.0000000E+00 1.0000000E+03 7.8125000E-03 0.0000000E+00
 21 -1  0  0 501 502  0.0000000E+00  0.0000000E+00  4.1983673E+02  4.1983673E+02  0.0000000E+00  0.0000000E+00  1.0000000E+00
 21 -1  0  0 502 501  0.0000000E+00  0.0000000E+00 -5.9684514E+02  5.9684514E+02  0.0000000E+00  0.0000000E+00  1.0000000E+00
 39  2  1  2   0   0 -4.5474735E-13 -2.8421709E-13 -1.7700841E+02  1.0166819E+03  1.0011544E+03  0.0000000E+00  1.0000000E+00
 23  2  3  3   0   0 -3.1405311E+02 -2.5301174E+02 -3.7414926E+02  5.5861269E+02  9.7036962E+01  0.0000000E+00  1.0000000E+00
 23  2  3  3   0   0  3.1405311E+02  2.5301174E+02  1.9714085E+02  4.5806919E+02  9.1206230E+01  0.0000000E+00  1.0000000E+00
-11  1  4  4   0   0 -2.5938808E+02 -1.5602558E+02 -2.8833799E+02  4.1804899E+02  5.3098339E-06  0.0000000E+00  1.0000000E+00
 11  1  4  4   0   0 -5.4665032E+01 -9.6986161E+01 -8.5811262E+01  1.4056370E+02  1.0092740E-05  0.0000000E+00  1.0000000E+00
-13  1  5  5   0   0  2.5806357E+02  1.5973891E+02  1.2955305E+02  3.2999593E+02  6.3259598E-06  0.0000000E+00  1.0000000E+00
 13  1  5  5   0   0  5.5989544E+01  9.3272828E+01  6.7587794E+01  1.2807326E+02  1.3486992E-05  0.0000000E+00  1.0000000E+00
</event>
<event>
9 100 1.0000000E+00 1.0000000E+03 7.8125000E-03 0.0000000E+00
 21 -1  0  0 501 502  0.0000000E+00  0.0000000E+00  1.6353410E+02  1.6353410E+02  0.0000000E+00  0.0000000E+00  1.0000000E+00
 21 -1  0  0 502 501  0.0000000E+00  0.0000000E+00 -1.5256159E+03  1.5256159E+03  0.0000000E+00  0.0000000E+00  1.0000000E+00
 39  2  1  2   0   0  2.7853275E-12 -4.4053650E-13 -1.3620819E+03  1.6891500E+03  9.9897993E+02  0.0000000E+00  1.0000000E+00
 23  2  3  3   0   0  4.7370422E+02 -7.5262823E+01 -8.5945867E+02  9.8845559E+02  9.1186961E+01  0.0000000E+00  1.0000000E+00
 23  2  3  3   0   0 -4.7370422E+02  7.5262823E+01 -5.0262319E+02  7.0069446E+02  9.1008110E+01  0.0000000E+00  1.0000000E+00
-11  1  4  4   0   0  2.4522630E+02 -7.6857458E+01 -5.0711119E+02  5.6851101E+02  3.8146973E-06  0.0000000E+00  1.0000000E+00
 11  1  4  4   0   0  2.2847792E+02  1.5946349E+00 -3.5234748E+02  4.1994458E+02  1.5258789E-05  0.0000000E+00  1.0000000E+00
-13  1  5  5   0   0 -1.6681301E+02 -2.6602789E+00 -2.2130216E+02  2.7714311E+02  5.3947966E-06  0.0000000E+00  1.0000000E+00
 13  1  5  5   0   0 -3.0689122E+02  7.7923102E+01 -2.8132103E+02  4.2355135E+02  5.3947966E-06  0.0000000E+00  1.0000000E+00
</event>
<event>
9 100 1.0000000E+00 1.0000000E+03 7.8125000E-03 0.0000000E+00
 21 -1  0  0 501 502  0.0000000E+00  0.0000000E+00  6.4696615E+02  6.4696615E+02  0.0000000E+00  0.0000000E+00  1.0000000E+00
 21 -1  0  0 502 501  0.0000000E+00  0.0000000E+00 -3.9169874E+02  3.9169874E+02  0.0000000E+00  0.0000000E+00  1.0000000E+00
 39  2  1  2   0   0 -1.7053026E-13  3.4106051E-13  2.5526741E+02  1.0386649E+03  1.0068085E+03  0.0000000E+00  1.0000000E+00
 23  2  3  3   0   0 -1.7291112E+02  2.6470076E+02  5.1529163E+02  6.1908033E+02  1.3330510E+02  0.0000000E+00  1.0000000E+00
 23  2  3  3   0   0  1.7291112E+02 -2.6470076E+02 -2.6002422E+02  4.1958456E+02  9.2053584E+01  0.0000000E+00  1.0000000E+00
-11  1  4  4   0   0 -4.3871373E+01  8.1502325E+01  5.6372400E+01  1.0837515E+02  1.3214499E-05  0.0000000E+00  1.0000000E+00
 11  1  4  4   0   0 -1.2903974E+02  1.8319843E+02  4.5891923E+02  5.1070518E+02  2.2365645E-06  0.0000000E+00  1.0000000E+00
-13  1  5  5   0   0  1.2109305E+02 -1.0153307E+02 -1.2929158E+02  2.0417836E+02  3.3036247E-06  0.0000000E+00  1.0000000E+00
 13  1  5  5   0   0  5.1818064E+01 -1.6316769E+02 -1.3073264E+02  2.1540620E+02  5.3947966E-06  0.0000000E+00  1.0000000E+00
</event>
<event>
9 100 1.0000000E+00 1.0000000E+03 7.8125000E-03 0.0000000E+00
 21 -1  0  0 501 502  0.0000000E+00  0.0000000E+00  3.3437079E+02  3.3437079E+02  0.0000000E+00  0.0000000E+00  1.0000000E+00
 21 -1  0  0 502 501  0.0000000E+00  0.0000000E+00 -7.7214069E+02  7.7214069E+02  0.0000000E+00  0.0000000E+00  1.0000000E+00
 39  2  1  2   0   0  1.0800250E-12 -9.6633812E-13 -4.3776991E+02  1.1065115E+03  1.0162309E+03  0.0000000E+00  1.0000000E+00
 23  2  3  3   0   0  3.3572935E+02 -3.0934468E+02 -4.4181897E+02  6.4177485E+02  9.0898981E+01  0.0000000E+00  1.0000000E+00
 23  2  3  3   0   0 -3.3572935E+02  3.0934468E+02  4.0490662E+00  4.6473663E+02  8.6921914E+01  0.0000000E+00  1.0000000E+00
-11  1  4  4   0   0  8.7440167E+01 -6.0750132E+01 -5.7311770E+01  1.2091733E+02  2.2243316E-05  0.0000000E+00  1.0000000E+00
 11  1  4  4   0   0  2.4828918E+02 -2.4859454E+02 -3.8450720E+02  5.2085752E+02  5.6821705E-06  0.0000000E+00  1.0000000E+00
-13  1  5  5   0   0 -6.0598969E+01  9.4114153E+01  2.5357435E+01  1.1477242E+02  1.8988360E-05  0.0000000E+00  1.0000000E+00
 13  1  5  5   0   0 -2.7513038E+02  2.1523052E+02 -2.1308369E+01  3.4996421E+02  8.2314856E-06  0.0000000E+00  1.0000000E+00
</event>
<event>
9 100 1.0000000E+00 1.0000000E+03 7.8125000E-03 0.0000000E+00
 21 -1  0  0 501 502  0.0000000E+00  0.0000000E+00  1.0568833E+03  1.0568833E+03  0.0000000E+00  0.0000000E+00  1.0000000E+00
 21 -1  0  0 502 501  0.0000000E+00  0.0000000E+00 -2.3832264E+02  2.3832264E+02  0.0000000E+00  0.0000000E+00  1.0000000E+00
 39  2  1  2   0   0  2.1032065E-12  8.5265128E-13  8.1856064E+02  1.2952059E+03  1.0037514E+03  0.0000000E+00  1.0000000E+00
 23  2  3  3   0   0 -3.7275646E+02 -1.5655339E+02  4.5972216E+01  4.1676877E+02  9.0146658E+01  0.0000000E+00  1.0000000E+00
 23  2  3  3   0   0  3.7275646E+02  1.5655339E+02  7.7258842E+02  8.7843715E+02  1.0631374E+02  0.0000000E+00  1.0000000E+00
-11  1  4  4   0   0 -2.1499703E+02 -9.8107252E+01  7.0817855E+01  2.4670615E+02  5.8400386E-06  0.0000000E+00  1.0000000E+00
 11  1  4  4   0   0 -1.5775943E+02 -5.8446142E+01 -2.4845639E+01  1.7006262E+02  8.5299224E-06  0.0000000E+00  1.0000000E+00
-13  1  5  5   0   0  8.4610381E+01  3.9284302E+00  2.3371657E+02  2.4859160E+02  2.4126264E-05  0.0000000E+00  1.0000000E+00
 13  1  5  5   0   0  2.8814607E+02  1.5262496E+02  5.3887186E+02  6.2984555E+02  3.8146973E-06  0.0000000E+00  1.0000000E+00
</event>
<event>
9 100 1.0000000E+00 1.0000000E+03 7.8125000E-03 0.0000000E+00
 21 -1  0  0 501 502  0.0000000E+00  0.0000000E+00  2.0571341E+02  2.0571341E+02  0.0000000E+00  0.0000000E+00  1.0000000E+00
 21 -1  0  0 502 501  0.0000000E+00  0.0000000E+00 -1.2350270E+03  1.2350270E+03  0.0000000E+00  0.0000000E+00  1.0000000E+00
 39  2  1  2   0   0 -1.0516032E-12 -2.1316282E-12 -1.0293136E+03  1.4407404E+03  1.0080905E+03  0.0000000E+00  1.0000000E+00
 23  2  3  3   0   0 -1.0666085E+02 -2.1554187E+02 -1.1358764E+03  1.1635531E+03  7.6196060E+01  0.0000000E+00  1.0000000E+00
 23  2  3  3   0   0  1.0666085E+02  2.1554187E+02  1.0656279E+02  2.7718730E+02  8.7420482E+01  0.0000000E+00  1.0000000E+00
-11  1  4  4   0   0 -7.6049919E+01 -1.4992541E+02 -6.1096117E+02  6.3366771E+02  1.0789593E-05  0.0000000E+00  1.0000000E+00
 11  1  4  4   0   0 -3.0610934E+01 -6.5616452E+01 -5.2491523E+02  5.2988541E+02  1.5258789E-05  0.0000000E+00  1.0000000E+00
-13  1  5  5   0   0  9.9873117E+01  1.1865635E+02  4.2402691E+01  1.6078544E+02  5.6420133E-06  0.0000000E+00  1.0000000E+00
 13  1  5  5   0   0  6.7877360E+00  9.6885520E+01  6.4160096E+01  1.1640187E+02  6.3259598E-06  0.0000000E+00  1.0000000E+00
</event>
<event>
9 100 1.0000000E+00 1.0000000E+03 7.8125000E-03 0.0000000E+00
 21 -1  0  0 501 502  0.0000000E+00  0.0000000E+00  1.4988045E+03  1.4988045E+03  0.0000000E+00  0.0000000E+00  1.0000000E+00
 21 -1  0  0 502 501  0.0000000E+00  0.0000000E+00 -1.7154620E+02  1.7154620E+02  0.0000000E+00  0.0000000E+00  1.0000000E+00
 39  2  1  2   0   0  2.0747848E-12 -7.1054274E-12  1.3272583E+03  1.6703507E+03  1.0141286E+03  0.0000000E+00  1.0000000E+00
 23  2  3  3   0   0  1.3831903E+02 -4.6964864E+02  8.1974125E+02  9.5908235E+02  9.0339557E+01  0.0000000E+00  1.0000000E+00
 23  2  3  3   0   0 -1.3831903E+02  4.6964864E+02  5.0751702E+02  7.1126832E+02  9.2882159E+01  0.0000000E+00  1.0000000E+00
-11  1  4  4   0   0  4.8559980E+01 -2.4207668E+02  4.8791187E+02  5.4682463E+02  1.5258789E-05  0.0000000E+00  1.0000000E+00
 11  1  4  4   0   0  8.9759046E+01 -2.2757196E+02  3.3182938E+02  4.1225771E+02  2.0185481E-05  0.0000000E+00  1.0000000E+00
-13  1  5  5   0   0 -1.0032512E+02  4.0932275E+02  4.6786967E+02  6.2969220E+02  5.2234894E-06  0.0000000E+00  1.0000000E+00
 13  1  5  5   0   0 -3.7993907E+01  6.0325891E+01  3.9647351E+01  8.1576115E+01  2.6973983E-05  0.0000000E+00  1.0000000E+00
</event>
<event>
9 100 1.0000000E+00 1.0000000E+03 7.8125000E-03 0.0000000E+00
 21 -1  0  0 501 502  0.0000000E+00  0.0000000E+00  7.1420226E+02  7.1420226E+02  0.0000000E+00  0.0000000E+00  1.0000000E+00
 21 -1  0  0 502 501  0.0000000E+00  0.0000000E+00 -3.4574717E+02  3.4574717E+02  0.0000000E+00  0.0000000E+00  1.0000000E+00
 39  2  1  2   0   0  1.2789769E-13 -3.9079850E-14  3.6845509E+02  1.0599494E+03  9.9384789E+02  0.0000000E+00  1.0000000E+00
 23  2  3  3   0   0  9.3550207E+01 -2.9833020E+01  6.9502420E+02  7.0755883E+02  8.9102263E+01  0.0000000E+00  1.0000000E+00
 23  2  3  3   0   0 -9.3550207E+01  2.9833020E+01 -3.2656912E+02  3.5239059E+02  8.8826186E+01  0.0000000E+00  1.0000000E+00
-11  1  4  4   0   0  9.6789674E+01 -1.3937514E+01  6.7372832E+02  6.8078803E+02  1.3696105E-06  0.0000000E+00  1.0000000E+00
 11  1  4  4   0   0 -3.2394673E+00 -1.5895507E+01  2.1295880E+01  2.6770801E+01  2.8546580E-05  0.0000000E+00  1.0000000E+00
-13  1  5  5   0   0  1.3897337E+01  1.9851808E+01 -6.8926897E+01  7.3062627E+01  1.4774259E-05  0.0000000E+00  1.0000000E+00
 13  1  5  5   0   0 -1.0744754E+02  9.9812119E+00 -2.5764222E+02  2.7932796E+02  4.8628039E-06  0.0000000E+00  1.0000000E+00
</event>
<event>
9 100 1.0000000E+00 1.0000000E+03 7.8125000E-03 0.0000000E+00
 21 -1  0  0 501 502  0.0000000E+00  0.0000000E+00  1.8169221E+02  1.8169221E+02  0.0000000E+00  0.0000000E+00  1.0000000E+00
 21 -1  0  0 502 501  0.0000000E+00  0.0000000E+00 -1.1519220E+03  1.1519220E+03  0.0000000E+00  0.0000000E+00  1.0000000E+00
 39  2  1  2   0   0  9.9475983E-13 -2.3590019E-12 -9.7022980E+02  1.3336142E+03  9.1497598E+02  0.0000000E+00  1.0000000E+00
 23  2  3  3   0   0  9.0793809E+01 -2.2244795E+02 -1.0367683E+03  1.0682628E+03  9.2576516E+01  0.0000000E+00  1.0000000E+00
 23  2  3  3   0   0 -9.0793809E+01  2.2244795E+02  6.6538461E+01  2.6535141E+02  9.0870220E+01  0.0000000E+00  1.0000000E+00
-11  1  4  4   0   0  9.6272896E+01 -2.0367862E+02 -8.1283137E+02  8.4347394E+02  8.9462581E-06  0.0000000E+00  1.0000000E+00
 11  1  4  4   0   0 -5.4790864E+00 -1.8769335E+01 -2.2393690E+02  2.2478888E+02  2.4126264E-05  0.0000000E+00  1.0000000E+00
-13  1  5  5   0   0  6.8006302E+00  4.5958497E+01  4.1189300E+01  6.2088570E+01  1.3398191E-05  0.0000000E+00  1.0000000E+00
 13  1  5  5   0   0 -9.7594440E+01  1.7648946E+02  2.5349161E+01  2.0326284E+02  5.5197892E-06  0.0000000E+00  1.0000000E+00
</event>
<event>
9 100 1.0000000E+00 1.0000000E+03 7.8125000E-03 0.0000000E+00
 21 -1  0  0 501 502  0.0000000E+00  0.0000000E+00  1.2476887E+02  1.2476887E+02  0.0000000E+00  0.0000000E+00  1.0000000E+00
 21 -1  0  0 502 501  0.0000000E+00  0.0000000E+00 -2.0172424E+03  2.0172424E+03  0.0000000E+00  0.0000000E+00  1.0000000E+00
 39  2  1  2   0   0 -9.5496944E-12 -1.1937118E-11 -1.8924736E+03  2.1420113E+03  1.0033724E+03  0.0000000E+00  1.0000000E+00
 23  2  3  3   0   0 -2.5737712E+02 -3.2258476E+02 -1.5232844E+03  1.5808661E+03  9.1860345E+01  0.0000000E+00  1.0000000E+00
 23  2  3  3   0   0  2.5737712E+02  3.2258476E+02 -3.6918913E+02  5.6114517E+02  9.0991110E+01  0.0000000E+00  1.0000000E+00
-11  1  4  4   0   0 -7.2427608E+01 -4.9568024E+01 -2.2927071E+02  2.4549503E+02  3.7376247E-05  0.0000000E+00  1.0000000E+00
 11  1  4  4   0   0 -1.8494952E+02 -2.7301674E+02 -1.2940137E+03  1.3353711E+03  2.6973983E-06  0.0000000E+00  1.0000000E+00
-13  1  5  5   0   0  5.4643300E+01  1.0976722E+02 -6.7592714E+01  1.4001253E+02  1.6627880E-05  0.0000000E+00  1.0000000E+00
 13  1  5  5   0   0  2.0273382E+02  2.1281754E+02 -3.0159641E+02  4.2113264E+02  7.0080464E-06  0.0000000E+00  1.0000000E+00
</event>
<event>
9 100 1.0000000E+00 1.0000000E+03 7.8125000E-03 0.0000000E+00
 21 -1  0  0 501 502  0.0000000E+00  0.0000000E+00  9.1364775E+02  9.1364775E+02  0.0000000E+00  0.0000000E+00  1.0000000E+00
 21 -1  0  0 502 501  0.0000000E+00  0.0000000E+00 -2.7712736E+02  2.7712736E+02  0.0000000E+00  0.0000000E+00  1.0000000E+00
 39  2  1  2   0   0 -3.2684966E-13 -5.9685590E-13  6.3652039E+02  1.1907751E+03  1.0063733E+03  0.0000000E+00  1.0000000E+00
 23  2  3  3   0   0 -9.9373025E+01 -1.6626937E+02  8.5929959E+02  8.8569517E+02  9.2410123E+01  0.0000000E+00  1.0000000E+00
 23  2  3  3   0   0  9.9373025E+01  1.6626937E+02 -2.2277921E+02  3.0507994E+02  7.6959045E+01  0.0000000E+00  1.0000000E+00
-11  1  4  4   0   0 -1.1051251E+02 -1.6708963E+02  7.6731317E+02  7.9303307E+02  5.3947966E-06  0.0000000E+00  1.0000000E+00
 11  1  4  4   0   0  1.1139480E+01  8.2025160E-01  9.1986425E+01  9.2662092E+01  2.6428998E-05  0.0000000E+00  1.0000000E+00
-13  1  5  5   0   0  1.0700357E+02  1.1814195E+02 -1.6345473E+02  2.2830842E+02  5.1797774E-06  0.0000000E+00  1.0000000E+00
 13  1  5  5   0   0 -7.6305430E+00  4.8127421E+01 -5.9324474E+01  7.6771525E+01  1.1121658E-05  0.0000000E+00  1.0000000E+00
</event>
<event>
9 100 1.0000000E+00 1.0000000E+03 7.8125000E-03 0.0000000E+00
 21 -1  0  0 501 502  0.0000000E+00  0.0000000E+00  3.9611453E+02  3.9611453E+02  0.0000000E+00  0.0000000E+00  1.0000000E+00
 21 -1  0  0 502 501  0.0000000E+00  0.0000000E+00 -6.3294245E+02  6.3294245E+02  0.0000000E+00  0.0000000E+00  1.0000000E+00
 39  2  1  2   0   0 -3.4106051E-13  9.9475983E-14 -2.3682791E+02  1.0290570E+03  1.0014344E+03  0.0000000E+00  1.0000000E+00
 23  2  3  3   0   0 -3.6983108E+02  1.1014920E+02 -4.3296186E+02  5.8709324E+02  9.1184584E+01  0.0000000E+00  1.0000000E+00
 23  2  3  3   0   0  3.6983108E+02 -1.1014920E+02  1.9613395E+02  4.4196374E+02  8.9193887E+01  0.0000000E+00  1.0000000E+00
-11  1  4  4   0   0 -1.6074550E+02  6.9537100E+01 -2.5600302E+02  3.1018070E+02  8.0921949E-06  0.0000000E+00  1.0000000E+00
 11  1  4  4   0   0 -2.0908558E+02  4.0612097E+01 -1.7695885E+02  2.7691254E+02  7.6293945E-06  0.0000000E+00  1.0000000E+00
-13  1  5  5   0   0  1.7128347E+02 -5.1164324E+01  4.1586960E+01  1.8353553E+02  2.6973983E-06  0.0000000E+00  1.0000000E+00
 13  1  5  5   0   0  1.9854760E+02 -5.8984873E+01  1.5454699E+02  2.5842821E+02  3.7242173E-06  0.0000000E+00  1.0000000E+00
</event>
<event>
9 100 1.0000000E+00 1.0000000E+03 7.8125000E-03 0.0000000E+00
 21 -1  0  0 501 502  0.0000000E+00  0.0000000E+00  2.7115984E+02  2.7115984E+02  0.0000000E+00  0.0000000E+00  1.0000000E+00
 21 -1  0  0 502 501  0.0000000E+00  0.0000000E+00 -9.5070379E+02  9.5070379E+02  0.0000000E+00  0.0000000E+00  1.0000000E+00
 39  2  1  2   0   0  8.5265128E-14  2.8421709E-13 -6.7954396E+02  1.2218636E+03  1.0154658E+03  0.0000000E+00  1.0000000E+00
 23  2  3  3   0   0  2.1392450E+02  4.4376370E+02 -4.3709871E+02  6.6487516E+02  9.1179918E+01  0.0000000E+00  1.0000000E+00
 23  2  3  3   0   0 -2.1392450E+02 -4.4376370E+02 -2.4244525E+02  5.5698847E+02  9.3629814E+01  0.0000000E+00  1.0000000E+00
-11  1  4  4   0   0  1.6441407E+02  2.4597986E+02 -2.8162336E+02  4.0847251E+02  3.3036247E-06  0.0000000E+00  1.0000000E+00
 11  1  4  4   0   0  4.9510434E+01  1.9778385E+02 -1.5547535E+02  2.5640265E+02  1.2651920E-05  0.0000000E+00  1.0000000E+00
-13  1  5  5   0   0 -1.9017372E+02 -4.3717331E+02 -2.2863093E+02  5.2873306E+02  1.6942823E-06  0.0000000E+00  1.0000000E+00
 13  1  5  5   0   0 -2.3750778E+01 -6.5903912E+00 -1.3814314E+01  2.8255406E+01  8.5299224E-06  0.0000000E+00  1.0000000E+00
</event>
<event>
9 100 1.0000000E+00 1.0000000E+03 7.8125000E-03 0.0000000E+00
 21 -1  0  0 501 502  0.0000000E+00  0.0000000E+00  1.2138042E+02  1.2138042E+02  0.0000000E+00  0.0000000E+00  1.0000000E+00
 21 -1  0  0 502 501  0.0000000E+00  0.0000000E+00 -2.0856684E+03  2.0856684E+03  0.0000000E+00  0.0000000E+00  1.0000000E+00
 39  2  1  2   0   0 -5.8975047E-13  1.0800250E-11 -1.9642880E+03  2.2070489E+03  1.0062988E+03  0.0000000E+00  1.0000000E+00
 23  2  3  3   0   0 -2.6650738E+01  4.8065542E+02 -1.2362488E+03  1.3297831E+03  9.0950746E+01  0.0000000E+00  1.0000000E+00
 23  2  3  3   0   0  2.6650738E+01 -4.8065542E+02 -7.2803922E+02  8.7726578E+02  8.8398197E+01  0.0000000E+00  1.0000000E+00
-11  1  4  4   0   0 -1.4165558E+01  5.1970379E+01 -2.2488140E+02  2.3124279E+02  2.6428998E-05  0.0000000E+00  1.0000000E+00
 11  1  4  4   0   0 -1.2485179E+01  4.2868504E+02 -1.0113674E+03  1.0985403E+03  9.3440618E-06  0.0000000E+00  1.0000000E+00
-13  1  5  5   0   0  1.2710620E+01 -1.0589439E+01 -4.5388896E+01  4.8309916E+01  2.5303839E-05  0.0000000E+00  1.0000000E+00
 13  1  5  5   0   0  1.3940117E+01 -4.7006598E+02 -6.8265033E+02  8.2895586E+02  3.6314836E-06  0.0000000E+00  1.0000000E+00
</event>
<event>
9 100 1.0000000E+00 1.0000000E+03 7.8125000E-03 0.0000000E+00
 21 -1  0  0 501 502  0.0000000E+00  0.0000000E+00  4.9560623E+02  4.9560623E+02  0.0000000E+00  0.0000000E+00  1.0000000E+00
 21 -1  0  0 502 501  0.0000000E+00  0.0000000E+00 -5.0067401E+02  5.0067401E+02  0.0000000E+00  0.0000000E+00  1.0000000E+00
 39  2  1  2   0   0  1.7621460E-12 -2.7000624E-13 -5.0677766E+00  9.9628024E+02  9.9626735E+02  0.0000000E+00  1.0000000E+00
 23  2  3  3   0   0  4.7494216E+02 -7.1586514E+01 -1.0444436E+02  4.9679740E+02  7.2141161E+01  0.0000000E+00  1.0000000E+00
 23  2  3  3   0   0 -4.7494216E+02  7.1586514E+01  9.9376584E+01  4.9948284E+02  9.4407182E+01  0.0000000E+00  1.0000000E+00
-11  1  4  4   0   0  3.7009596E+02 -2.5229816E+01 -8.4106668E+01  3.8037021E+02  3.0625421E-06  0.0000000E+00  1.0000000E+00
 11  1  4  4   0   0  1.0484620E+02 -4.6356698E+01 -2.0337692E+01  1.1642719E+02  6.4681339E-06  0.0000000E+00  1.0000000E+00
-13  1  5  5   0   0 -2.8595620E+02  8.9399967E+01  5.6767653E+01  3.0493585E+02  8.0781337E-06  0.0000000E+00  1.0000000E+00
 13  1  5  5   0   0 -1.8898595E+02 -1.7813453E+01  4.2608931E+01  1.9454699E+02  9.2462155E-06  0.0000000E+00  1.0000000E+00
</event>
<event>
9 100 1.0000000E+00 1.0000000E+03 7.8125000E-03 0.0000000E+00
 21 -1  0  0 501 502  0.0000000E+00  0.0000000E+00  6.1153675E+02  6.1153675E+02  0.0000000E+00  0.0000000E+00  1.0000000E+00
 21 -1  0  0 502 501  0.0000000E+00  0.0000000E+00 -4.1690714E+02  4.1690714E+02  0.0000000E+00  0.0000000E+00  1.0000000E+00
 39  2  1  2   0   0  7.9580786E-13 -1.0231815E-12  1.9462961E+02  1.0284439E+03  1.0098595E+03  0.0000000E+00  1.0000000E+00
 23  2  3  3   0   0  2.7911335E+02 -3.4142919E+02 -1.3433020E+02  4.7050228E+02  9.4072522E+01  0.0000000E+00  1.0000000E+00
 23  2  3  3   0   0 -2.7911335E+02  3.4142919E+02  3.2895981E+02  5.5794162E+02  9.2769292E+01  0.0000000E+00  1.0000000E+00
-11  1  4  4   0   0  2.7888736E+01 -5.1068863E+01 -5.1516811E+01  7.7716100E+01  1.0915301E-05  0.0000000E+00  1.0000000E+00
 11  1  4  4   0   0  2.5122461E+02 -2.9036032E+02 -8.2813389E+01  3.9278618E+02  4.1569700E-06  0.0000000E+00  1.0000000E+00
-13  1  5  5   0   0 -1.5637927E+02  2.4504677E+02  2.4814755E+02  3.8220361E+02  6.8770433E-06  0.0000000E+00  1.0000000E+00
 13  1  5  5   0   0 -1.2273408E+02  9.6382417E+01  8.0812258E+01  1.7573801E+02  1.2361032E-05  0.0000000E+00  1.0000000E+00
</event>
<event>
9 100 1.0000000E+00 1.0000000E+03 7.8125000E-03 0.0000000E+00
 21 -1  0  0 501 502  0.0000000E+00  0.0000000E+00  1.4642703E+03  1.4642703E+03  0.0000000E+00  0.0000000E+00  1.0000000E+00
 21 -1  0  0 502 501  0.0000000E+00  0.0000000E+00 -1.7867350E+02  1.7867350E+02  0.0000000E+00  0.0000000E+00  1.0000000E+00
 39  2  1  2   0   0  5.8548721E-12  6.4233063E-12  1.2855968E+03  1.6429438E+03  1.0229884E+03  0.0000000E+00  1.0000000E+00
 23  2  3  3   0   0 -3.2799469E+02 -3.5380981E+02  4.1414851E+02  6.4268444E+02  9.3607708E+01  0.0000000E+00  1.0000000E+00
 23  2  3  3   0   0  3.2799469E+02  3.5380981E+02  8.7144825E+02  1.0002593E+03  9.1294963E+01  0.0000000E+00  1.0000000E+00
-11  1  4  4   0   0 -2.1978141E+02 -1.7569784E+02  2.1158034E+02  3.5205091E+02  9.3440618E-06  0.0000000E+00  1.0000000E+00
 11  1  4  4   0   0 -1.0821328E+02 -1.7811197E+02  2.0256817E+02  2.9063353E+02  1.1757687E-05  0.0000000E+00  1.0000000E+00
-13  1  5  5   0   0  2.0373205E+02  1.5340988E+02  4.3908370E+02  5.0777538E+02  1.0789593E-05  0.0000000E+00  1.0000000E+00
 13  1  5  5   0   0  1.2426264E+02  2.0039993E+02  4.3236455E+02  4.9248395E+02  9.3440618E-06  0.0000000E+00  1.0000000E+00
</event>
<event>
9 100 1.0000000E+00 1.0000000E+03 7.8125000E-03 0.0000000E+00
 21 -1  0  0 501 502  0.0000000E+00  0.0000000E+00  2.2573333E+02  2.2573333E+02  0.0000000E+00  0.0000000E+00  1.0000000E+00
 21 -1  0  0 502 501  0.0000000E+00  0.0000000E+00 -1.1008627E+03  1.1008627E+03  0.0000000E+00  0.0000000E+00  1.0000000E+00
 39  2  1  2   0   0  2.8705927E-12  8.4376950E-15 -8.7512940E+02  1.3265961E+03  9.9699831E+02  0.0000000E+00  1.0000000E+00
 23  2  3  3   0   0 -2.0730510E+02 -5.8371608E-01 -1.0293934E+03  1.0540202E+03  9.1279938E+01  0.0000000E+00  1.0000000E+00
 23  2  3  3   0   0  2.0730510E+02  5.8371608E-01  1.5426397E+02  2.7257591E+02  8.6743907E+01  0.0000000E+00  1.0000000E+00
-11  1  4  4   0   0 -4.5698977E+01 -3.1886496E+01 -1.6682855E+02  1.7588891E+02  1.0789593E-05  0.0000000E+00  1.0000000E+00
 11  1  4  4   0   0 -1.6160613E+02  3.1302780E+01 -8.6256482E+02  8.7813124E+02  4.6720309E-06  0.0000000E+00  1.0000000E+00
-13  1  5  5   0   0  1.5888899E+02 -3.5875946E-02  1.5791892E+02  2.2401808E+02  8.0189848E-07  0.0000000E+00  1.0000000E+00
 13  1  5  5   0   0  4.8416112E+01  6.1959203E-01 -3.6549563E+00  4.8557826E+01  1.9073486E-06  0.0000000E+00  1.0000000E+00
</event>
<event>
9 100 1.0000000E+00 1.0000000E+03 7.8125000E-03 0.0000000E+00
 21 -1  0  0 501 502  0.0000000E+00  0.0000000E+00  1.6839315E+03  1.6839315E+03  0.0000000E+00  0.0000000E+00  1.0000000E+00
 21 -1  0  0 502 501  0.0000000E+00  0.0000000E+00 -1.5100217E+02  1.5100217E+02  0.0000000E+00  0.0000000E+00  1.0000000E+00
 39  2  1  2   0   0  1.1652901E-12  3.0411229E-12  1.5329293E+03  1.8349337E+03  1.0085184E+03  0.0000000E+00  1.0000000E+00
 23  2  3  3   0   0 -6.5210260E+01 -1.6842113E+02 -7.7108693E+01  2.1267844E+02  8.1659736E+01  0.0000000E+00  1.0000000E+00
 23  2  3  3   0   0  6.5210260E+01  1.6842113E+02  1.6100380E+03  1.6222553E+03  8.2894829E+01  0.0000000E+00  1.0000000E+00
-11  1  4  4   0   0  1.0135603E+01 -5.9829447E+01 -4.7923283E+01  7.7323569E+01  4.5110912E-06  0.0000000E+00  1.0000000E+00
 11  1  4  4   0   0 -7.5345863E+01 -1.0859168E+02 -2.9185410E+01  1.3535487E+02  3.2340670E-06  0.0000000E+00  1.0000000E+00
-13  1  5  5   0   0  4.6866015E+00  3.5543302E+01  1.2450853E+02  1.2956722E+02  3.7376247E-05  0.0000000E+00  1.0000000E+00
 13  1  5  5   0   0  6.0523659E+01  1.3287783E+02  1.4855295E+03  1.4926880E+03  8.0921949E-06  0.0000000E+00  1.0000000E+00
</event>
<event>
9 100 1.0000000E+00 1.0000000E+03 7.8125000E-03 0.0000000E+00
 21 -1  0  0 501 502  0.0000000E+00  0.0000000E+00  3.6596301E+02  3.6596301E+02  0.0000000E+00  0.0000000E+00  1.0000000E+00
 21 -1  0  0 502 501  0.0000000E+00  0.0000000E+00 -6.8569349E+02  6.8569349E+02  0.0000000E+00  0.0000000E+00  1.0000000E+00
 39  2  1  2   0   0 -1.8189894E-12 -2.3874236E-12 -3.1973048E+02  1.0516565E+03  1.0018752E+03  0.0000000E+00  1.0000000E+00
 23  2  3  3   0   0 -2.6001696E+02 -3.4897736E+02  8.2161962E+01  4.5218598E+02  9.1255460E+01  0.0000000E+00  1.0000000E+00
 23  2  3  3   0   0  2.6001696E+02  3.4897736E+02 -4.0189245E+02  5.9947052E+02  9.1942100E+01  0.0000000E+00  1.0000000E+00
-11  1  4  4   0   0 -1.7300820E+01 -6.3341771E+01  3.4974728E+01  7.4395766E+01  1.4942588E-05  0.0000000E+00  1.0000000E+00
 11  1  4  4   0   0 -2.4271614E+02 -2.8563559E+02  4.7187235E+01  3.7779022E+02  5.5608291E-06  0.0000000E+00  1.0000000E+00
-13  1  5  5   0   0  1.9341498E+02  3.1095409E+02 -3.5223845E+02  5.0810799E+02  5.3524838E-06  0.0000000E+00  1.0000000E+00
 13  1  5  5   0   0  6.6601982E+01  3.8023265E+01 -4.9653991E+01  9.1362528E+01  1.7892516E-05  0.0000000E+00  1.0000000E+00
</event>
<event>
9 100 1.0000000E+00 1.0000000E+03 7.8125000E-03 0.0000000E+00
 21 -1  0  0 501 502  0.0000000E+00  0.0000000E+00  6.3027351E+02  6.3027351E+02  0.0000000E+00  0.0000000E+00  1.0000000E+00
 21 -1  0  0 502 501  0.0000000E+00  0.0000000E+00 -3.9579516E+02  3.9579516E+02  0.0000000E+00  0.0000000E+00  1.0000000E+00
 39  2  1  2   0   0  6.5369932E-13  1.4779289E-12  2.3447835E+02  1.0260687E+03  9.9891782E+02  0.0000000E+00  1.0000000E+00
 23  2  3  3   0   0 -1.8993715E+02 -4.1566826E+02 -6.4838110E+01  4.7114149E+02  9.4414468E+01  0.0000000E+00  1.0000000E+00
 23  2  3  3   0   0  1.8993715E+02  4.1566826E+02  2.9931646E+02  5.5492718E+02  9.7455653E+01  0.0000000E+00  1.0000000E+00
-11  1  4  4   0   0 -1.7634736E+02 -3.3866417E+02 -2.3148292E+01  3.8252798E+02  5.9365747E-06  0.0000000E+00  1.0000000E+00
 11  1  4  4   0   0 -1.3589798E+01 -7.7004092E+01 -4.1689818E+01  8.8613507E+01  1.9280974E-05  0.0000000E+00  1.0000000E+00
-13  1  5  5   0   0  1.9769264E+02  3.5684831E+02  2.6049505E+02  4.8402558E+02  4.5736613E-06  0.0000000E+00  1.0000000E+00
 13  1  5  5   0   0 -7.7554823E+00  5.8819956E+01  3.8821410E+01  7.0901598E+01  2.0185481E-05  0.0000000E+00  1.0000000E+00
</event>
<event>
9 100 1.0000000E+00 1.0000000E+03 7.8125000E-03 0.0000000E+00
 21 -1  0  0 501 502  0.0000000E+00  0.0000000E+00  1.6906551E+03  1.6906551E+03  0.0000000E+00  0.0000000E+00  1.0000000E+00
 21 -1  0  0 502 501  0.0000000E+00  0.0000000E+00 -1.4676533E+02  1.4676533E+02  0.0000000E+00  0.0000000E+00  1.0000000E+00
 39  2  1  2   0   0 -3.4674486E-12  1.3855583E-13  1.5438898E+03  1.8374204E+03  9.9625208E+02  0.0000000E+00  1.0000000E+00
 23  2  3  3   0   0 -3.4294696E+02  1.4161391E+01  1.4159062E+03  1.4596963E+03  9.0053436E+01  0.0000000E+00  1.0000000E+00
 23  2  3  3   0   0  3.4294696E+02 -1.4161391E+01  1.2798356E+02  3.7772416E+02  9.2100966E+01  0.0000000E+00  1.0000000E+00
-11  1  4  4   0   0 -1.4994684E+02  4.9197970E+01  6.8300166E+02  7.0099626E+02  2.8546580E-05  0.0000000E+00  1.0000000E+00
 11  1  4  4   0   0 -1.9300012E+02 -3.5036579E+01  7.3290455E+02  7.5870000E+02  2.5303839E-05  0.0000000E+00  1.0000000E+00
-13  1  5  5   0   0  1.7757547E+02 -2.2546279E+01  2.0169281E+01  1.8013379E+02  1.1987500E-05  0.0000000E+00  1.0000000E+00
 13  1  5  5   0   0  1.6537149E+02  8.3848874E+00  1.0781428E+02  1.9759037E+02  1.0574072E-05  0.0000000E+00  1.0000000E+00
</event>
<event>
9 100 1.0000000E+00 1.0000000E+03 7.8125000E-03 0.0000000E+00
 21 -1  0  0 501 502  0.0000000E+00  0.0000000E+00  8.2176396E+02  8.2176396E+02  0.0000000E+00  0.0000000E+00  1.0000000E+00
 21 -1  0  0 502 501  0.0000000E+00  0.0000000E+00 -3.0328682E+02  3.0328682E+02  0.0000000E+00  0.0000000E+00  1.0000000E+00
 39  2  1  2   0   0  9.6633812E-13 -8.5265128E-14  5.1847714E+02  1.1250508E+03  9.9845917E+02  0.0000000E+00  1.0000000E+00
 23  2  3  3   0   0 -4.1905427E+02  4.3908788E+01 -2.4084498E+01  4.3182750E+02  9.1435580E+01  0.0000000E+00  1.0000000E+00
 23  2  3  3   0   0  4.1905427E+02 -4.3908788E+01  5.4256164E+02  6.9322328E+02  9.3010305E+01  0.0000000E+00  1.0000000E+00
-11  1  4  4   0   0 -2.8110534E+02  5.4989707E+00  2.0352035E+01  2.8189476E+02  4.3702847E-06  0.0000000E+00  1.0000000E+00
 11  1  4  4   0   0 -1.3794893E+02  3.8409817E+01 -4.4436534E+01  1.4993274E+02  7.3794306E-06  0.0000000E+00  1.0000000E+00
-13  1  5  5   0   0  4.0865268E+02 -5.0260435E+01  4.9365356E+02  6.4281954E+02  3.5040232E-06  0.0000000E+00  1.0000000E+00
 13  1  5  5   0   0  1.0401592E+01  6.3516472E+00  4.8908082E+01  5.0403740E+01  2.2243316E-05  0.0000000E+00  1.0000000E+00
</event>
<event>
9 100 1.0000000E+00 1.0000000E+03 7.8125000E-03 0.0000000E+00
 21 -1  0  0 501 502  0.0000000E+00  0.0000000E+00  3.8625759E+02  3.8625759E+02  0.0000000E+00  0.0000000E+00  1.0000000E+00
 21 -1  0  0 502 501  0.0000000E+00  0.0000000E+00 -6.4607764E+02  6.4607764E+02  0.0000000E+00  0.0000000E+00  1.0000000E+00
 39  2  1  2   0   0  3.7303494E-14  9.0949470E-13 -2.5982005E+02  1.0323352E+03  9.9910439E+02  0.0000000E+00  1.0000000E+00
 23  2  3  3   0   0 -1.1538061E+01 -3.2504931E+02  2.5025969E+02  4.2041125E+02  9.1244319E+01  0.0000000E+00  1.0000000E+00
 23  2  3  3   0   0  1.1538061E+01  3.2504931E+02 -5.1007974E+02  6.1192399E+02  9.2083933E+01  0.0000000E+00  1.0000000E+00
-11  1  4  4   0   0 -1.2348135E+01 -1.5166321E+02  6.1554497E+01  1.6414372E+02  1.1757687E-05  0.0000000E+00  1.0000000E+00
 11  1  4  4   0   0  8.1007332E-01 -1.7338610E+02  1.8870519E+02  2.5626753E+02  7.2315936E-06  0.0000000E+00  1.0000000E+00
-13  1  5  5   0   0 -2.5614648E+01  2.6686590E+02 -4.2297126E+02  5.0077760E+02  2.5231851E-06  0.0000000E+00  1.0000000E+00
 13  1  5  5   0   0  3.7152710E+01  5.8183405E+01 -8.7108476E+01  1.1114639E+02  1.4273290E-05  0.0000000E+00  1.0000000E+00
</event>
<event>
9 100 1.0000000E+00 1.0000000E+03 7.8125000E-03 0.0000000E+00
 21 -1  0  0 501 502  0.0000000E+00  0.0000000E+00  6.5916286E+02  6.5916286E+02  0.0000000E+00  0.0000000E+00  1.0000000E+00
 21 -1  0  0 502 501  0.0000000E+00  0.0000000E+00 -3.6424142E+02  3.6424142E+02  0.0000000E+00  0.0000000E+00  1.0000000E+00
 39  2  1  2   0   0 -6.2527761E-13 -1.4779289E-12  2.9492144E+02  1.0234043E+03  9.7998861E+02  0.0000000E+00  1.0000000E+00
 23  2  3  3   0   0 -1.4993900E+02 -3.8590192E+02  4.0445251E+02  5.8584946E+02  9.0751106E+01  0.0000000E+00  1.0000000E+00
 23  2  3  3   0   0  1.4993900E+02  3.8590192E+02 -1.0953107E+02  4.3755483E+02  8.9750658E+01  0.0000000E+00  1.0000000E+00
-11  1  4  4   0   0  9.7369282E+00 -4.4318579E+01  5.9298370E+01  7.4667536E+01  2.2568053E-05  0.0000000E+00  1.0000000E+00
 11  1  4  4   0   0 -1.5967593E+02 -3.4158334E+02  3.4515414E+02  5.1118192E+02  4.6720309E-06  0.0000000E+00  1.0000000E+00
-13  1  5  5   0   0  6.6614575E+01  2.1976278E+02 -1.0272670E+02  2.5156700E+02  8.0167693E-06  0.0000000E+00  1.0000000E+00
 13  1  5  5   0   0  8.3324427E+01  1.6613914E+02 -6.8043673E+00  1.8598783E+02  1.3006384E-05  0.0000000E+00  1.0000000E+00
</event>
<event>
9 100 1.0000000E+00 1.0000000E+03 7.8125000E-03 0.0000000E+00
 21 -1  0  0 501 502  0.0000000E+00  0.0000000E+00  1.8187075E+02  1.8187075E+02  0.0000000E+00  0.0000000E+00  1.0000000E+00
 21 -1  0  0 502 501  0.0000000E+00  0.0000000E+00 -1.3573242E+03  1.3573242E+03  0.0000000E+00  0.0000000E+00  1.0000000E+00
 39  2  1  2   0   0 -4.7748472E-12  5.6843419E-13 -1.1754535E+03  1.5391950E+03  9.9369526E+02  0.0000000E+00  1.0000000E+00
 23  2  3  3   0   0 -3.5270460E+02  4.1611520E+01 -1.1057576E+03  1.1650667E+03  9.2457756E+01  0.0000000E+00  1.0000000E+00
 23  2  3  3   0   0  3.5270460E+02 -4.1611520E+01 -6.9695894E+01  3.7412831E+02  9.4775604E+01  0.0000000E+00  1.0000000E+00
-11  1  4  4   0   0 -6.4464726E+01  4.4033331E+01 -2.6565879E+02  2.7689209E+02  3.0517578E-05  0.0000000E+00  1.0000000E+00
 11  1  4  4   0   0 -2.8823988E+02 -2.4218113E+00 -8.4009880E+02  8.8817458E+02  5.3947966E-06  0.0000000E+00  1.0000000E+00
-13  1  5  5   0   0  2.2035612E+02 -7.5596126E+00 -8.5658363E+01  2.3654032E+02  5.9628482E-06  0.0000000E+00  1.0000000E+00
 13  1  5  5   0   0  1.3234848E+02 -3.4051907E+01  1.5962469E+01  1.3758799E+02  8.7405695E-06  0.0000000E+00  1.0000000E+00
</event>
<event>
9 100 1.0000000E+00 1.0000000E+03 7.8125000E-03 0.0000000E+00
 21 -1  0  0 501 502  0.0000000E+00  0.0000000E+00  1.0313186E+02  1.0313186E+02  0.0000000E+00  0.0000000E+00  1.0000000E+00
 21 -1  0  0 502 501  0.0000000E+00  0.0000000E+00 -2.4373578E+03  2.4373578E+03  0.0000000E+00  0.0000000E+00  1.0000000E+00
 39  2  1  2   0   0  6.6222583E-12 -7.4464879E-12 -2.3342259E+03  2.5404897E+03  1.0027348E+03  0.0000000E+00  1.0000000E+00
 23  2  3  3   0   0  1.7294010E+02 -1.9524844E+02 -2.2272167E+03  2.2440037E+03  8.3834714E+01  0.0000000E+00  1.0000000E+00
 23  2  3  3   0   0 -1.7294010E+02  1.9524844E+02 -1.0700927E+02  2.9648597E+02  9.1775347E+01  0.0000000E+00  1.0000000E+00
-11  1  4  4   0   0  1.0603966E+02 -6.4352770E+01 -8.5825269E+02  8.6716975E+02  2.6428998E-05  0.0000000E+00  1.0000000E+00
 11  1  4  4   0   0  6.6900433E+01 -1.3089567E+02 -1.3689640E+03  1.3768339E+03  2.6428998E-05  0.0000000E+00  1.0000000E+00
-13  1  5  5   0   0 -1.7251670E+02  1.4447771E+02 -7.8924916E+01  2.3846375E+02  5.3205284E-06  0.0000000E+00  1.0000000E+00
 13  1  5  5   0   0 -4.2340160E-01  5.0770736E+01 -2.8084354E+01  5.8022218E+01  1.5078915E-05  0.0000000E+00  1.0000000E+00
</event>
<event>
9 100 1.0000000E+00 1.0000000E+03 7.8125000E-03 0.0000000E+00
 21 -1  0  0 501 502  0.0000000E+00  0.0000000E+00  3.4231643E+02  3.4231643E+02  0.0000000E+00  0.0000000E+00  1.0000000E+00
 21 -1  0  0 502 501  0.0000000E+00  0.0000000E+00 -7.2860003E+02  7.2860003E+02  0.0000000E+00  0.0000000E+00  1.0000000E+00
 39  2  1  2   0   0  9.9475983E-14 -7.1054274E-14 -3.8628360E+02  1.0709165E+03  9.9882284E+02  0.0000000E+00  1.0000000E+00
 23  2  3  3   0   0 -1.1904108E+02  8.1682114E+01  3.1038962E+02  3.5398409E+02  9.0112571E+01  0.0000000E+00  1.0000000E+00
 23  2  3  3   0   0  1.1904108E+02 -8.1682114E+01 -6.9667322E+02  7.1693238E+02  8.8293371E+01  0.0000000E+00  1.0000000E+00
-11  1  4  4   0   0  1.0198770E+01  2.8778773E+01  5.4729624E+01  6.2670284E+01  9.3440618E-06  0.0000000E+00  1.0000000E+00
 11  1  4  4   0   0 -1.2923985E+02  5.2903340E+01  2.5565999E+02  2.9131381E+02  3.5040232E-06  0.0000000E+00  1.0000000E+00
-13  1  5  5   0   0  1.6317063E+01 -3.7940859E+01 -3.5698459E+02  3.5936577E+02  1.0092740E-05  0.0000000E+00  1.0000000E+00
 13  1  5  5   0   0  1.0272401E+02 -4.3741254E+01 -3.3968863E+02  3.5756661E+02  5.3947966E-06  0.0000000E+00  1.0000000E+00
</event>
<event>
9 100 1.0000000E+00 1.0000000E+03 7.8125000E-03 0.0000000E+00
 21 -1  0  0 501 502  0.0000000E+00  0.0000000E+00  1.8918379E+02  1.8918379E+02  0.0000000E+00  0.0000000E+00  1.0000000E+00
 21 -1  0  0 502 501  0.0000000E+00  0.0000000E+00 -1.3456374E+03  1.3456374E+03  0.0000000E+00  0.0000000E+00  1.0000000E+00
 39  2  1  2   0   0  3.2684966E-13  1.8189894E-12 -1.1564536E+03  1.5348212E+03  1.0091041E+03  0.0000000E+00  1.0000000E+00
 23  2  3  3   0   0 -7.4834176E+01 -4.1324546E+02 -1.7662450E+02  4.6476492E+02  9.1859938E+01  0.0000000E+00  1.0000000E+00
 23  2  3  3   0   0  7.4834176E+01  4.1324546E+02 -9.7982910E+02  1.0700563E+03  9.2646498E+01  0.0000000E+00  1.0000000E+00
-11  1  4  4   0   0 -2.0769724E+01 -3.1177097E+02 -1.0662057E+02  3.3015218E+02  3.0157830E-06  0.0000000E+00  1.0000000E+00
 11  1  4  4   0   0 -5.4064452E+01 -1.0147449E+02 -7.0003930E+01  1.3461273E+02  9.3440618E-06  0.0000000E+00  1.0000000E+00
-13  1  5  5   0   0  1.3454222E+01  1.4186501E+02 -2.3348375E+02  2.7353493E+02  1.5258789E-05  0.0000000E+00  1.0000000E+00
 13  1  5  5   0   0  6.1379954E+01  2.7138045E+02 -7.4634535E+02  7.9652133E+02  4.6720309E-06  0.0000000E+00  1.0000000E+00
</event>
<event>
9 100 1.0000000E+00 1.0000000E+03 7.8125000E-03 0.0000000E+00
 21 -1  0  0 501 502  0.0000000E+00  0.0000000E+00  4.9580207E+03  4.9580207E+03  0.0000000E+00  0.0000000E+00  1.0000000E+00
 21 -1  0  0 502 501  0.0000000E+00  0.0000000E+00 -4.9095465E+01  4.9095465E+01  0.0000000E+00  0.0000000E+00  1.0000000E+00
 39  2  1  2   0   0  2.1458391E-12 -1.8587798E-11  4.9089252E+03  5.0071161E+03  9.8674481E+02  0.0000000E+00  1.0000000E+00
 23  2  3  3   0   0  5.4758370E+01 -4.6817938E+02  1.8678547E+03  1.9283524E+03  8.6437887E+01  0.0000000E+00  1.0000000E+00
 23  2  3  3   0   0 -5.4758370E+01  4.6817938E+02  3.0410705E+03  3.0787637E+03  9.2117939E+01  0.0000000E+00  1.0000000E+00
-11  1  4  4   0   0  6.6889999E+01 -3.4879549E+02  1.4976902E+03  1.5392233E+03  1.2063132E-05  0.0000000E+00  1.0000000E+00
 11  1  4  4   0   0 -1.2131630E+01 -1.1938389E+02  3.7016448E+02  3.8912907E+02  3.7376247E-05  0.0000000E+00  1.0000000E+00
-13  1  5  5   0   0 -4.6271766E+01  4.6918533E+02  2.9992261E+03  3.0360555E+03  4.7444698E-06  0.0000000E+00  1.0000000E+00
 13  1  5  5   0   0 -8.4866034E+00 -1.0059492E+00  4.1844484E+01  4.2708257E+01  0.0000000E+00  0.0000000E+00  1.0000000E+00
</event>
<event>
9 100 1.0000000E+00 1.0000000E+03 7.8125000E-03 0.0000000E+00
 21 -1  0  0 501 502  0.0000000E+00  0.0000000E+00  2.6436764E+03  2.6436764E+03  0.0000000E+00  0.0000000E+00  1.0000000E+00
 21 -1  0  0 502 501  0.0000000E+00  0.0000000E+00 -9.2821067E+01  9.2821067E+01  0.0000000E+00  0.0000000E+00  1.0000000E+00
 39  2  1  2   0   0 -1.2192913E-11  7.3043793E-12  2.5508554E+03  2.7364975E+03  9.9073481E+02  0.0000000E+00  1.0000000E+00
 23  2  3  3   0   0  2.4897054E+02 -1.4961573E+02  2.3537334E+03  2.3732543E+03  8.8905624E+01  0.0000000E+00  1.0000000E+00
 23  2  3  3   0   0 -2.4897054E+02  1.4961573E+02  1.9712200E+02  3.6324316E+02  9.3366537E+01  0.0000000E+00  1.0000000E+00
-11  1  4  4   0   0  2.3513136E+02 -1.4632026E+02  2.3222617E+03  2.3387167E+03  1.6858739E-06  0.0000000E+00  1.0000000E+00
 11  1  4  4   0   0  1.3839182E+01 -3.2954723E+00  3.1471642E+01  3.4537622E+01  0.0000000E+00  0.0000000E+00  1.0000000E+00
-13  1  5  5   0   0 -5.8543783E+01  7.5309189E+01  9.5450490E+01  1.3494312E+02  1.0271387E-05  0.0000000E+00  1.0000000E+00
 13  1  5  5   0   0 -1.9042676E+02  7.4306545E+01  1.0167151E+02  2.2830004E+02  7.5092391E-06  0.0000000E+00  1.0000000E+00
</event>
<event>
9 100 1.0000000E+00 1.0000000E+03 7.8125000E-03 0.0000000E+00
 21 -1  0  0 501 502  0.0000000E+00  0.0000000E+00  5.3394306E+02  5.3394306E+02  0.0000000E+00  0.0000000E+00  1.0000000E+00
 21 -1  0  0 502 501  0.0000000E+00  0.0000000E+00 -4.9902319E+02  4.9902319E+02  0.0000000E+00  0.0000000E+00  1.0000000E+00
 39  2  1  2   0   0 -2.2737368E-13 -4.6185278E-14  3.4919861E+01  1.0329662E+03  1.0323758E+03  0.0000000E+00  1.0000000E+00
 23  2  3  3   0   0 -1.2514622E+02 -2.7766496E+01  5.0671028E+02  5.3052869E+02  9.0955103E+01  0.0000000E+00  1.0000000E+00
 23  2  3  3   0   0  1.2514622E+02  2.7766496E+01 -4.7179042E+02  5.0243756E+02  1.1586522E+02  0.0000000E+00  1.0000000E+00
-11  1  4  4   0   0 -3.1179937E+01 -6.4449969E+00  2.8575967E+01  4.2782150E+01  1.7059845E-05  0.0000000E+00  1.0000000E+00
 11  1  4  4   0   0 -9.3966284E+01 -2.1321499E+01  4.7813431E+02  4.8774654E+02  2.4546695E-06  0.0000000E+00  1.0000000E+00
-13  1  5  5   0   0  6.0332808E+01  5.5804903E+00 -6.1013308E+01  8.5987286E+01  1.2063132E-05  0.0000000E+00  1.0000000E+00
 13  1  5  5   0   0  6.4813412E+01  2.2186005E+01 -4.1077711E+02  4.1645027E+02  2.0230487E-06  0.0000000E+00  1.0000000E+00
</event>
<event>
9 100 1.0000000E+00 1.0000000E+03 7.8125000E-03 0.0000000E+00
 21 -1  0  0 501 502  0.0000000E+00  0.0000000E+00  3.8652246E+02  3.8652246E+02  0.0000000E+00  0.0000000E+00  1.0000000E+00
 21 -1  0  0 502 501  0.0000000E+00  0.0000000E+00 -6.4156258E+02  6.4156258E+02  0.0000000E+00  0.0000000E+00  1.0000000E+00
 39  2  1  2   0   0 -2.2737368E-13  1.9895197E-13 -2.5504012E+02  1.0280850E+03  9.9594848E+02  0.0000000E+00  1.0000000E+00
 23  2  3  3   0   0  3.9201045E+02 -2.4696337E+02 -2.9080503E+02  5.5443095E+02  9.0349413E+01  0.0000000E+00  1.0000000E+00
 23  2  3  3   0   0 -3.9201045E+02  2.4696337E+02  3.5764909E+01  4.7365408E+02  9.1684052E+01  0.0000000E+00  1.0000000E+00
-11  1  4  4   0   0  3.3729040E+02 -1.7030121E+02 -2.3125973E+02  4.4299930E+02  6.5727466E-06  0.0000000E+00  1.0000000E+00
 11  1  4  4   0   0  5.4720051E+01 -7.6662160E+01 -5.9545297E+01  1.1143165E+02  1.7271776E-05  0.0000000E+00  1.0000000E+00
-13  1  5  5   0   0 -3.8413862E+02  2.5219380E+02  2.6299393E+01  4.6027801E+02  2.8235243E-06  0.0000000E+00  1.0000000E+00
 13  1  5  5   0   0 -7.8718310E+00 -5.2304384E+00  9.4655160E+00  1.3376068E+01  2.2718676E-05  0.0000000E+00  1.0000000E+00
</event>
<event>
9 100 1.0000000E+00 1.0000000E+03 7.8125000E-03 0.0000000E+00
 21 -1  0  0 501 502  0.0000000E+00  0.0000000E+00  8.2151597E+02  8.2151597E+02  0.0000000E+00  0.0000000E+00  1.0000000E+00
 21 -1  0  0 502 501  0.0000000E+00  0.0000000E+00 -3.1412108E+02  3.1412108E+02  0.0000000E+00  0.0000000E+00  1.0000000E+00
 39  2  1  2   0   0  1.0231815E-12  3.4106051E-13  5.0739490E+02  1.1356370E+03  1.0159832E+03  0.0000000E+00  1.0000000E+00
 23  2  3  3   0   0 -4.1066686E+02 -1.3258809E+02 -2.6721214E+01  4.4301415E+02  9.6543467E+01  0.0000000E+00  1.0000000E+00
 23  2  3  3   0   0  4.1066686E+02  1.3258809E+02  5.3411611E+02  6.9262290E+02  9.0662002E+01  0.0000000E+00  1.0000000E+00
-11  1  4  4   0   0 -2.2641119E+02 -2.4138119E+01 -1.2325936E+00  2.2769759E+02  5.1687916E-06  0.0000000E+00  1.0000000E+00
 11  1  4  4   0   0 -1.8425567E+02 -1.0844997E+02 -2.5488620E+01  2.1531656E+02  7.2714918E-06  0.0000000E+00  1.0000000E+00
-13  1  5  5   0   0  3.2208674E+02  6.4854260E+01  4.1749032E+02  5.3126652E+02  5.5608291E-06  0.0000000E+00  1.0000000E+00
 13  1  5  5   0   0  8.8580116E+01  6.7733832E+01  1.1662579E+02  1.6135638E+02  9.3440618E-06  0.0000000E+00  1.0000000E+00
</event>
<event>
9 100 1.0000000E+00 1.0000000E+03 7.8125000E-03 0.0000000E+00
 21 -1  0  0 501 502  0.0000000E+00  0.0000000E+00  1.2182640E+03  1.2182640E+03  0.0000000E+00  0.0000000E+00  1.0000000E+00
 21 -1  0  0 502 501  0.0000000E+00  0.0000000E+00 -2.0411223E+02  2.0411223E+02  0.0000000E+00  0.0000000E+00  1.0000000E+00
 39  2  1  2   0   0  4.5474735E-13 -1.0516032E-12  1.0141517E+03  1.4223762E+03  9.9732156E+02  0.0000000E+00  1.0000000E+00
 23  2  3  3   0   0  3.9414053E+01 -8.9702456E+01  1.1917069E+03  1.1993322E+03  9.2910737E+01  0.0000000E+00  1.0000000E+00
 23  2  3  3   0   0 -3.9414053E+01  8.9702456E+01 -1.7755517E+02  2.2304398E+02  9.2858912E+01  0.0000000E+00  1.0000000E+00
-11  1  4  4   0   0  1.3210963E+01 -1.8874059E+01  8.0447893E+02  8.0480874E+02  1.6184390E-05  0.0000000E+00  1.0000000E+00
 11  1  4  4   0   0  2.6203089E+01 -7.0828397E+01  3.8722798E+02  3.9452347E+02  2.6428998E-05  0.0000000E+00  1.0000000E+00
-13  1  5  5   0   0 -1.2295367E+01  8.0541388E+01 -5.7747272E+01  9.9864101E+01  1.0619668E-05  0.0000000E+00  1.0000000E+00
 13  1  5  5   0   0 -2.7118686E+01  9.1610675E+00 -1.1980790E+02  1.2317988E+02  8.6883865E-06  0.0000000E+00  1.0000000E+00
</event>
<event>
9 100 1.0000000E+00 1.0000000E+03 7.8125000E-03 0.0000000E+00
 21 -1  0  0 501 502  0.0000000E+00  0.0000000E+00  4.5804021E+02  4.5804021E+02  0.0000000E+00  0.0000000E+00  1.0000000E+00
 21 -1  0  0 502 501  0.0000000E+00  0.0000000E+00 -5.5601135E+02  5.5601135E+02  0.0000000E+00  0.0000000E+00  1.0000000E+00
 39  2  1  2   0   0 -8.5265128E-14  5.1159077E-13 -9.7971136E+01  1.0140516E+03  1.0093078E+03  0.0000000E+00  1.0000000E+00
 23  2  3  3   0   0 -8.1342837E+01  4.8467214E+02  2.1575651E+01  5.0023894E+02  9.0828140E+01  0.0000000E+00  1.0000000E+00
 23  2  3  3   0   0  8.1342837E+01 -4.8467214E+02 -1.1954679E+02  5.1381262E+02  9.0488875E+01  0.0000000E+00  1.0000000E+00
-11  1  4  4   0   0 -3.9697314E+01  4.1571819E+02  3.2850903E+01  4.1889936E+02  1.8998834E-06  0.0000000E+00  1.0000000E+00
 11  1  4  4   0   0 -4.1645523E+01  6.8953951E+01 -1.1275252E+01  8.1339586E+01  1.2606911E-05  0.0000000E+00  1.0000000E+00
-13  1  5  5   0   0 -5.0998387E+00 -8.1374755E+01 -4.9685929E+01  9.5480630E+01  6.9428538E-06  0.0000000E+00  1.0000000E+00
 13  1  5  5   0   0  8.6442676E+01 -4.0329738E+02 -6.9860858E+01  4.1833199E+02  1.5078915E-06  0.0000000E+00  1.0000000E+00
</event>
<event>
9 100 1.0000000E+00 1.0000000E+03 7.8125000E-03 0.0000000E+00
 21 -1  0  0 501 502  0.0000000E+00  0.0000000E+00  5.1910548E+02  5.1910548E+02  0.0000000E+00  0.0000000E+00  1.0000000E+00
 21 -1  0  0 502 501  0.0000000E+00  0.0000000E+00 -4.9366275E+02  4.9366275E+02  0.0000000E+00  0.0000000E+00  1.0000000E+00
 39  2  1  2   0   0  2.4158453E-13 -3.1263880E-13  2.5442732E+01  1.0127682E+03  1.0124486E+03  0.0000000E+00  1.0000000E+00
 23  2  3  3   0   0  8.0407758E+01 -9.6866587E+01 -4.7081100E+02  4.9284344E+02  7.3369748E+01  0.0000000E+00  1.0000000E+00
 23  2  3  3   0   0 -8.0407758E+01  9.6866587E+01  4.9625373E+02  5.1992479E+02  9.0584127E+01  0.0000000E+00  1.0000000E+00
-11  1  4  4   0   0  4.7122315E+00 -6.1399000E+01 -1.7905014E+02  1.8934359E+02  7.6293945E-06  0.0000000E+00  1.0000000E+00
 11  1  4  4   0   0  7.5695526E+01 -3.5467587E+01 -2.9176086E+02  3.0349985E+02  1.9073486E-06  0.0000000E+00  1.0000000E+00
-13  1  5  5   0   0  9.3708234E+00 -1.1084096E+01  3.9752148E+01  4.2319060E+01  0.0000000E+00  0.0000000E+00  1.0000000E+00
 13  1  5  5   0   0 -8.9778581E+01  1.0795068E+02  4.5650158E+02  4.7760573E+02  1.5078915E-06  0.0000000E+00  1.0000000E+00
</event>
<event>
9 100 1.0000000E+00 1.0000000E+03 7.8125000E-03 0.0000000E+00
 21 -1  0  0 501 502  0.0000000E+00  0.0000000E+00  7.0052676E+01  7.0052676E+01  0.0000000E+00  0.0000000E+00  1.0000000E+00
 21 -1  0  0 502 501  0.0000000E+00  0.0000000E+00 -3.5461575E+03  3.5461575E+03  0.0000000E+00  0.0000000E+00  1.0000000E+00
 39  2  1  2   0   0 -5.8378191E-11  1.4097168E-11 -3.4761048E+03  3.6162102E+03  9.9683062E+02  0.0000000E+00  1.0000000E+00
 23  2  3  3   0   0 -3.6223731E+02  8.7481255E+01 -2.8908114E+03  2.9161368E+03  9.0524176E+01  0.0000000E+00  1.0000000E+00
 23  2  3  3   0   0  3.6223731E+02 -8.7481255E+01 -5.8529345E+02  7.0007337E+02  9.3088478E+01  0.0000000E+00  1.0000000E+00
-11  1  4  4   0   0 -2.0211695E+01  1.2546818E+01 -4.1595173E+02  4.1663147E+02  3.0517578E-05  0.0000000E+00  1.0000000E+00
 11  1  4  4   0   0 -3.4202561E+02  7.4934437E+01 -2.4748596E+03  2.4995053E+03  1.2063132E-05  0.0000000E+00  1.0000000E+00
-13  1  5  5   0   0  3.4962227E+02 -9.6751141E+01 -5.7888524E+02  6.8315784E+02  2.8020523E-06  0.0000000E+00  1.0000000E+00
 13  1  5  5   0   0  1.2615033E+01  9.2698859E+00 -6.4082063E+00  1.6915524E+01  2.9548518E-05  0.0000000E+00  1.0000000E+00
</event>
<event>
9 100 1.0000000E+00 1.0000000E+03 7.8125000E-03 0.0000000E+00
 21 -1  0  0 501 502  0.0000000E+00  0.0000000E+00  7.7358455E+02  7.7358455E+02  0.0000000E+00  0.0000000E+00  1.0000000E+00
 21 -1  0  0 502 501  0.0000000E+00  0.0000000E+00 -3.2480052E+02  3.2480052E+02  0.0000000E+00  0.0000000E+00  1.0000000E+00
 39  2  1  2   0   0  1.0231815E-12  4.2632564E-13  4.4878403E+02  1.0983851E+03  1.0025182E+03  0.0000000E+00  1.0000000E+00
 23  2  3  3   0   0 -3.8028470E+02 -1.4583213E+02 -8.0719861E+01  4.2420244E+02  8.6882396E+01  0.0000000E+00  1.0000000E+00
 23  2  3  3   0   0  3.8028470E+02  1.4583213E+02  5.2950389E+02  6.7418263E+02  9.0908640E+01  0.0000000E+00  1.0000000E+00
-11  1  4  4   0   0 -4.8265433E+01 -5.2093020E+01 -2.1156567E+01  7.4100169E+01  5.4367801E-06  0.0000000E+00  1.0000000E+00
 11  1  4  4   0   0 -3.3201926E+02 -9.3739115E+01 -5.9563294E+01  3.5010227E+02  7.9074497E-07  0.0000000E+00  1.0000000E+00
-13  1  5  5   0   0  1.0229719E+02  3.2605056E+01  8.0959643E+01  1.3447032E+02  1.2063132E-05  0.0000000E+00  1.0000000E+00
 13  1  5  5   0   0  2.7798751E+02  1.1322708E+02  4.4854425E+02  5.3971230E+02  2.5231851E-06  0.0000000E+00  1.0000000E+00
</event>
<event>
9 100 1.0000000E+00 1.0000000E+03 7.8125000E-03 0.0000000E+00
 21 -1  0  0 501 502  0.0000000E+00  0.0000000E+00  6.9441647E+02  6.9441647E+02  0.0000000E+00  0.0000000E+00  1.0000000E+00
 21 -1  0  0 502 501  0.0000000E+00  0.0000000E+00 -3.7132646E+02  3.7132646E+02  0.0000000E+00  0.0000000E+00  1.0000000E+00
 39  2  1  2   0   0 -3.1263880E-13  5.6843419E-13  3.2309000E+02  1.0657429E+03  1.0155889E+03  0.0000000E+00  1.0000000E+00
 23  2  3  3   0   0 -1.4572633E+02  2.2976663E+02  6.0338732E+02  6.6817548E+02  9.1396622E+01  0.0000000E+00  1.0000000E+00
 23  2  3  3   0   0  1.4572633E+02 -2.2976663E+02 -2.8029732E+02  3.9756745E+02  7.3921709E+01  0.0000000E+00  1.0000000E+00
-11  1  4  4   0   0 -6.7029802E+01  8.3325515E+01  1.4209523E+02  1.7784035E+02  0.0000000E+00  0.0000000E+00  1.0000000E+00
 11  1  4  4   0   0 -7.8696531E+01  1.4644112E+02  4.6129210E+02  4.9033513E+02  3.3036247E-06  0.0000000E+00  1.0000000E+00
-13  1  5  5   0   0  1.4639825E+02 -1.8277435E+02 -2.4392577E+02  3.3814005E+02  2.6549169E-06  0.0000000E+00  1.0000000E+00
 13  1  5  5   0   0 -6.7191833E-01 -4.6992286E+01 -3.6371544E+01  5.9427398E+01  1.2063132E-05  0.0000000E+00  1.0000000E+00
</event>
<event>
9 100 1.0000000E+00 1.0000000E+03 7.8125000E-03 0.0000000E+00
 21 -1  0  0 501 502  0.0000000E+00  0.0000000E+00  1.4802623E+02  1.4802623E+02  0.0000000E+00  0.0000000E+00  1.0000000E+00
 21 -1  0  0 502 501  0.0000000E+00  0.0000000E+00 -1.6383594E+03  1.6383594E+03  0.0000000E+00  0.0000000E+00  1.0000000E+00
 39  2  1  2   0   0 -6.8212103E-13  1.8189894E-12 -1.4903331E+03  1.7863856E+03  9.8492673E+02  0.0000000E+00  1.0000000E+00
 23  2  3  3   0   0  1.4005429E+02 -3.5694625E+02 -2.0494749E+02  4.4364907E+02  8.8290395E+01  0.0000000E+00  1.0000000E+00
 23  2  3  3   0   0 -1.4005429E+02  3.5694625E+02 -1.2853856E+03  1.3427365E+03  6.0821973E+01  0.0000000E+00  1.0000000E+00
-11  1  4  4   0   0  1.0079514E+02 -2.7938111E+02 -1.1482620E+02  3.1843134E+02  5.6420133E-06  0.0000000E+00  1.0000000E+00
 11  1  4  4   0   0  3.9259155E+01 -7.7565141E+01 -9.0121290E+01  1.2521773E+02  1.1121658E-05  0.0000000E+00  1.0000000E+00
-13  1  5  5   0   0 -1.4388643E+02  3.4469050E+02 -1.2612720E+03  1.3154170E+03  9.5367432E-07  0.0000000E+00  1.0000000E+00
 13  1  5  5   0   0  3.8321416E+00  1.2255746E+01 -2.4113660E+01  2.7319540E+01  3.4119690E-05  0.0000000E+00  1.0000000E+00
</event>
<event>
9 100 1.0000000E+00 1.0000000E+03 7.8125000E-03 0.0000000E+00
 21 -1  0  0 501 502  0.0000000E+00  0.0000000E+00  2.8649063E+02  2.8649063E+02  0.0000000E+00  0.0000000E+00  1.0000000E+00
 21 -1  0  0 502 501  0.0000000E+00  0.0000000E+00 -8.6715751E+02  8.6715751E+02  0.0000000E+00  0.0000000E+00  1.0000000E+00
 39  2  1  2   0   0 -1.4068746E-12  3.3253400E-12 -5.8066687E+02  1.1536481E+03  9.9686007E+02  0.0000000E+00  1.0000000E+00
 23  2  3  3   0   0  1.0236456E+02 -2.4483139E+02  1.8606845E+02  3.3689251E+02  9.1946635E+01  0.0000000E+00  1.0000000E+00
 23  2  3  3   0   0 -1.0236456E+02  2.4483139E+02 -7.6673532E+02  8.1675563E+02  9.3732521E+01  0.0000000E+00  1.0000000E+00
-11  1  4  4   0   0  7.9284450E+00 -1.3590723E+02  1.0088444E+02  1.6944411E+02  1.0831658E-05  0.0000000E+00  1.0000000E+00
 11  1  4  4   0   0  9.4436114E+01 -1.0892416E+02  8.5184011E+01  1.6744840E+02  1.0533677E-05  0.0000000E+00  1.0000000E+00
-13  1  5  5   0   0 -1.6915522E+01  1.4136702E+02 -3.1869089E+02  3.4904821E+02  7.6293945E-06  0.0000000E+00  1.0000000E+00
 13  1  5  5   0   0 -8.5449037E+01  1.0346437E+02 -4.4804443E+02  4.6770741E+02  9.3440618E-06  0.0000000E+00  1.0000000E+00
</event>
<event>
9 100 1.0000000E+00 1.0000000E+03 7.8125000E-03 0.0000000E+00
 21 -1  0  0 501 502  0.0000000E+00  0.0000000E+00  5.2092372E+02  5.2092372E+02  0.0000000E+00  0.0000000E+00  1.0000000E+00
 21 -1  0  0 502 501  0.0000000E+00  0.0000000E+00 -4.8413300E+02  4.8413300E+02  0.0000000E+00  0.0000000E+00  1.0000000E+00
 39  2  1  2   0   0  2.2737368E-13  7.3896445E-13  3.6790725E+01  1.0050567E+03  1.0043831E+03  0.0000000E+00  1.0000000E+00
 23  2  3  3   0   0  1.2157320E+02  4.5158404E+02 -1.3982378E+02  4.9683533E+02  9.2663231E+01  0.0000000E+00  1.0000000E+00
 23  2  3  3   0   0 -1.2157320E+02 -4.5158404E+02  1.7661451E+02  5.0822139E+02  9.1586659E+01  0.0000000E+00  1.0000000E+00
-11  1  4  4   0   0  2.4624637E+01  1.9898730E+02 -2.1922599E+01  2.0170007E+02  1.2138292E-05  0.0000000E+00  1.0000000E+00
 11  1  4  4   0   0  9.6948560E+01  2.5259674E+02 -1.1790118E+02  2.9513526E+02  6.3259598E-06  0.0000000E+00  1.0000000E+00
-13  1  5  5   0   0  5.8249095E+00 -7.8330068E+01  5.3575052E+01  9.5077944E+01  1.2579828E-05  0.0000000E+00  1.0000000E+00
 13  1  5  5   0   0 -1.2739811E+02 -3.7325397E+02  1.2303945E+02  4.1314345E+02  6.4681339E-06  0.0000000E+00  1.0000000E+00
</event>
<event>
9 100 1.0000000E+00 1.0000000E+03 7.8125000E-03 0.0000000E+00
 21 -1  0  0 501 502  0.0000000E+00  0.0000000E+00  3.3069338E+02  3.3069338E+02  0.0000000E+00  0.0000000E+00  1.0000000E+00
 21 -1  0  0 502 501  0.0000000E+00  0.0000000E+00 -7.5740520E+02  7.5740520E+02  0.0000000E+00  0.0000000E+00  1.0000000E+00
 39  2  1  2   0   0 -1.0800250E-12  2.5579538E-13 -4.2671182E+02  1.0880986E+03  1.0009373E+03  0.0000000E+00  1.0000000E+00
 23  2  3  3   0   0 -4.7088341E+02  1.2167356E+02 -2.9677482E+02  5.7652660E+02  8.8158820E+01  0.0000000E+00  1.0000000E+00
 23  2  3  3   0   0  4.7088341E+02 -1.2167356E+02 -1.2993699E+02  5.1157199E+02  9.1030942E+01  0.0000000E+00  1.0000000E+00
-11  1  4  4   0   0 -2.7136196E+02  4.1273509E+01 -2.0533233E+02  3.4278591E+02  4.0460975E-06  0.0000000E+00  1.0000000E+00
 11  1  4  4   0   0 -1.9952145E+02  8.0400047E+01 -9.1442492E+01  2.3374068E+02  3.8146973E-06  0.0000000E+00  1.0000000E+00
-13  1  5  5   0   0  3.1066386E+02 -1.2045010E+02 -1.0546402E+02  3.4948951E+02  6.8272691E-06  0.0000000E+00  1.0000000E+00
 13  1  5  5   0   0  1.6021956E+02 -1.2234600E+00 -2.4472974E+01  1.6208248E+02  1.0789593E-05  0.0000000E+00  1.0000000E+00
</event>
<event>
9 100 1.0000000E+00 1.0000000E+03 7.8125000E-03 0.0000000E+00
 21 -1  0  0 501 502  0.0000000E+00  0.0000000E+00  1.4630347E+02  1.4630347E+02  0.0000000E+00  0.0000000E+00  1.0000000E+00
 21 -1  0  0 502 501  0.0000000E+00  0.0000000E+00 -1.7003020E+03  1.7003020E+03  0.0000000E+00  0.0000000E+00  1.0000000E+00
 39  2  1  2   0   0  4.0074610E-12 -3.8085091E-12 -1.5539986E+03  1.8466055E+03  9.9751708E+02  0.0000000E+00  1.0000000E+00
 23  2  3  3   0   0 -2.0275978E+02  1.9752872E+02 -3.5767871E+01  2.9947801E+02  9.0986879E+01  0.0000000E+00  1.0000000E+00
 23  2  3  3   0   0  2.0275978E+02 -1.9752872E+02 -1.5182307E+03  1.5471275E+03  9.1923445E+01  0.0000000E+00  1.0000000E+00
-11  1  4  4   0   0 -1.2470757E+02  1.7234002E+02 -7.9616594E+00  2.1287660E+02  4.8861269E-06  0.0000000E+00  1.0000000E+00
 11  1  4  4   0   0 -7.8052206E+01  2.5188706E+01 -2.7806212E+01  8.6601404E+01  1.0125073E-05  0.0000000E+00  1.0000000E+00
-13  1  5  5   0   0  2.0683057E+02 -1.6447386E+02 -1.3580947E+03  1.3835649E+03  0.0000000E+00  0.0000000E+00  1.0000000E+00
 13  1  5  5   0   0 -4.0707970E+00 -3.3054862E+01 -1.6013602E+02  1.6356265E+02  1.5258789E-05  0.0000000E+00  1.0000000E+00
</event>
<event>
9 100 1.0000000E+00 1.0000000E+03 7.8125000E-03 0.0000000E+00
 21 -1  0  0 501 502  0.0000000E+00  0.0000000E+00  9.3889425E+02  9.3889425E+02  0.0000000E+00  0.0000000E+00  1.0000000E+00
 21 -1  0  0 502 501  0.0000000E+00  0.0000000E+00 -2.6614209E+02  2.6614209E+02  0.0000000E+00  0.0000000E+00  1.0000000E+00
 39  2  1  2   0   0 -2.9842795E-13 -3.9790393E-13  6.7275216E+02  1.2050363E+03  9.9975853E+02  0.0000000E+00  1.0000000E+00
 23  2  3  3   0   0  8.3659321E+01  1.0423757E+02 -2.3350954E+02  2.8435066E+02  9.2001307E+01  0.0000000E+00  1.0000000E+00
 23  2  3  3   0   0 -8.3659321E+01 -1.0423757E+02  9.0626170E+02  9.2068569E+02  9.2127711E+01  0.0000000E+00  1.0000000E+00
-11  1  4  4   0   0  4.3059382E+01  8.5066018E+01 -8.0159174E+01  1.2456256E+02  1.9073486E-06  0.0000000E+00  1.0000000E+00
 11  1  4  4   0   0  4.0599939E+01  1.9171554E+01 -1.5335036E+02  1.5978810E+02  3.1629799E-06  0.0000000E+00  1.0000000E+00
-13  1  5  5   0   0 -1.6505101E+01  1.0361089E+01  2.7028359E+02  2.7098522E+02  1.5258789E-05  0.0000000E+00  1.0000000E+00
 13  1  5  5   0   0 -6.7154220E+01 -1.1459866E+02  6.3597811E+02  6.4970047E+02  6.6072495E-06  0.0000000E+00  1.0000000E+00
</event>
<event>
9 100 1.0000000E+00 1.0000000E+03 7.8125000E-03 0.0000000E+00
 21 -1  0  0 501 502  0.0000000E+00  0.0000000E+00  2.0088103E+03  2.0088103E+03  0.0000000E+00  0.0000000E+00  1.0000000E+00
 21 -1  0  0 502 501  0.0000000E+00  0.0000000E+00 -1.2200854E+02  1.2200854E+02  0.0000000E+00  0.0000000E+00  1.0000000E+00
 39  2  1  2   0   0 -5.4285465E-12 -4.3485215E-12  1.8868017E+03  2.1308188E+03  9.9013535E+02  0.0000000E+00  1.0000000E+00
 23  2  3  3   0   0  1.9066182E+02  1.5220389E+02  3.6499179E+01  2.6222569E+02  8.8950370E+01  0.0000000E+00  1.0000000E+00
 23  2  3  3   0   0 -1.9066182E+02 -1.5220389E+02  1.8503026E+03  1.8685931E+03  9.2210281E+01  0.0000000E+00  1.0000000E+00
-11  1  4  4   0   0  9.4518644E+01  2.7939039E+01  3.6521208E+01  1.0511024E+02  1.6039975E-06  0.0000000E+00  1.0000000E+00
 11  1  4  4   0   0  9.6143173E+01  1.2426485E+02 -2.2029517E-02  1.5711545E+02  1.7192608E-06  0.0000000E+00  1.0000000E+00
-13  1  5  5   0   0 -1.3794307E+02 -5.5934421E+01  1.1822892E+03  1.1916227E+03  1.0789593E-05  0.0000000E+00  1.0000000E+00
 13  1  5  5   0   0 -5.2718749E+01 -9.6269473E+01  6.6801335E+02  6.7697040E+02  0.0000000E+00  0.0000000E+00  1.0000000E+00
</event>
<event>
9 100 1.0000000E+00 1.0000000E+03 7.8125000E-03 0.0000000E+00
 21 -1  0  0 501 502  0.0000000E+00  0.0000000E+00  4.5986244E+02  4.5986244E+02  0.0000000E+00  0.0000000E+00  1.0000000E+00
 21 -1  0  0 502 501  0.0000000E+00  0.0000000E+00 -5.4412251E+02  5.4412251E+02  0.0000000E+00  0.0000000E+00  1.0000000E+00
 39  2  1  2   0   0 -1.1368684E-12  5.1159077E-13 -8.4260070E+01  1.0039849E+03  1.0004429E+03  0.0000000E+00  1.0000000E+00
 23  2  3  3   0   0 -4.4229094E+02  1.9672065E+02 -1.2671413E+02  5.0914140E+02  9.4064934E+01  0.0000000E+00  1.0000000E+00
 23  2  3  3   0   0  4.4229094E+02 -1.9672065E+02  4.2454055E+01  4.9484354E+02  9.3528059E+01  0.0000000E+00  1.0000000E+00
-11  1  4  4   0   0 -7.2319987E+01 -3.4385070E+00 -2.1754365E+01  7.5599313E+01  1.3621194E-05  0.0000000E+00  1.0000000E+00
 11  1  4  4   0   0 -3.6997095E+02  2.0015916E+02 -1.0495976E+02  4.3354209E+02  3.8591418E-06  0.0000000E+00  1.0000000E+00
-13  1  5  5   0   0  2.4980002E+02 -6.6865349E+01  4.5822296E+01  2.6262275E+02  1.2823659E-05  0.0000000E+00  1.0000000E+00
 13  1  5  5   0   0  1.9249091E+02 -1.2985530E+02 -3.3682406E+00  2.3222079E+02  1.0873560E-05  0.0000000E+00  1.0000000E+00
</event>
<event>
9 100 1.0000000E+00 1.0000000E+03 7.8125000E-03 0.0000000E+00
 21 -1  0  0 501 502  0.0000000E+00  0.0000000E+00  2.5258536E+02  2.5258536E+02  0.0000000E+00  0.0000000E+00  1.0000000E+00
 21 -1  0  0 502 501  0.0000000E+00  0.0000000E+00 -9.6059939E+02  9.6059939E+02  0.0000000E+00  0.0000000E+00  1.0000000E+00
 39  2  1  2   0   0 -1.3642421E-12  9.6633812E-13 -7.0801403E+02  1.2131848E+03  9.8515653E+02  0.0000000E+00  1.0000000E+00
 23  2  3  3   0   0 -3.5779073E+02  2.6898292E+02 -5.8033209E+02  7.3882725E+02  9.3350691E+01  0.0000000E+00  1.0000000E+00
 23  2  3  3   0   0  3.5779073E+02 -2.6898292E+02 -1.2768194E+02  4.7435750E+02  9.1358316E+01  0.0000000E+00  1.0000000E+00
-11  1  4  4   0   0 -7.4952187E+01  9.1329347E+01 -1.0620380E+02  1.5886512E+02  1.6184390E-05  0.0000000E+00  1.0000000E+00
 11  1  4  4   0   0 -2.8283855E+02  1.7765357E+02 -4.7412829E+02  5.7996213E+02  3.0157830E-06  0.0000000E+00  1.0000000E+00
-13  1  5  5   0   0  2.2834827E+02 -2.0769508E+02 -5.4232156E+01  3.1340279E+02  2.5231851E-06  0.0000000E+00  1.0000000E+00
 13  1  5  5   0   0  1.2944246E+02 -6.1287841E+01 -7.3449781E+01  1.6095471E+02  8.4226235E-06  0.0000000E+00  1.0000000E+00
</event>
<event>
9 100 1.0000000E+00 1.0000000E+03 7.8125000E-03 0.0000000E+00
 21 -1  0  0 501 502  0.0000000E+00  0.0000000E+00  5.1654209E+02  5.1654209E+02  0.0000000E+00  0.0000000E+00  1.0000000E+00
 21 -1  0  0 502 501  0.0000000E+00  0.0000000E+00 -4.8076107E+02  4.8076107E+02  0.0000000E+00  0.0000000E+00  1.0000000E+00
 39  2  1  2   0   0 -1.1368684E-13 -2.2737368E-13  3.5781026E+01  9.9730316E+02  9.9666108E+02  0.0000000E+00  1.0000000E+00
 23  2  3  3   0   0 -1.5385939E+02 -2.6175590E+02 -3.6576034E+02  4.8545289E+02  9.8463255E+01  0.0000000E+00  1.0000000E+00
 23  2  3  3   0   0  1.5385939E+02  2.6175590E+02  4.0154137E+02  5.1185028E+02  9.2554691E+01  0.0000000E+00  1.0000000E+00
-11  1  4  4   0   0  6.0885635E+00 -5.6992639E+01 -4.6385425E+01  7.3734925E+01  8.5299224E-06  0.0000000E+00  1.0000000E+00
 11  1  4  4   0   0 -1.5994795E+02 -2.0476326E+02 -3.1937492E+02  4.1171796E+02  1.1680077E-06  0.0000000E+00  1.0000000E+00
-13  1  5  5   0   0  1.4023177E+02  2.0842355E+02  2.6758296E+02  3.6702311E+02  6.0315660E-06  0.0000000E+00  1.0000000E+00
 13  1  5  5   0   0  1.3627621E+01  5.3332350E+01  1.3395841E+02  1.4482716E+02  5.3947966E-06  0.0000000E+00  1.0000000E+00
</event>
<event>
9 100 1.0000000E+00 1.0000000E+03 7.8125000E-03 0.0000000E+00
 21 -1  0  0 501 502  0.0000000E+00  0.0000000E+00  5.0046120E+02  5.0046120E+02  0.0000000E+00  0.0000000E+00  1.0000000E+00
 21 -1  0  0 502 501  0.0000000E+00  0.0000000E+00 -4.9950993E+02  4.9950993E+02  0.0000000E+00  0.0000000E+00  1.0000000E+00
 39  2  1  2   0   0  3.2684966E-13  1.0231815E-12  9.5127767E-01  9.9997113E+02  9.9997068E+02  0.0000000E+00  1.0000000E+00
 23  2  3  3   0   0  9.0694740E+01  2.8939937E+02 -3.8751580E+02  5.0013910E+02  8.9404101E+01  0.0000000E+00  1.0000000E+00
 23  2  3  3   0   0 -9.0694740E+01 -2.8939937E+02  3.8846707E+02  4.9983203E+02  8.3353848E+01  0.0000000E+00  1.0000000E+00
-11  1  4  4   0   0  2.7494596E+01  3.6397882E+01 -2.0743757E+01  5.0110499E+01  7.6293945E-06  0.0000000E+00  1.0000000E+00
 11  1  4  4   0   0  6.3200144E+01  2.5300149E+02 -3.6677204E+02  4.5002860E+02  1.9369217E-06  0.0000000E+00  1.0000000E+00
-13  1  5  5   0   0  5.1526574E+00 -1.0705622E+02  1.5538357E+02  1.8876345E+02  7.6293945E-06  0.0000000E+00  1.0000000E+00
 13  1  5  5   0   0 -9.5847398E+01 -1.8234315E+02  2.3308350E+02  3.1106859E+02  6.8770433E-06  0.0000000E+00  1.0000000E+00
</event>
<event>
9 100 1.0000000E+00 1.0000000E+03 7.8125000E-03 0.0000000E+00
 21 -1  0  0 501 502  0.0000000E+00  0.0000000E+00  4.9324700E+02  4.9324700E+02  0.0000000E+00  0.0000000E+00  1.0000000E+00
 21 -1  0  0 502 501  0.0000000E+00  0.0000000E+00 -4.8960558E+02  4.8960558E+02  0.0000000E+00  0.0000000E+00  1.0000000E+00
 39  2  1  2   0   0 -5.9685590E-13  1.1937118E-12  3.6414238E+00  9.8285258E+02  9.8284583E+02  0.0000000E+00  1.0000000E+00
 23  2  3  3   0   0 -1.8249915E+02  3.9142953E+02  2.1743085E+02  4.9239138E+02  9.3005790E+01  0.0000000E+00  1.0000000E+00
 23  2  3  3   0   0  1.8249915E+02 -3.9142953E+02 -2.1378943E+02  4.9046120E+02  9.1231855E+01  0.0000000E+00  1.0000000E+00
-11  1  4  4   0   0 -1.7549615E+00  4.1765705E+01 -1.7999130E+00  4.1841292E+01  3.8146973E-06  0.0000000E+00  1.0000000E+00
 11  1  4  4   0   0 -1.8074419E+02  3.4966383E+02  2.1923076E+02  4.5055009E+02  7.9995784E-07  0.0000000E+00  1.0000000E+00
-13  1  5  5   0   0  1.5526769E+01 -7.3040052E+01 -7.2803457E+01  1.0428937E+02  2.1067354E-05  0.0000000E+00  1.0000000E+00
 13  1  5  5   0   0  1.6697238E+02 -3.1838948E+02 -1.4098597E+02  3.8617183E+02  7.0080464E-06  0.0000000E+00  1.0000000E+00
</event>
<event>
9 100 1.0000000E+00 1.0000000E+03 7.8125000E-03 0.0000000E+00
 21 -1  0  0 501 502  0.0000000E+00  0.0000000E+00  4.7610044E+02  4.7610044E+02  0.0000000E+00  0.0000000E+00  1.0000000E+00
 21 -1  0  0 502 501  0.0000000E+00  0.0000000E+00 -3.6433678E+02  3.6433678E+02  0.0000000E+00  0.0000000E+00  1.0000000E+00
 39  2  1  2   0   0 -1.1937118E-12  9.6633812E-13  1.1176365E+02  8.4043722E+02  8.3297275E+02  0.0000000E+00  1.0000000E+00
 23  2  3  3   0   0 -2.8975219E+02  2.2847690E+02 -1.1071762E+02  4.0174095E+02  1.1392708E+02  0.0000000E+00  1.0000000E+00
 23  2  3  3   0   0  2.8975219E+02 -2.2847690E+02  2.2248127E+02  4.3869627E+02  8.2452885E+01  0.0000000E+00  1.0000000E+00
-11  1  4  4   0   0 -1.7754208E+02  1.2668383E+02 -7.1510469E+00  2.1822264E+02  3.5683226E-06  0.0000000E+00  1.0000000E+00
 11  1  4  4   0   0 -1.1221011E+02  1.0179307E+02 -1.0356657E+02  1.8351831E+02  8.1747504E-06  0.0000000E+00  1.0000000E+00
-13  1  5  5   0   0  2.0919992E+02 -2.0257699E+02  1.9177704E+02  3.4868392E+02  3.3717479E-06  0.0000000E+00  1.0000000E+00
 13  1  5  5   0   0  8.0552273E+01 -2.5899907E+01  3.0704233E+01  9.0012353E+01  8.0921949E-06  0.0000000E+00  1.0000000E+00
</event>
<event>
9 100 1.0000000E+00 1.0000000E+03 7.8125000E-03 0.0000000E+00
 21 -1  0  0 501 502  0.0000000E+00  0.0000000E+00  6.3723472E+02  6.3723472E+02  0.0000000E+00  0.0000000E+00  1.0000000E+00
 21 -1  0  0 502 501  0.0000000E+00  0.0000000E+00 -3.9153789E+02  3.9153789E+02  0.0000000E+00  0.0000000E+00  1.0000000E+00
 39  2  1  2   0   0  4.5474735E-13 -6.8212103E-13  2.4569683E+02  1.0287726E+03  9.9900259E+02  0.0000000E+00  1.0000000E+00
 23  2  3  3   0   0 -1.8362695E+02  2.5143182E+02  5.1275194E+02  6.0833668E+02  1.0110463E+02  0.0000000E+00  1.0000000E+00
 23  2  3  3   0   0  1.8362695E+02 -2.5143182E+02 -2.6705511E+02  4.2043594E+02  9.2255782E+01  0.0000000E+00  1.0000000E+00
-11  1  4  4   0   0 -1.6232188E+02  2.3640631E+02  5.0566445E+02  5.8131994E+02  2.7624679E-06  0.0000000E+00  1.0000000E+00
 11  1  4  4   0   0 -2.1305067E+01  1.5025503E+01  7.0874935E+00  2.7016739E+01  2.4722064E-05  0.0000000E+00  1.0000000E+00
-13  1  5  5   0   0  1.0863994E+02 -2.1495495E+02 -1.8808032E+02  3.0558546E+02  3.0157830E-06  0.0000000E+00  1.0000000E+00
 13  1  5  5   0   0  7.4987014E+01 -3.6476862E+01 -7.8974793E+01  1.1485048E+02  4.6720309E-06  0.0000000E+00  1.0000000E+00
</event>
<event>
9 100 1.0000000E+00 1.0000000E+03 7.8125000E-03 0.0000000E+00
 21 -1  0  0 501 502  0.0000000E+00  0.0000000E+00  2.1281926E+03  2.1281926E+03  0.0000000E+00  0.0000000E+00  1.0000000E+00
 21 -1  0  0 502 501  0.0000000E+00  0.0000000E+00 -1.2152209E+02  1.2152209E+02  0.0000000E+00  0.0000000E+00  1.0000000E+00
 39  2  1  2   0   0 -4.0358827E-12 -2.5011104E-12  2.0066705E+03  2.2497147E+03  1.0170986E+03  0.0000000E+00  1.0000000E+00
 23  2  3  3   0   0  3.7570121E+02  2.2736179E+02  1.5345689E+03  1.5986142E+03  8.8435872E+01  0.0000000E+00  1.0000000E+00
 23  2  3  3   0   0 -3.7570121E+02 -2.2736179E+02  4.7210159E+02  6.5110046E+02  9.0593084E+01  0.0000000E+00  1.0000000E+00
-11  1  4  4   0   0  4.1160565E+01  3.6816970E+01  1.1209335E+02  1.2495839E+02  6.1035156E-05  0.0000000E+00  1.0000000E+00
 11  1  4  4   0   0  3.3454065E+02  1.9054482E+02  1.4224756E+03  1.4736559E+03  6.1805160E-06  0.0000000E+00  1.0000000E+00
-13  1  5  5   0   0 -1.9091260E+02 -1.0469587E+02  2.9833428E+02  3.6934021E+02  1.8094698E-05  0.0000000E+00  1.0000000E+00
 13  1  5  5   0   0 -1.8478861E+02 -1.2266592E+02  1.7376731E+02  2.8176025E+02  2.2243316E-05  0.0000000E+00  1.0000000E+00
</event>
<event>
9 100 1.0000000E+00 1.0000000E+03 7.8125000E-03 0.0000000E+00
 21 -1  0  0 501 502  0.0000000E+00  0.0000000E+00  9.8692132E+01  9.8692132E+01  0.0000000E+00  0.0000000E+00  1.0000000E+00
 21 -1  0  0 502 501  0.0000000E+00  0.0000000E+00 -2.5421983E+03  2.5421983E+03  0.0000000E+00  0.0000000E+00  1.0000000E+00
 39  2  1  2   0   0 -7.7022833E-12 -5.2935434E-13 -2.4435062E+03  2.6408904E+03  1.0017883E+03  0.0000000E+00  1.0000000E+00
 23  2  3  3   0   0  1.3161060E+02  9.0496868E+00  1.4014083E+01  1.7813569E+02  1.1888096E+02  0.0000000E+00  1.0000000E+00
 23  2  3  3   0   0 -1.3161060E+02 -9.0496868E+00 -2.4575202E+03  2.4627547E+03  9.1388802E+01  0.0000000E+00  1.0000000E+00
-11  1  4  4   0   0 -2.0023502E+00 -1.1969080E+01 -3.2827052E+01  3.4998337E+01  1.4541579E-05  0.0000000E+00  1.0000000E+00
 11  1  4  4   0   0  1.3361295E+02  2.1018767E+01  4.6841135E+01  1.4313735E+02  5.7813433E-06  0.0000000E+00  1.0000000E+00
-13  1  5  5   0   0 -8.4297419E+01  3.5102603E+01 -1.7109269E+03  1.7133619E+03  0.0000000E+00  0.0000000E+00  1.0000000E+00
 13  1  5  5   0   0 -4.7313179E+01 -4.4152289E+01 -7.4659332E+02  7.4939279E+02  7.1570065E-05  0.0000000E+00  1.0000000E+00
</event>
<event>
9 100 1.0000000E+00 1.0000000E+03 7.8125000E-03 0.0000000E+00
 21 -1  0  0 501 502  0.0000000E+00  0.0000000E+00  5.3061973E+02  5.3061973E+02  0.0000000E+00  0.0000000E+00  1.0000000E+00
 21 -1  0  0 502 501  0.0000000E+00  0.0000000E+00 -4.7552453E+02  4.7552453E+02  0.0000000E+00  0.0000000E+00  1.0000000E+00
 39  2  1  2   0   0 -2.2737368E-13 -4.8316906E-13  5.5095201E+01  1.0061443E+03  1.0046347E+03  0.0000000E+00  1.0000000E+00
 23  2  3  3   0   0 -8.0863999E+01 -1.7618509E+02  4.8275350E+02  5.2766273E+02  8.8299726E+01  0.0000000E+00  1.0000000E+00
 23  2  3  3   0   0  8.0863999E+01  1.7618509E+02 -4.2765830E+02  4.7848153E+02  9.2047691E+01  0.0000000E+00  1.0000000E+00
-11  1  4  4   0   0 -5.4189286E+01 -4.0903391E+01  2.2916779E+02  2.3901347E+02  9.7256079E-06  0.0000000E+00  1.0000000E+00
 11  1  4  4   0   0 -2.6674713E+01 -1.3528170E+02  2.5358572E+02  2.8864926E+02  4.6720309E-06  0.0000000E+00  1.0000000E+00
-13  1  5  5   0   0  7.1817457E+01  1.0882809E+02 -3.5869289E+02  3.8165677E+02  3.0157830E-06  0.0000000E+00  1.0000000E+00
 13  1  5  5   0   0  9.0465425E+00  6.7357009E+01 -6.8965415E+01  9.6824765E+01  1.0092740E-05  0.0000000E+00  1.0000000E+00
</event>
<event>
9 100 1.0000000E+00 1.0000000E+03 7.8125000E-03 0.0000000E+00
 21 -1  0  0 501 502  0.0000000E+00  0.0000000E+00  1.6022758E+03  1.6022758E+03  0.0000000E+00  0.0000000E+00  1.0000000E+00
 21 -1  0  0 502 501  0.0000000E+00  0.0000000E+00 -1.5609780E+02  1.5609780E+02  0.0000000E+00  0.0000000E+00  1.0000000E+00
 39  2  1  2   0   0  4.6611603E-12  6.8212103E-13  1.4461780E+03  1.7583736E+03  1.0002234E+03  0.0000000E+00  1.0000000E+00
 23  2  3  3   0   0 -3.2500833E+02 -4.8023892E+01  7.9189119E+01  3.4958456E+02  8.9452436E+01  0.0000000E+00  1.0000000E+00
 23  2  3  3   0   0  3.2500833E+02  4.8023892E+01  1.3669888E+03  1.4087890E+03  8.9951553E+01  0.0000000E+00  1.0000000E+00
-11  1  4  4   0   0 -1.9782443E+02  2.1064731E+00  7.8596276E+01  2.1287629E+02  7.7370073E-06  0.0000000E+00  1.0000000E+00
 11  1  4  4   0   0 -1.2718390E+02 -5.0130365E+01  5.9284329E-01  1.3670826E+02  1.1911388E-05  0.0000000E+00  1.0000000E+00
-13  1  5  5   0   0  5.9572213E+01 -3.5291905E+00  4.1048556E+02  4.1480079E+02  1.5258789E-05  0.0000000E+00  1.0000000E+00
 13  1  5  5   0   0  2.6543611E+02  5.1553082E+01  9.5650328E+02  9.9398822E+02  7.6293945E-06  0.0000000E+00  1.0000000E+00
</event>
<event>
9 100 1.0000000E+00 1.0000000E+03 7.8125000E-03 0.0000000E+00
 21 -1  0  0 501 502  0.0000000E+00  0.0000000E+00  6.1648800E+02  6.1648800E+02  0.0000000E+00  0.0000000E+00  1.0000000E+00
 21 -1  0  0 502 501  0.0000000E+00  0.0000000E+00 -4.1161308E+02  4.1161308E+02  0.0000000E+00  0.0000000E+00  1.0000000E+00
 39  2  1  2   0   0  1.4779289E-12  4.9737992E-13  2.0487492E+02  1.0281011E+03  1.0074811E+03  0.0000000E+00  1.0000000E+00
 23  2  3  3   0   0 -2.5840367E+02 -8.3149866E+01  5.2512974E+02  5.9903034E+02  9.6900699E+01  0.0000000E+00  1.0000000E+00
 23  2  3  3   0   0  2.5840367E+02  8.3149866E+01 -3.2025482E+02  4.2907074E+02  8.8612583E+01  0.0000000E+00  1.0000000E+00
-11  1  4  4   0   0 -1.5193503E+02 -2.5096043E+01  3.7929145E+02  4.0936056E+02  3.8146973E-06  0.0000000E+00  1.0000000E+00
 11  1  4  4   0   0 -1.0646864E+02 -5.8053823E+01  1.4583829E+02  1.8966978E+02  1.0789593E-05  0.0000000E+00  1.0000000E+00
-13  1  5  5   0   0 -5.2295572E+00  1.0701998E+01 -1.7077987E+01  2.0821591E+01  1.1444092E-05  0.0000000E+00  1.0000000E+00
 13  1  5  5   0   0  2.6363323E+02  7.2447868E+01 -3.0317683E+02  4.0824914E+02  1.0662403E-06  0.0000000E+00  1.0000000E+00
</event>
<event>
9 100 1.0000000E+00 1.0000000E+03 7.8125000E-03 0.0000000E+00
 21 -1  0  0 501 502  0.0000000E+00  0.0000000E+00  9.4796183E+02  9.4796183E+02  0.0000000E+00  0.0000000E+00  1.0000000E+00
 21 -1  0  0 502 501  0.0000000E+00  0.0000000E+00 -2.6532008E+02  2.6532008E+02  0.0000000E+00  0.0000000E+00  1.0000000E+00
 39  2  1  2   0   0 -1.3642421E-12 -4.1211479E-13  6.8264175E+02  1.2132819E+03  1.0030221E+03  0.0000000E+00  1.0000000E+00
 23  2  3  3   0   0 -3.7051349E+02 -1.1856634E+02  7.0786820E+02  8.1294171E+02  9.1970709E+01  0.0000000E+00  1.0000000E+00
 23  2  3  3   0   0  3.7051349E+02  1.1856634E+02 -2.5226448E+01  4.0034021E+02  9.1091636E+01  0.0000000E+00  1.0000000E+00
-11  1  4  4   0   0 -2.0257606E+02 -4.2151582E+01  4.5575833E+02  5.0052919E+02  1.0092740E-05  0.0000000E+00  1.0000000E+00
 11  1  4  4   0   0 -1.6793743E+02 -7.6414756E+01  2.5210987E+02  3.1241252E+02  1.4273290E-05  0.0000000E+00  1.0000000E+00
-13  1  5  5   0   0  8.0265536E+01  7.2781290E+00 -3.8259817E+01  8.9215139E+01  5.5888692E-06  0.0000000E+00  1.0000000E+00
 13  1  5  5   0   0  2.9024795E+02  1.1128821E+02  1.3033369E+01  3.1112507E+02  3.3378601E-06  0.0000000E+00  1.0000000E+00
</event>
<event>
9 100 1.0000000E+00 1.0000000E+03 7.8125000E-03 0.0000000E+00
 21 -1  0  0 501 502  0.0000000E+00  0.0000000E+00  7.1230721E+02  7.1230721E+02  0.0000000E+00  0.0000000E+00  1.0000000E+00
 21 -1  0  0 502 501  0.0000000E+00  0.0000000E+00 -3.6280111E+02  3.6280111E+02  0.0000000E+00  0.0000000E+00  1.0000000E+00
 39  2  1  2   0   0 -3.4106051E-13  1.0800250E-12  3.4950610E+02  1.0751083E+03  1.0167120E+03  0.0000000E+00  1.0000000E+00
 23  2  3  3   0   0  1.6763463E+02 -4.4792200E+02  2.0066189E+01  4.8738384E+02  9.1678060E+01  0.0000000E+00  1.0000000E+00
 23  2  3  3   0   0 -1.6763463E+02  4.4792200E+02  3.2943991E+02  5.8772447E+02  9.0298995E+01  0.0000000E+00  1.0000000E+00
-11  1  4  4   0   0  8.2384707E+01 -1.0482784E+02  1.0256667E+01  1.3372104E+02  8.2822579E-06  0.0000000E+00  1.0000000E+00
 11  1  4  4   0   0  8.5249928E+01 -3.4309416E+02  9.8095217E+00  3.5366281E+02  4.0284980E-06  0.0000000E+00  1.0000000E+00
-13  1  5  5   0   0  2.6842268E+00  1.7768346E+01 -2.7392958E+00  1.8177539E+01  1.1444092E-05  0.0000000E+00  1.0000000E+00
 13  1  5  5   0   0 -1.7031886E+02  4.3015366E+02  3.3217921E+02  5.6954693E+02  2.8429604E-07  0.0000000E+00  1.0000000E+00
</event>
<event>
9 100 1.0000000E+00 1.0000000E+03 7.8125000E-03 0.0000000E+00
 21 -1  0  0 501 502  0.0000000E+00  0.0000000E+00  1.4268462E+03  1.4268462E+03  0.0000000E+00  0.0000000E+00  1.0000000E+00
 21 -1  0  0 502 501  0.0000000E+00  0.0000000E+00 -1.7461188E+02  1.7461188E+02  0.0000000E+00  0.0000000E+00  1.0000000E+00
 39  2  1  2   0   0 -2.8990144E-12 -3.8369308E-13  1.2522343E+03  1.6014580E+03  9.9828711E+02  0.0000000E+00  1.0000000E+00
 23  2  3  3   0   0 -3.4832649E+02 -4.6683548E+01  7.6507101E+01  3.7087143E+02  9.0452106E+01  0.0000000E+00  1.0000000E+00
 23  2  3  3   0   0  3.4832649E+02  4.6683548E+01  1.1757272E+03  1.2305866E+03  9.2186233E+01  0.0000000E+00  1.0000000E+00
-11  1  4  4   0   0 -2.9415407E+02 -4.1925188E+01  2.8780746E+01  2.9851745E+02  2.3360155E-06  0.0000000E+00  1.0000000E+00
 11  1  4  4   0   0 -5.4172422E+01 -4.7583610E+00  4.7726355E+01  7.2353980E+01  8.1899471E-06  0.0000000E+00  1.0000000E+00
-13  1  5  5   0   0  3.3933430E+02  3.6556855E+01  1.0487085E+03  1.1028480E+03  3.0157830E-06  0.0000000E+00  1.0000000E+00
 13  1  5  5   0   0  8.9921884E+00  1.0126693E+01  1.2701869E+02  1.2773863E+02  3.0517578E-05  0.0000000E+00  1.0000000E+00
</event>
<event>
9 100 1.0000000E+00 1.0000000E+03 7.8125000E-03 0.0000000E+00
 21 -1  0  0 501 502  0.0000000E+00  0.0000000E+00  2.9146397E+02  2.9146397E+02  0.0000000E+00  0.0000000E+00  1.0000000E+00
 21 -1  0  0 502 501  0.0000000E+00  0.0000000E+00 -8.5038324E+02  8.5038324E+02  0.0000000E+00  0.0000000E+00  1.0000000E+00
 39  2  1  2   0   0  4.1566750E-13 -4.3964832E-14 -5.5891926E+02  1.1418472E+03  9.9570292E+02  0.0000000E+00  1.0000000E+00
 23  2  3  3   0   0 -3.0297032E+01  3.2881050E+00  2.8128058E+02  2.9666386E+02  8.9229823E+01  0.0000000E+00  1.0000000E+00
 23  2  3  3   0   0  3.0297032E+01 -3.2881050E+00 -8.4019984E+02  8.4518335E+02  8.6431465E+01  0.0000000E+00  1.0000000E+00
-11  1  4  4   0   0  9.9941845E+00 -3.4776839E+01  1.4710999E+02  1.5149476E+02  5.3947966E-06  0.0000000E+00  1.0000000E+00
 11  1  4  4   0   0 -4.0291217E+01  3.8064944E+01  1.3417059E+02  1.4516910E+02  6.3259598E-06  0.0000000E+00  1.0000000E+00
-13  1  5  5   0   0  1.0921179E+01  2.2754391E+00 -1.0762281E+01  1.5500854E+01  1.5258789E-05  0.0000000E+00  1.0000000E+00
 13  1  5  5   0   0  1.9375854E+01 -5.5635441E+00 -8.2943756E+02  8.2968249E+02  1.8773098E-06  0.0000000E+00  1.0000000E+00
</event>
<event>
9 100 1.0000000E+00 1.0000000E+03 7.8125000E-03 0.0000000E+00
 21 -1  0  0 501 502  0.0000000E+00  0.0000000E+00  8.3528884E+02  8.3528884E+02  0.0000000E+00  0.0000000E+00  1.0000000E+00
 21 -1  0  0 502 501  0.0000000E+00  0.0000000E+00 -2.8873663E+02  2.8873663E+02  0.0000000E+00  0.0000000E+00  1.0000000E+00
 39  2  1  2   0   0  2.2737368E-13  1.1368684E-13  5.4655221E+02  1.1240255E+03  9.8219853E+02  0.0000000E+00  1.0000000E+00
 23  2  3  3   0   0  2.0036308E+02  1.3603497E+02  7.5121674E+02  7.9472119E+02  9.2759385E+01  0.0000000E+00  1.0000000E+00
 23  2  3  3   0   0 -2.0036308E+02 -1.3603497E+02 -2.0466454E+02  3.2930428E+02  8.8898040E+01  0.0000000E+00  1.0000000E+00
-11  1  4  4   0   0  1.3924074E+02  8.3006855E+01  3.5406960E+02  3.8941418E+02  7.6293945E-06  0.0000000E+00  1.0000000E+00
 11  1  4  4   0   0  6.1122334E+01  5.3028112E+01  3.9714715E+02  4.0530702E+02  9.3440618E-06  0.0000000E+00  1.0000000E+00
-13  1  5  5   0   0 -6.8308653E+01 -3.1972754E+00 -7.4997660E+01  1.0149356E+02  9.9108742E-06  0.0000000E+00  1.0000000E+00
 13  1  5  5   0   0 -1.3205442E+02 -1.3283769E+02 -1.2966688E+02  2.2781072E+02  4.4731290E-06  0.0000000E+00  1.0000000E+00
</event>
<event>
9 100 1.0000000E+00 1.0000000E+03 7.8125000E-03 0.0000000E+00
 21 -1  0  0 501 502  0.0000000E+00  0.0000000E+00  8.5127413E+02  8.5127413E+02  0.0000000E+00  0.0000000E+00  1.0000000E+00
 21 -1  0  0 502 501  0.0000000E+00  0.0000000E+00 -2.5356462E+02  2.5356462E+02  0.0000000E+00  0.0000000E+00  1.0000000E+00
 39  2  1  2   0   0 -2.8421709E-14 -1.4210855E-14  5.9770950E+02  1.1048387E+03  9.2919966E+02  0.0000000E+00  1.0000000E+00
 23  2  3  3   0   0 -2.0762257E+02 -7.5597428E+01  7.7337212E+02  8.0847207E+02  8.1856889E+01  0.0000000E+00  1.0000000E+00
 23  2  3  3   0   0  2.0762257E+02  7.5597428E+01 -1.7566262E+02  2.9636668E+02  9.0298116E+01  0.0000000E+00  1.0000000E+00
-11  1  4  4   0   0 -7.2647268E+01 -1.7888630E+01  4.0638953E+02  4.1321917E+02  5.3947966E-06  0.0000000E+00  1.0000000E+00
 11  1  4  4   0   0 -1.3497530E+02 -5.7708798E+01  3.6698259E+02  3.9525290E+02  9.3440618E-06  0.0000000E+00  1.0000000E+00
-13  1  5  5   0   0  2.1850194E+01  4.1940809E+01 -5.3925308E+01  7.1724482E+01  9.1473227E-06  0.0000000E+00  1.0000000E+00
 13  1  5  5   0   0  1.8577238E+02  3.3656619E+01 -1.2173731E+02  2.2464220E+02  3.9895059E-06  0.0000000E+00  1.0000000E+00
</event>
<event>
9 100 1.0000000E+00 1.0000000E+03 7.8125000E-03 0.0000000E+00
 21 -1  0  0 501 502  0.0000000E+00  0.0000000E+00  6.1839866E+02  6.1839866E+02  0.0000000E+00  0.0000000E+00  1.0000000E+00
 21 -1  0  0 502 501  0.0000000E+00  0.0000000E+00 -4.0790470E+02  4.0790470E+02  0.0000000E+00  0.0000000E+00  1.0000000E+00
 39  2  1  2   0   0  0.0000000E+00  2.8421709E-14  2.1049396E+02  1.0263034E+03  1.0044854E+03  0.0000000E+00  1.0000000E+00
 23  2  3  3   0   0  3.5152106E+02  1.4394431E+02 -2.1717588E+02  4.4702739E+02  9.1548377E+01  0.0000000E+00  1.0000000E+00
 23  2  3  3   0   0 -3.5152106E+02 -1.4394431E+02  4.2766984E+02  5.7927596E+02  9.1499370E+01  0.0000000E+00  1.0000000E+00
-11  1  4  4   0   0  2.4841649E+02  1.4300792E+02 -1.7342983E+02  3.3502227E+02  3.4714269E-06  0.0000000E+00  1.0000000E+00
 11  1  4  4   0   0  1.0310457E+02  9.3639059E-01 -4.3746044E+01  1.1200511E+02  6.3259598E-06  0.0000000E+00  1.0000000E+00
-13  1  5  5   0   0 -1.3455967E+02 -3.9320007E+01  2.2193643E+02  2.6250361E+02  2.6973983E-06  0.0000000E+00  1.0000000E+00
 13  1  5  5   0   0 -2.1696138E+02 -1.0462431E+02  2.0573341E+02  3.1677235E+02  5.3947966E-06  0.0000000E+00  1.0000000E+00
</event>
<event>
9 100 1.0000000E+00 1.0000000E+03 7.8125000E-03 0.0000000E+00
 21 -1  0  0 501 502  0.0000000E+00  0.0000000E+00  7.9924514E+02  7.9924514E+02  0.0000000E+00  0.0000000E+00  1.0000000E+00
 21 -1  0  0 502 501  0.0000000E+00  0.0000000E+00 -3.1238758E+02  3.1238758E+02  0.0000000E+00  0.0000000E+00  1.0000000E+00
 39  2  1  2   0   0  2.2737368E-13 -1.1368684E-13  4.8685756E+02  1.1116327E+03  9.9934829E+02  0.0000000E+00  1.0000000E+00
 23  2  3  3   0   0  4.2359025E+02 -2.3725457E+02  3.2501453E+02  5.9185769E+02  9.4565634E+01  0.0000000E+00  1.0000000E+00
 23  2  3  3   0   0 -4.2359025E+02  2.3725457E+02  1.6184303E+02  5.1977502E+02  9.0854174E+01  0.0000000E+00  1.0000000E+00
-11  1  4  4   0   0  2.5125798E+02 -1.1420793E+02  1.3453756E+02  3.0704133E+02  1.0092740E-05  0.0000000E+00  1.0000000E+00
 11  1  4  4   0   0  1.7233227E+02 -1.2304663E+02  1.9047697E+02  2.8481636E+02  1.0619668E-05  0.0000000E+00  1.0000000E+00
-13  1  5  5   0   0 -3.6327537E+02  1.6271868E+02  1.3021197E+02  4.1880965E+02  4.8744794E-06  0.0000000E+00  1.0000000E+00
 13  1  5  5   0   0 -6.0314875E+01  7.4535890E+01  3.1631060E+01  1.0096538E+02  1.5728400E-05  0.0000000E+00  1.0000000E+00
</event>
<event>
9 100 1.0000000E+00 1.0000000E+03 7.8125000E-03 0.0000000E+00
 21 -1  0  0 501 502  0.0000000E+00  0.0000000E+00  1.2126292E+02  1.2126292E+02  0.0000000E+00  0.0000000E+00  1.0000000E+00
 21 -1  0  0 502 501  0.0000000E+00  0.0000000E+00 -2.0662626E+03  2.0662626E+03  0.0000000E+00  0.0000000E+00  1.0000000E+00
 39  2  1  2   0   0 -1.7763568E-13 -1.1311840E-11 -1.9449997E+03  2.1875256E+03  1.0011214E+03  0.0000000E+00  1.0000000E+00
 23  2  3  3   0   0  4.5669413E+00  2.6933455E+02 -7.2901725E+01  2.9340319E+02  9.0602505E+01  0.0000000E+00  1.0000000E+00
 23  2  3  3   0   0 -4.5669413E+00 -2.6933455E+02 -1.8720980E+03  1.8941224E+03  1.0191507E+02  0.0000000E+00  1.0000000E+00
-11  1  4  4   0   0  1.8607532E+01  1.7669318E+02 -8.8373064E+01  1.9843517E+02  2.8610229E-06  0.0000000E+00  1.0000000E+00
 11  1  4  4   0   0 -1.4040590E+01  9.2641372E+01  1.5471339E+01  9.4968017E+01  6.4681339E-06  0.0000000E+00  1.0000000E+00
-13  1  5  5   0   0  3.4894743E+01 -1.9423450E+02 -1.4687966E+03  1.4819946E+03  7.6293945E-06  0.0000000E+00  1.0000000E+00
 13  1  5  5   0   0 -3.9461684E+01 -7.5100050E+01 -4.0330145E+02  4.1212777E+02  0.0000000E+00  0.0000000E+00  1.0000000E+00
</event>
<event>
9 100 1.0000000E+00 1.0000000E+03 7.8125000E-03 0.0000000E+00
 21 -1  0  0 501 502  0.0000000E+00  0.0000000E+00  4.9820016E+02  4.9820016E+02  0.0000000E+00  0.0000000E+00  1.0000000E+00
 21 -1  0  0 502 501  0.0000000E+00  0.0000000E+00 -5.0098608E+02  5.0098608E+02  0.0000000E+00  0.0000000E+00  1.0000000E+00
 39  2  1  2   0   0  3.9790393E-13  9.0949470E-13 -2.7859133E+00  9.9918624E+02  9.9918235E+02  0.0000000E+00  1.0000000E+00
 23  2  3  3   0   0  1.4417063E+02  2.7605884E+02  3.7777628E+02  4.9826822E+02  9.2534582E+01  0.0000000E+00  1.0000000E+00
 23  2  3  3   0   0 -1.4417063E+02 -2.7605884E+02 -3.8056219E+02  5.0091802E+02  9.5381473E+01  0.0000000E+00  1.0000000E+00
-11  1  4  4   0   0 -1.4476617E+00 -4.9630690E+00  1.9665828E+01  2.0334025E+01  2.2243316E-05  0.0000000E+00  1.0000000E+00
 11  1  4  4   0   0  1.4561829E+02  2.8102191E+02  3.5811045E+02  4.7793419E+02  3.0157830E-06  0.0000000E+00  1.0000000E+00
-13  1  5  5   0   0  1.0348166E+00  7.1810707E+00 -6.2704033E+00  9.5893993E+00  2.5303839E-05  0.0000000E+00  1.0000000E+00
 13  1  5  5   0   0 -1.4520545E+02 -2.8323991E+02 -3.7429179E+02  4.9132862E+02  2.6642676E-06  0.0000000E+00  1.0000000E+00
</event>
<event>
9 100 1.0000000E+00 1.0000000E+03 7.8125000E-03 0.0000000E+00
 21 -1  0  0 501 502  0.0000000E+00  0.0000000E+00  1.0049269E+03  1.0049269E+03  0.0000000E+00  0.0000000E+00  1.0000000E+00
 21 -1  0  0 502 501  0.0000000E+00  0.0000000E+00 -2.4458681E+02  2.4458681E+02  0.0000000E+00  0.0000000E+00  1.0000000E+00
 39  2  1  2   0   0  0.0000000E+00  2.2737368E-13  7.6034009E+02  1.2495137E+03  9.9154802E+02  0.0000000E+00  1.0000000E+00
 23  2  3  3   0   0  3.7489199E+01 -4.1208013E+02  7.0530009E+02  8.2222538E+02  8.5970252E+01  0.0000000E+00  1.0000000E+00
 23  2  3  3   0   0 -3.7489199E+01  4.1208013E+02  5.5039999E+01  4.2728833E+02  9.1271252E+01  0.0000000E+00  1.0000000E+00
-11  1  4  4   0   0 -1.8830746E+01 -1.3920838E+02  1.8830051E+02  2.3492691E+02  0.0000000E+00  0.0000000E+00  1.0000000E+00
 11  1  4  4   0   0  5.6319945E+01 -2.7287175E+02  5.1699958E+02  5.8729847E+02  9.3440618E-06  0.0000000E+00  1.0000000E+00
-13  1  5  5   0   0 -6.6261399E+01  3.1362477E+02  5.1460544E+01  3.2465251E+02  4.6211862E-06  0.0000000E+00  1.0000000E+00
 13  1  5  5   0   0  2.8772201E+01  9.8455366E+01  3.5794552E+00  1.0263582E+02  1.0160101E-05  0.0000000E+00  1.0000000E+00
</event>
<event>
9 100 1.0000000E+00 1.0000000E+03 7.8125000E-03 0.0000000E+00
 21 -1  0  0 501 502  0.0000000E+00  0.0000000E+00  4.1278414E+02  4.1278414E+02  0.0000000E+00  0.0000000E+00  1.0000000E+00
 21 -1  0  0 502 501  0.0000000E+00  0.0000000E+00 -6.0755330E+02  6.0755330E+02  0.0000000E+00  0.0000000E+00  1.0000000E+00
 39  2  1  2   0   0 -1.7053026E-13  4.5474735E-13 -1.9476916E+02  1.0203374E+03  1.0015755E+03  0.0000000E+00  1.0000000E+00
 23  2  3  3   0   0 -1.4153116E+02  3.7764979E+02  1.9014220E+02  4.5518512E+02  9.1591491E+01  0.0000000E+00  1.0000000E+00
 23  2  3  3   0   0  1.4153116E+02 -3.7764979E+02 -3.8491136E+02  5.6515232E+02  9.2682033E+01  0.0000000E+00  1.0000000E+00
-11  1  4  4   0   0 -3.8359688E+01  2.4757423E+01  2.6049350E+01  5.2563907E+01  1.4896869E-05  0.0000000E+00  1.0000000E+00
 11  1  4  4   0   0 -1.0317147E+02  3.5289237E+02  1.6409285E+02  4.0262121E+02  2.6334193E-06  0.0000000E+00  1.0000000E+00
-13  1  5  5   0   0  8.9987111E+00 -4.8344851E+01 -1.2654777E+01  5.0777405E+01  1.7892516E-05  0.0000000E+00  1.0000000E+00
 13  1  5  5   0   0  1.3253245E+02 -3.2930494E+02 -3.7225658E+02  5.1437492E+02  1.8390713E-06  0.0000000E+00  1.0000000E+00
</event>
<event>
9 100 1.0000000E+00 1.0000000E+03 7.8125000E-03 0.0000000E+00
 21 -1  0  0 501 502  0.0000000E+00  0.0000000E+00  3.8272078E+02  3.8272078E+02  0.0000000E+00  0.0000000E+00  1.0000000E+00
 21 -1  0  0 502 501  0.0000000E+00  0.0000000E+00 -6.7316530E+02  6.7316530E+02  0.0000000E+00  0.0000000E+00  1.0000000E+00
 39  2  1  2   0   0  1.7621460E-12 -3.5527137E-14 -2.9044451E+02  1.0558861E+03  1.0151539E+03  0.0000000E+00  1.0000000E+00
 23  2  3  3   0   0 -3.1045906E+02  6.1048097E+00 -5.5242654E+02  6.4003683E+02  8.9721614E+01  0.0000000E+00  1.0000000E+00
 23  2  3  3   0   0  3.1045906E+02 -6.1048097E+00  2.6198203E+02  4.1584925E+02  8.8735110E+01  0.0000000E+00  1.0000000E+00
-11  1  4  4   0   0 -2.9382277E+02 -1.7333596E+01 -4.9760604E+02  5.7813843E+02  1.7841613E-06  0.0000000E+00  1.0000000E+00
 11  1  4  4   0   0 -1.6636292E+01  2.3438405E+01 -5.4820500E+01  6.1898402E+01  1.3214499E-05  0.0000000E+00  1.0000000E+00
-13  1  5  5   0   0  2.4774017E+02 -1.7519792E+00  2.4977831E+02  3.5180600E+02  2.1523798E-06  0.0000000E+00  1.0000000E+00
 13  1  5  5   0   0  6.2718892E+01 -4.3528305E+00  1.2203715E+01  6.4043245E+01  0.0000000E+00  0.0000000E+00  1.0000000E+00
</event>
<event>
9 100 1.0000000E+00 1.0000000E+03 7.8125000E-03 0.0000000E+00
 21 -1  0  0 501 502  0.0000000E+00  0.0000000E+00  3.2326318E+02  3.2326318E+02  0.0000000E+00  0.0000000E+00  1.0000000E+00
 21 -1  0  0 502 501  0.0000000E+00  0.0000000E+00 -6.8110616E+02  6.8110616E+02  0.0000000E+00  0.0000000E+00  1.0000000E+00
 39  2  1  2   0   0 -1.1368684E-12  1.4210855E-12 -3.5784298E+02  1.0043693E+03  9.3845947E+02  0.0000000E+00  1.0000000E+00
 23  2  3  3   0   0  2.6243800E+02 -3.4158528E+02 -3.5176882E+02  5.6362932E+02  9.1555975E+01  0.0000000E+00  1.0000000E+00
 23  2  3  3   0   0 -2.6243800E+02  3.4158528E+02 -6.0741539E+00  4.4074002E+02  9.3062667E+01  0.0000000E+00  1.0000000E+00
-11  1  4  4   0   0  1.2445758E+02 -2.1410082E+02 -1.5806046E+02  2.9378896E+02  1.0446979E-05  0.0000000E+00  1.0000000E+00
 11  1  4  4   0   0  1.3798042E+02 -1.2748447E+02 -1.9370837E+02  2.6984036E+02  1.0446979E-05  0.0000000E+00  1.0000000E+00
-13  1  5  5   0   0 -7.9768521E+01  1.7954527E+02 -5.9426277E+00  1.9655746E+02  7.1466219E-06  0.0000000E+00  1.0000000E+00
 13  1  5  5   0   0 -1.8266947E+02  1.6204001E+02 -1.3152621E-01  2.4418255E+02  7.6647031E-06  0.0000000E+00  1.0000000E+00
</event>
<event>
9 100 1.0000000E+00 1.0000000E+03 7.8125000E-03 0.0000000E+00
 21 -1  0  0 501 502  0.0000000E+00  0.0000000E+00  2.6289861E+03  2.6289861E+03  0.0000000E+00  0.0000000E+00  1.0000000E+00
 21 -1  0  0 502 501  0.0000000E+00  0.0000000E+00 -1.7929961E+02  1.7929961E+02  0.0000000E+00  0.0000000E+00  1.0000000E+00
 39  2  1  2   0   0 -1.9042545E-12  5.3432814E-12  2.4496865E+03  2.8082857E+03  1.3731368E+03  0.0000000E+00  1.0000000E+00
 23  2  3  3   0   0 -1.5844913E+02  4.5091094E+02  2.3384503E+02  5.3967196E+02  9.0197123E+01  0.0000000E+00  1.0000000E+00
 23  2  3  3   0   0  1.5844913E+02 -4.5091094E+02  2.2158415E+03  2.2686137E+03  9.0709112E+01  0.0000000E+00  1.0000000E+00
-11  1  4  4   0   0 -1.0275880E+02  1.7435601E+02  7.4413059E+01  2.1563092E+02  1.6071605E-05  0.0000000E+00  1.0000000E+00
 11  1  4  4   0   0 -5.5690331E+01  2.7655493E+02  1.5943197E+02  3.2404104E+02  9.7256079E-06  0.0000000E+00  1.0000000E+00
-13  1  5  5   0   0  1.3052435E+02 -4.3412935E+02  2.0375809E+03  2.0874005E+03  7.6293945E-06  0.0000000E+00  1.0000000E+00
 13  1  5  5   0   0  2.7924778E+01 -1.6781590E+01  1.7826051E+02  1.8121320E+02  5.7093161E-05  0.0000000E+00  1.0000000E+00
</event>
<event>
9 100 1.0000000E+00 1.0000000E+03 7.8125000E-03 0.0000000E+00
 21 -1  0  0 501 502  0.0000000E+00  0.0000000E+00  3.8526296E+02  3.8526296E+02  0.0000000E+00  0.0000000E+00  1.0000000E+00
 21 -1  0  0 502 501  0.0000000E+00  0.0000000E+00 -6.6988458E+02  6.6988458E+02  0.0000000E+00  0.0000000E+00  1.0000000E+00
 39  2  1  2   0   0  1.9326762E-12 -5.4001248E-13 -2.8462162E+02  1.0551475E+03  1.0160349E+03  0.0000000E+00  1.0000000E+00
 23  2  3  3   0   0  4.7969602E+02 -1.3695864E+02 -1.7277313E+02  5.3585778E+02  9.1799038E+01  0.0000000E+00  1.0000000E+00
 23  2  3  3   0   0 -4.7969602E+02  1.3695864E+02 -1.1184849E+02  5.1928977E+02  9.1026584E+01  0.0000000E+00  1.0000000E+00
-11  1  4  4   0   0  1.1164281E+02 -7.3740292E+01 -4.5427130E+01  1.4129887E+02  3.3036247E-06  0.0000000E+00  1.0000000E+00
 11  1  4  4   0   0  3.6805321E+02 -6.3218352E+01 -1.2734600E+02  3.9455891E+02  6.7434958E-07  0.0000000E+00  1.0000000E+00
-13  1  5  5   0   0 -1.5338911E+02  8.3348854E+01 -1.7698321E+01  1.7546646E+02  4.8628039E-06  0.0000000E+00  1.0000000E+00
 13  1  5  5   0   0 -3.2630691E+02  5.3609790E+01 -9.4150173E+01  3.4382330E+02  7.4788986E-06  0.0000000E+00  1.0000000E+00
</event>
<event>
9 100 1.0000000E+00 1.0000000E+03 7.8125000E-03 0.0000000E+00
 21 -1  0  0 501 502  0.0000000E+00  0.0000000E+00  8.5747757E+02  8.5747757E+02  0.0000000E+00  0.0000000E+00  1.0000000E+00
 21 -1  0  0 502 501  0.0000000E+00  0.0000000E+00 -2.9087069E+02  2.9087069E+02  0.0000000E+00  0.0000000E+00  1.0000000E+00
 39  2  1  2   0   0 -6.8212103E-13 -5.6843419E-13  5.6660688E+02  1.1483483E+03  9.9882950E+02  0.0000000E+00  1.0000000E+00
 23  2  3  3   0   0  2.9348422E+02  2.8233413E+02  5.9899131E+02  7.3002806E+02  9.1130821E+01  0.0000000E+00  1.0000000E+00
 23  2  3  3   0   0 -2.9348422E+02 -2.8233413E+02 -3.2384434E+01  4.1832020E+02  8.9986054E+01  0.0000000E+00  1.0000000E+00
-11  1  4  4   0   0  6.2080741E+01  1.0064333E+02  2.2501678E+02  2.5419608E+02  1.0789593E-05  0.0000000E+00  1.0000000E+00
 11  1  4  4   0   0  2.3140348E+02  1.8169079E+02  3.7397454E+02  4.7583198E+02  6.0315660E-06  0.0000000E+00  1.0000000E+00
-13  1  5  5   0   0 -1.3021742E+02 -7.1899250E+01 -3.1143957E+01  1.5197376E+02  4.0606143E-06  0.0000000E+00  1.0000000E+00
 13  1  5  5   0   0 -1.6326681E+02 -2.1043488E+02 -1.2404770E+00  2.6634644E+02  1.2615925E-06  0.0000000E+00  1.0000000E+00
</event>
<event>
9 100 1.0000000E+00 1.0000000E+03 7.8125000E-03 0.0000000E+00
 21 -1  0  0 501 502  0.0000000E+00  0.0000000E+00  2.5479609E+02  2.5479609E+02  0.0000000E+00  0.0000000E+00  1.0000000E+00
 21 -1  0  0 502 501  0.0000000E+00  0.0000000E+00 -9.7728420E+02  9.7728420E+02  0.0000000E+00  0.0000000E+00  1.0000000E+00
 39  2  1  2   0   0  1.2789769E-13  4.5474735E-13 -7.2248811E+02  1.2320803E+03  9.9801441E+02  0.0000000E+00  1.0000000E+00
 23  2  3  3   0   0  1.0445945E+02  3.3522780E+02 -7.6124708E+02  8.4341136E+02  9.2499425E+01  0.0000000E+00  1.0000000E+00
 23  2  3  3   0   0 -1.0445945E+02 -3.3522780E+02  3.8758963E+01  3.8866894E+02  1.6208587E+02  0.0000000E+00  1.0000000E+00
-11  1  4  4   0   0  1.1933431E+02  2.9019765E+02 -6.2903146E+02  7.0294803E+02  1.9073486E-06  0.0000000E+00  1.0000000E+00
 11  1  4  4   0   0 -1.4874861E+01  4.5030148E+01 -1.3221562E+02  1.4046333E+02  1.3214499E-05  0.0000000E+00  1.0000000E+00
-13  1  5  5   0   0 -4.3578719E+01 -3.1146688E+02  5.9548575E+01  3.2008867E+02  4.2915344E-06  0.0000000E+00  1.0000000E+00
 13  1  5  5   0   0 -6.0880733E+01 -2.3760918E+01 -2.0789612E+01  6.8580266E+01  1.4016093E-05  0.0000000E+00  1.0000000E+00
</event>
<event>
9 100 1.0000000E+00 1.0000000E+03 7.8125000E-03 0.0000000E+00
 21 -1  0  0 501 502  0.0000000E+00  0.0000000E+00  4.5762177E+02  4.5762177E+02  0.0000000E+00  0.0000000E+00  1.0000000E+00
 21 -1  0  0 502 501  0.0000000E+00  0.0000000E+00 -5.4605431E+02  5.4605431E+02  0.0000000E+00  0.0000000E+00  1.0000000E+00
 39  2  1  2   0   0 -1.1368684E-13  7.1054274E-15 -8.8432540E+01  1.0036761E+03  9.9977264E+02  0.0000000E+00  1.0000000E+00
 23  2  3  3   0   0 -2.7711288E+02  3.9925613E+01 -4.4954744E+02  5.3749874E+02  9.1795397E+01  0.0000000E+00  1.0000000E+00
 23  2  3  3   0   0  2.7711288E+02 -3.9925613E+01  3.6111491E+02  4.6617733E+02  9.2367332E+01  0.0000000E+00  1.0000000E+00
-11  1  4  4   0   0 -1.8079619E+02 -2.2219277E+00 -3.4343143E+02  3.8812027E+02  2.6973983E-06  0.0000000E+00  1.0000000E+00
 11  1  4  4   0   0 -9.6316686E+01  4.2147540E+01 -1.0611601E+02  1.4937847E+02  6.6072495E-06  0.0000000E+00  1.0000000E+00
-13  1  5  5   0   0  7.9547900E+01 -3.3598965E+00  1.7517879E+02  1.9242341E+02  8.5299224E-06  0.0000000E+00  1.0000000E+00
 13  1  5  5   0   0  1.9756498E+02 -3.6565716E+01  1.8593611E+02  2.7375392E+02  1.9073486E-06  0.0000000E+00  1.0000000E+00
</event>
<event>
9 100 1.0000000E+00 1.0000000E+03 7.8125000E-03 0.0000000E+00
 21 -1  0  0 501 502  0.0000000E+00  0.0000000E+00  1.5420203E+02  1.5420203E+02  0.0000000E+00  0.0000000E+00  1.0000000E+00
 21 -1  0  0 502 501  0.0000000E+00  0.0000000E+00 -1.6463057E+03  1.6463057E+03  0.0000000E+00  0.0000000E+00  1.0000000E+00
 39  2  1  2   0   0  1.5347723E-12 -4.4906301E-12 -1.4921036E+03  1.8005077E+03  1.0076977E+03  0.0000000E+00  1.0000000E+00
 23  2  3  3   0   0  1.3090594E+02 -3.9251644E+02 -1.2316942E+03  1.3026472E+03  9.2808612E+01  0.0000000E+00  1.0000000E+00
 23  2  3  3   0   0 -1.3090594E+02  3.9251644E+02 -2.6040943E+02  4.9786054E+02  9.4056019E+01  0.0000000E+00  1.0000000E+00
-11  1  4  4   0   0  1.2913017E+02 -3.7841857E+02 -1.1042244E+03  1.1743878E+03  3.3036247E-06  0.0000000E+00  1.0000000E+00
 11  1  4  4   0   0  1.7757690E+00 -1.4097868E+01 -1.2746981E+02  1.2825933E+02  2.6428998E-05  0.0000000E+00  1.0000000E+00
-13  1  5  5   0   0 -5.1910379E+01  2.5360738E+02 -1.2079523E+02  2.8566218E+02  5.0463701E-06  0.0000000E+00  1.0000000E+00
 13  1  5  5   0   0 -7.8995558E+01  1.3890905E+02 -1.3961419E+02  2.1219837E+02  7.5092391E-06  0.0000000E+00  1.0000000E+00
</event>
<event>
9 100 1.0000000E+00 1.0000000E+03 7.8125000E-03 0.0000000E+00
 21 -1  0  0 501 502  0.0000000E+00  0.0000000E+00  6.6913263E+02  6.6913263E+02  0.0000000E+00  0.0000000E+00  1.0000000E+00
 21 -1  0  0 502 501  0.0000000E+00  0.0000000E+00 -3.7051819E+02  3.7051819E+02  0.0000000E+00  0.0000000E+00  1.0000000E+00
 39  2  1  2   0   0 -3.9790393E-13 -6.2527761E-13  2.9861444E+02  1.0396508E+03  9.9584299E+02  0.0000000E+00  1.0000000E+00
 23  2  3  3   0   0 -2.2788270E+02 -4.1892200E+02  2.6990889E+02  5.5338025E+02  7.7153949E+01  0.0000000E+00  1.0000000E+00
 23  2  3  3   0   0  2.2788270E+02  4.1892200E+02  2.8705550E+01  4.8627057E+02  9.0602987E+01  0.0000000E+00  1.0000000E+00
-11  1  4  4   0   0 -1.2602645E+01 -3.4897535E+01  2.4120809E-01  3.7104215E+01  1.3214499E-05  0.0000000E+00  1.0000000E+00
 11  1  4  4   0   0 -2.1528005E+02 -3.8402446E+02  2.6966768E+02  5.1627603E+02  2.3270231E-06  0.0000000E+00  1.0000000E+00
-13  1  5  5   0   0  1.5648820E+02  3.6088777E+02  2.6279846E+01  3.9423238E+02  3.8347842E-06  0.0000000E+00  1.0000000E+00
 13  1  5  5   0   0  7.1394495E+01  5.8034230E+01  2.4257040E+00  9.2038198E+01  9.3257938E-06  0.0000000E+00  1.0000000E+00
</event>
<event>
9 100 1.0000000E+00 1.0000000E+03 7.8125000E-03 0.0000000E+00
 21 -1  0  0 501 502  0.0000000E+00  0.0000000E+00  1.2056838E+03  1.2056838E+03  0.0000000E+00  0.0000000E+00  1.0000000E+00
 21 -1  0  0 502 501  0.0000000E+00  0.0000000E+00 -2.1022416E+02  2.1022416E+02  0.0000000E+00  0.0000000E+00  1.0000000E+00
 39  2  1  2   0   0 -2.2168933E-12 -9.3791641E-13  9.9545969E+02  1.4159080E+03  1.0069039E+03  0.0000000E+00  1.0000000E+00
 23  2  3  3   0   0 -1.6044042E+02 -6.4587010E+01  1.1476708E+03  1.1642852E+03  9.2191312E+01  0.0000000E+00  1.0000000E+00
 23  2  3  3   0   0  1.6044042E+02  6.4587010E+01 -1.5221108E+02  2.5162280E+02  1.0115935E+02  0.0000000E+00  1.0000000E+00
-11  1  4  4   0   0 -1.6551703E+02 -4.2986243E+01  1.0670671E+03  1.0806831E+03  9.5367432E-07  0.0000000E+00  1.0000000E+00
 11  1  4  4   0   0  5.0766187E+00 -2.1600767E+01  8.0603619E+01  8.3602085E+01  2.1579186E-05  0.0000000E+00  1.0000000E+00
-13  1  5  5   0   0  5.2428318E+01  7.4509193E+00 -1.1045347E+02  1.2249169E+02  1.1080694E-05  0.0000000E+00  1.0000000E+00
 13  1  5  5   0   0  1.0801210E+02  5.7136091E+01 -4.1757601E+01  1.2913111E+02  1.0619668E-05  0.0000000E+00  1.0000000E+00
</event>
<event>
9 100 1.0000000E+00 1.0000000E+03 7.8125000E-03 0.0000000E+00
 21 -1  0  0 501 502  0.0000000E+00  0.0000000E+00  4.9658186E+02  4.9658186E+02  0.0000000E+00  0.0000000E+00  1.0000000E+00
 21 -1  0  0 502 501  0.0000000E+00  0.0000000E+00 -5.0373865E+02  5.0373865E+02  0.0000000E+00  0.0000000E+00  1.0000000E+00
 39  2  1  2   0   0  4.2632564E-13  1.0800250E-12 -7.1567993E+00  1.0003205E+03  1.0002949E+03  0.0000000E+00  1.0000000E+00
 23  2  3  3   0   0 -9.5508530E+01 -2.5113750E+02 -4.1878783E+02  5.0003153E+02  4.9561706E+01  0.0000000E+00  1.0000000E+00
 23  2  3  3   0   0  9.5508530E+01  2.5113750E+02  4.1163103E+02  5.0028898E+02  9.3043178E+01  0.0000000E+00  1.0000000E+00
-11  1  4  4   0   0 -6.6474431E+01 -1.1773605E+02 -1.8233087E+02  2.2699157E+02  6.0315660E-06  0.0000000E+00  1.0000000E+00
 11  1  4  4   0   0 -2.9034098E+01 -1.3340145E+02 -2.3645696E+02  2.7303996E+02  6.6072495E-06  0.0000000E+00  1.0000000E+00
-13  1  5  5   0   0  1.1800952E+01  1.5936540E+02  2.1970278E+02  2.7167242E+02  4.6720309E-06  0.0000000E+00  1.0000000E+00
 13  1  5  5   0   0  8.3707578E+01  9.1772108E+01  1.9192825E+02  2.2861656E+02  5.3947966E-06  0.0000000E+00  1.0000000E+00
</event>
<event>
9 100 1.0000000E+00 1.0000000E+03 7.8125000E-03 0.0000000E+00
 21 -1  0  0 501 502  0.0000000E+00  0.0000000E+00  6.7893135E+02  6.7893135E+02  0.0000000E+00  0.0000000E+00  1.0000000E+00
 21 -1  0  0 502 501  0.0000000E+00  0.0000000E+00 -3.7664895E+02  3.7664895E+02  0.0000000E+00  0.0000000E+00  1.0000000E+00
 39  2  1  2   0   0 -7.1054274E-15 -1.4210855E-13  3.0228240E+02  1.0555803E+03  1.0113729E+03  0.0000000E+00  1.0000000E+00
 23  2  3  3   0   0  1.6736184E+01  2.1218893E+02  6.2015713E+02  6.6217491E+02  9.2609400E+01  0.0000000E+00  1.0000000E+00
 23  2  3  3   0   0 -1.6736184E+01 -2.1218893E+02 -3.1787474E+02  3.9340539E+02  9.1756270E+01  0.0000000E+00  1.0000000E+00
-11  1  4  4   0   0  5.2164981E+01  1.2178759E+02  4.0508937E+02  4.2620512E+02  3.8146973E-06  0.0000000E+00  1.0000000E+00
 11  1  4  4   0   0 -3.5428797E+01  9.0401334E+01  2.1506776E+02  2.3596979E+02  5.3947966E-06  0.0000000E+00  1.0000000E+00
-13  1  5  5   0   0  2.9670974E+01 -1.4126236E+02 -1.7050695E+02  2.2340108E+02  9.1473227E-06  0.0000000E+00  1.0000000E+00
 13  1  5  5   0   0 -4.6407157E+01 -7.0926562E+01 -1.4736779E+02  1.7000431E+02  1.0789593E-05  0.0000000E+00  1.0000000E+00
</event>
<event>
9 100 1.0000000E+00 1.0000000E+03 7.8125000E-03 0.0000000E+00
 21 -1  0  0 501 502  0.0000000E+00  0.0000000E+00  2.8903132E+02  2.8903132E+02  0.0000000E+00  0.0000000E+00  1.0000000E+00
 21 -1  0  0 502 501  0.0000000E+00  0.0000000E+00 -8.6786129E+02  8.6786129E+02  0.0000000E+00  0.0000000E+00  1.0000000E+00
 39  2  1  2   0   0 -9.0949470E-13 -3.1974423E-14 -5.7882997E+02  1.1568926E+03  1.0016768E+03  0.0000000E+00  1.0000000E+00
 23  2  3  3   0   0  3.3141526E+02  1.0096259E+01  1.3627212E+02  3.6348256E+02  6.0095508E+01  0.0000000E+00  1.0000000E+00
 23  2  3  3   0   0 -3.3141526E+02 -1.0096259E+01 -7.1510209E+02  7.9341005E+02  9.0501331E+01  0.0000000E+00  1.0000000E+00
-11  1  4  4   0   0  1.9874794E+02 -8.5679816E+00  1.0872777E+02  2.2670660E+02  1.7192608E-06  0.0000000E+00  1.0000000E+00
 11  1  4  4   0   0  1.3266732E+02  1.8664241E+01  2.7544350E+01  1.3677596E+02  6.1805160E-06  0.0000000E+00  1.0000000E+00
-13  1  5  5   0   0 -1.2691001E+01 -6.6731356E+00 -5.2319374E+00  1.5263205E+01  2.4126264E-05  0.0000000E+00  1.0000000E+00
 13  1  5  5   0   0 -3.1872426E+02 -3.4231235E+00 -7.0987016E+02  7.7814684E+02  1.7751780E-06  0.0000000E+00  1.0000000E+00
</event>
<event>
9 100 1.0000000E+00 1.0000000E+03 7.8125000E-03 0.0000000E+00
 21 -1  0  0 501 502  0.0000000E+00  0.0000000E+00  5.6970043E+02  5.6970043E+02  0.0000000E+00  0.0000000E+00  1.0000000E+00
 21 -1  0  0 502 501  0.0000000E+00  0.0000000E+00 -4.4101593E+02  4.4101593E+02  0.0000000E+00  0.0000000E+00  1.0000000E+00
 39  2  1  2   0   0  2.8421709E-14 -5.6843419E-14  1.2868450E+02  1.0107164E+03  1.0024908E+03  0.0000000E+00  1.0000000E+00
 23  2  3  3   0   0 -8.6105352E+01  2.9196913E+02  4.4803034E+02  5.4929806E+02  9.1307551E+01  0.0000000E+00  1.0000000E+00
 23  2  3  3   0   0  8.6105352E+01 -2.9196913E+02 -3.1934585E+02  4.6141830E+02  1.3514799E+02  0.0000000E+00  1.0000000E+00
-11  1  4  4   0   0 -3.6885279E+01  1.0926193E+02  2.5045068E+02  2.7572493E+02  7.6293945E-06  0.0000000E+00  1.0000000E+00
 11  1  4  4   0   0 -4.9220074E+01  1.8270720E+02  1.9757966E+02  2.7357313E+02  4.6720309E-06  0.0000000E+00  1.0000000E+00
-13  1  5  5   0   0  3.5255635E+01 -2.3400097E+02 -2.9966557E+02  3.8183618E+02  5.1246131E-06  0.0000000E+00  1.0000000E+00
 13  1  5  5   0   0  5.0849717E+01 -5.7968159E+01 -1.9680274E+01  7.9582124E+01  1.8688124E-05  0.0000000E+00  1.0000000E+00
</event>
<event>
9 100 1.0000000E+00 1.0000000E+03 7.8125000E-03 0.0000000E+00
 21 -1  0  0 501 502  0.0000000E+00  0.0000000E+00  4.3593286E+02  4.3593286E+02  0.0000000E+00  0.0000000E+00  1.0000000E+00
 21 -1  0  0 502 501  0.0000000E+00  0.0000000E+00 -5.8977770E+02  5.8977770E+02  0.0000000E+00  0.0000000E+00  1.0000000E+00
 39  2  1  2   0   0 -8.8107299E-13 -1.8189894E-12 -1.5384484E+02  1.0257106E+03  1.0141075E+03  0.0000000E+00  1.0000000E+00
 23  2  3  3   0   0  1.7377117E+02  3.5557330E+02 -3.8353173E+02  5.5904966E+02  9.3867726E+01  0.0000000E+00  1.0000000E+00
 23  2  3  3   0   0 -1.7377117E+02 -3.5557330E+02  2.2968689E+02  4.6666090E+02  9.1583532E+01  0.0000000E+00  1.0000000E+00
-11  1  4  4   0   0  1.0356963E+02  1.8593519E+02 -2.6760363E+02  3.4192143E+02  1.1444092E-05  0.0000000E+00  1.0000000E+00
 11  1  4  4   0   0  7.0201535E+01  1.6963811E+02 -1.1592809E+02  2.1712823E+02  1.8688124E-05  0.0000000E+00  1.0000000E+00
-13  1  5  5   0   0 -1.4700779E+02 -2.9028342E+02  2.2567213E+02  3.9598443E+02  3.8286416E-06  0.0000000E+00  1.0000000E+00
 13  1  5  5   0   0 -2.6763376E+01 -6.5289876E+01  4.0147594E+00  7.0676477E+01  1.5495374E-05  0.0000000E+00  1.0000000E+00
</event>
<event>
9 100 1.0000000E+00 1.0000000E+03 7.8125000E-03 0.0000000E+00
 21 -1  0  0 501 502  0.0000000E+00  0.0000000E+00  6.7652358E+02  6.7652358E+02  0.0000000E+00  0.0000000E+00  1.0000000E+00
 21 -1  0  0 502 501  0.0000000E+00  0.0000000E+00 -3.7299407E+02  3.7299407E+02  0.0000000E+00  0.0000000E+00  1.0000000E+00
 39  2  1  2   0   0 -2.6645353E-14 -1.0231815E-12  3.0352951E+02  1.0495177E+03  1.0046677E+03  0.0000000E+00  1.0000000E+00
 23  2  3  3   0   0 -1.3362268E+01 -4.7560911E+02  1.3449936E+01  4.8451686E+02  9.0515783E+01  0.0000000E+00  1.0000000E+00
 23  2  3  3   0   0  1.3362268E+01  4.7560911E+02  2.9007957E+02  5.6500079E+02  9.3258568E+01  0.0000000E+00  1.0000000E+00
-11  1  4  4   0   0 -3.2809331E+01 -4.4668739E+02  2.2061200E+00  4.4789613E+02  1.8313279E-06  0.0000000E+00  1.0000000E+00
 11  1  4  4   0   0  1.9447063E+01 -2.8921721E+01  1.1243815E+01  3.6620726E+01  1.6189822E-05  0.0000000E+00  1.0000000E+00
-13  1  5  5   0   0 -9.6689269E+00  1.8794591E+02  6.5287114E+01  1.9919729E+02  6.6072495E-06  0.0000000E+00  1.0000000E+00
 13  1  5  5   0   0  2.3031195E+01  2.8766320E+02  2.2479246E+02  3.6580350E+02  5.3947966E-06  0.0000000E+00  1.0000000E+00
</event>
<event>
9 100 1.0000000E+00 1.0000000E+03 7.8125000E-03 0.0000000E+00
 21 -1  0  0 501 502  0.0000000E+00  0.0000000E+00  3.0244156E+02  3.0244156E+02  0.0000000E+00  0.0000000E+00  1.0000000E+00
 21 -1  0  0 502 501  0.0000000E+00  0.0000000E+00 -8.1417628E+02  8.1417628E+02  0.0000000E+00  0.0000000E+00  1.0000000E+00
 39  2  1  2   0   0  2.8421709E-12  1.2221335E-12 -5.1173472E+02  1.1166178E+03  9.9245301E+02  0.0000000E+00  1.0000000E+00
 23  2  3  3   0   0  2.7403618E+02  1.1869598E+02 -6.8958438E+02  7.5707942E+02  9.1967739E+01  0.0000000E+00  1.0000000E+00
 23  2  3  3   0   0 -2.7403618E+02 -1.1869598E+02  1.7784966E+02  3.5953842E+02  9.1939157E+01  0.0000000E+00  1.0000000E+00
-11  1  4  4   0   0  1.8215391E+02  1.2378646E+02 -4.7318809E+02  5.2192921E+02  5.3947966E-06  0.0000000E+00  1.0000000E+00
 11  1  4  4   0   0  9.1882274E+01 -5.0904829E+00 -2.1639629E+02  2.3515020E+02  5.3947966E-06  0.0000000E+00  1.0000000E+00
-13  1  5  5   0   0 -3.8927590E+00 -3.7096138E+00  3.0629636E+01  3.1098061E+01  7.3871295E-06  0.0000000E+00  1.0000000E+00
 13  1  5  5   0   0 -2.7014342E+02 -1.1498636E+02  1.4722002E+02  3.2844036E+02  1.0115244E-06  0.0000000E+00  1.0000000E+00
</event>
<event>
9 100 1.0000000E+00 1.0000000E+03 7.8125000E-03 0.0000000E+00
 21 -1  0  0 501 502  0.0000000E+00  0.0000000E+00  7.0505097E+02  7.0505097E+02  0.0000000E+00  0.0000000E+00  1.0000000E+00
 21 -1  0  0 502 501  0.0000000E+00  0.0000000E+00 -3.4629882E+02  3.4629882E+02  0.0000000E+00  0.0000000E+00  1.0000000E+00
 39  2  1  2   0   0  5.4001248E-13  9.2370556E-14  3.5875215E+02  1.0513498E+03  9.8824757E+02  0.0000000E+00  1.0000000E+00
 23  2  3  3   0   0 -2.3503033E+02 -4.5456058E+01 -2.7080650E+02  3.7282050E+02  9.1397252E+01  0.0000000E+00  1.0000000E+00
 23  2  3  3   0   0  2.3503033E+02  4.5456058E+01  6.2955865E+02  6.7852929E+02  8.2172901E+01  0.0000000E+00  1.0000000E+00
-11  1  4  4   0   0 -4.5675044E+01  2.4028914E+01 -3.4221913E+01  6.1925259E+01  1.1121658E-05  0.0000000E+00  1.0000000E+00
 11  1  4  4   0   0 -1.8935528E+02 -6.9484972E+01 -2.3658459E+02  3.1089524E+02  3.4714269E-06  0.0000000E+00  1.0000000E+00
-13  1  5  5   0   0 -3.3722934E+00  7.1210266E-01 -4.1380929E-01  3.4714106E+00  1.5258789E-05  0.0000000E+00  1.0000000E+00
 13  1  5  5   0   0  2.3840262E+02  4.4743955E+01  6.2997246E+02  6.7505787E+02  1.0675931E-06  0.0000000E+00  1.0000000E+00
</event>
<event>
9 100 1.0000000E+00 1.0000000E+03 7.8125000E-03 0.0000000E+00
 21 -1  0  0 501 502  0.0000000E+00  0.0000000E+00  8.5791154E+02  8.5791154E+02  0.0000000E+00  0.0000000E+00  1.0000000E+00
 21 -1  0  0 502 501  0.0000000E+00  0.0000000E+00 -2.9643021E+02  2.9643021E+02  0.0000000E+00  0.0000000E+00  1.0000000E+00
 39  2  1  2   0   0  1.9895197E-12 -2.5579538E-13  5.6148134E+02  1.1543418E+03  1.0085849E+03  0.0000000E+00  1.0000000E+00
 23  2  3  3   0   0  4.2010156E+02 -5.8360702E+01  5.7653572E+02  7.2120996E+02  8.8651440E+01  0.0000000E+00  1.0000000E+00
 23  2  3  3   0   0 -4.2010156E+02  5.8360702E+01 -1.5054377E+01  4.3313179E+02  8.6517164E+01  0.0000000E+00  1.0000000E+00
-11  1  4  4   0   0  3.2640516E+02 -6.4193078E+01  3.9167294E+02  5.1387622E+02  4.6720309E-06  0.0000000E+00  1.0000000E+00
 11  1  4  4   0   0  9.3696404E+01  5.8323757E+00  1.8486277E+02  2.0733374E+02  1.0789593E-05  0.0000000E+00  1.0000000E+00
-13  1  5  5   0   0 -3.4230873E+02  1.5330475E+01  1.7528593E+00  3.4265634E+02  3.8811733E-06  0.0000000E+00  1.0000000E+00
 13  1  5  5   0   0 -7.7792831E+01  4.3030227E+01 -1.6807236E+01  9.0475456E+01  8.6018042E-06  0.0000000E+00  1.0000000E+00
</event>
<event>
9 100 1.0000000E+00 1.0000000E+03 7.8125000E-03 0.0000000E+00
 21 -1  0  0 501 502  0.0000000E+00  0.0000000E+00  4.6547124E+02  4.6547124E+02  0.0000000E+00  0.0000000E+00  1.0000000E+00
 21 -1  0  0 502 501  0.0000000E+00  0.0000000E+00 -5.3782071E+02  5.3782071E+02  0.0000000E+00  0.0000000E+00  1.0000000E+00
 39  2  1  2   0   0  0.0000000E+00  0.0000000E+00 -7.2349473E+01  1.0032919E+03  1.0006799E+03  0.0000000E+00  1.0000000E+00
 23  2  3  3   0   0  1.9963197E+02  5.1939624E+01  4.0033437E+02  4.5943321E+02  9.0887919E+01  0.0000000E+00  1.0000000E+00
 23  2  3  3   0   0 -1.9963197E+02 -5.1939624E+01 -4.7268385E+02  5.4385874E+02  1.7263157E+02  0.0000000E+00  1.0000000E+00
-11  1  4  4   0   0  1.9254035E+02  5.1156541E+01  3.0794135E+02  3.6676512E+02  3.8146973E-06  0.0000000E+00  1.0000000E+00
 11  1  4  4   0   0  7.0916267E+00  7.8308234E-01  9.2393021E+01  9.2668089E+01  1.7059845E-05  0.0000000E+00  1.0000000E+00
-13  1  5  5   0   0  2.0613597E+00  3.9805423E+01 -1.2830822E+02  1.3435669E+02  1.7059845E-05  0.0000000E+00  1.0000000E+00
 13  1  5  5   0   0 -2.0169333E+02 -9.1745046E+01 -3.4437562E+02  4.0950204E+02  1.9073486E-06  0.0000000E+00  1.0000000E+00
</event>
<event>
9 100 1.0000000E+00 1.0000000E+03 7.8125000E-03 0.0000000E+00
 21 -1  0  0 501 502  0.0000000E+00  0.0000000E+00  8.1219720E+02  8.1219720E+02  0.0000000E+00  0.0000000E+00  1.0000000E+00
 21 -1  0  0 502 501  0.0000000E+00  0.0000000E+00 -3.0717117E+02  3.0717117E+02  0.0000000E+00  0.0000000E+00  1.0000000E+00
 39  2  1  2   0   0  9.2370556E-14  1.4210855E-13  5.0502602E+02  1.1193684E+03  9.9896660E+02  0.0000000E+00  1.0000000E+00
 23  2  3  3   0   0  3.4135918E+01  6.1872436E+01 -2.8994662E+02  3.1606935E+02  1.0410253E+02  0.0000000E+00  1.0000000E+00
 23  2  3  3   0   0 -3.4135918E+01 -6.1872436E+01  7.9497264E+02  8.0329902E+02  9.1183080E+01  0.0000000E+00  1.0000000E+00
-11  1  4  4   0   0 -5.5677359E+00  1.3444078E+01  4.3468468E+00  1.5186771E+01  1.2063132E-05  0.0000000E+00  1.0000000E+00
 11  1  4  4   0   0  3.9703654E+01  4.8428358E+01 -2.9429346E+02  3.0088258E+02  2.2198229E-06  0.0000000E+00  1.0000000E+00
-13  1  5  5   0   0 -3.5519319E+01  1.0419033E+01  1.6015817E+02  1.6438010E+02  1.5258789E-05  0.0000000E+00  1.0000000E+00
 13  1  5  5   0   0  1.3834015E+00 -7.2291469E+01  6.3481447E+02  6.3891892E+02  3.8146973E-06  0.0000000E+00  1.0000000E+00
</event>
<event>
9 100 1.0000000E+00 1.0000000E+03 7.8125000E-03 0.0000000E+00
 21 -1  0  0 501 502  0.0000000E+00  0.0000000E+00  1.5773943E+03  1.5773943E+03  0.0000000E+00  0.0000000E+00  1.0000000E+00
 21 -1  0  0 502 501  0.0000000E+00  0.0000000E+00 -1.5913008E+02  1.5913008E+02  0.0000000E+00  0.0000000E+00  1.0000000E+00
 39  2  1  2   0   0  3.8085091E-12 -5.9685590E-12  1.4182642E+03  1.7365244E+03  1.0020197E+03  0.0000000E+00  1.0000000E+00
 23  2  3  3   0   0 -1.3836073E+02  2.1263815E+02 -2.3879660E+01  2.6920310E+02  8.6841231E+01  0.0000000E+00  1.0000000E+00
 23  2  3  3   0   0  1.3836073E+02 -2.1263815E+02  1.4421439E+03  1.4673213E+03  9.4308377E+01  0.0000000E+00  1.0000000E+00
-11  1  4  4   0   0 -2.5171637E+01  2.6555922E+01 -3.5644776E+01  5.1082075E+01  1.4964446E-05  0.0000000E+00  1.0000000E+00
 11  1  4  4   0   0 -1.1318909E+02  1.8608222E+02  1.1765115E+01  2.1812103E+02  5.7220459E-06  0.0000000E+00  1.0000000E+00
-13  1  5  5   0   0  1.3339345E+02 -2.0933240E+02  1.2148631E+03  1.2399622E+03  1.1757687E-05  0.0000000E+00  1.0000000E+00
 13  1  5  5   0   0  4.9672812E+00 -3.3057509E+00  2.2728080E+02  2.2735911E+02  3.4119690E-05  0.0000000E+00  1.0000000E+00
</event>
<event>
9 100 1.0000000E+00 1.0000000E+03 7.8125000E-03 0.0000000E+00
 21 -1  0  0 501 502  0.0000000E+00  0.0000000E+00  2.7063386E+02  2.7063386E+02  0.0000000E+00  0.0000000E+00  1.0000000E+00
 21 -1  0  0 502 501  0.0000000E+00  0.0000000E+00 -9.2115979E+02  9.2115979E+02  0.0000000E+00  0.0000000E+00  1.0000000E+00
 39  2  1  2   0   0  4.6611603E-12  1.8474111E-12 -6.5052593E+02  1.1917936E+03  9.9859307E+02  0.0000000E+00  1.0000000E+00
 23  2  3  3   0   0  4.4063518E+02  1.7243214E+02 -1.6776548E+02  5.0959064E+02  8.7436595E+01  0.0000000E+00  1.0000000E+00
 23  2  3  3   0   0 -4.4063518E+02 -1.7243214E+02 -4.8276045E+02  6.8220301E+02  9.1929879E+01  0.0000000E+00  1.0000000E+00
-11  1  4  4   0   0  1.8367173E+02  4.3438473E+01 -3.1263295E+01  1.9131022E+02  1.3885708E-05  0.0000000E+00  1.0000000E+00
 11  1  4  4   0   0  2.5696345E+02  1.2899366E+02 -1.3650219E+02  3.1828042E+02  9.4649473E-06  0.0000000E+00  1.0000000E+00
-13  1  5  5   0   0 -4.1258949E+02 -1.4377988E+02 -4.6586053E+02  6.3869302E+02  1.3486992E-06  0.0000000E+00  1.0000000E+00
 13  1  5  5   0   0 -2.8045689E+01 -2.8652258E+01 -1.6899919E+01  4.3509997E+01  9.3440618E-06  0.0000000E+00  1.0000000E+00
</event>
<event>
9 100 1.0000000E+00 1.0000000E+03 7.8125000E-03 0.0000000E+00
 21 -1  0  0 501 502  0.0000000E+00  0.0000000E+00  3.2255184E+02  3.2255184E+02  0.0000000E+00  0.0000000E+00  1.0000000E+00
 21 -1  0  0 502 501  0.0000000E+00  0.0000000E+00 -7.3480669E+02  7.3480669E+02  0.0000000E+00  0.0000000E+00  1.0000000E+00
 39  2  1  2   0   0  2.8421709E-13  1.1937118E-12 -4.1225485E+02  1.0573585E+03  9.7368013E+02  0.0000000E+00  1.0000000E+00
 23  2  3  3   0   0 -5.5851309E+01 -2.2595341E+02 -6.5982761E+02  7.0583727E+02  9.3056184E+01  0.0000000E+00  1.0000000E+00
 23  2  3  3   0   0  5.5851309E+01  2.2595341E+02  2.4757276E+02  3.5152126E+02  9.0003407E+01  0.0000000E+00  1.0000000E+00
-11  1  4  4   0   0  1.7013907E+01 -6.9179050E+00 -7.2103133E+01  7.4405593E+01  7.6293945E-06  0.0000000E+00  1.0000000E+00
 11  1  4  4   0   0 -7.2865217E+01 -2.1903550E+02 -5.8772448E+02  6.3143167E+02  3.0157830E-06  0.0000000E+00  1.0000000E+00
-13  1  5  5   0   0  7.2813908E+01  2.1285745E+02  2.3958701E+02  3.2865194E+02  1.4889235E-06  0.0000000E+00  1.0000000E+00
 13  1  5  5   0   0 -1.6962598E+01  1.3095953E+01  7.9857539E+00  2.2869324E+01  5.3947966E-06  0.0000000E+00  1.0000000E+00
</event>
<event>
9 100 1.0000000E+00 1.0000000E+03 7.8125000E-03 0.0000000E+00
 21 -1  0  0 501 502  0.0000000E+00  0.0000000E+00  9.1639146E+02  9.1639146E+02  0.0000000E+00  0.0000000E+00  1.0000000E+00
 21 -1  0  0 502 501  0.0000000E+00  0.0000000E+00 -2.6820454E+02  2.6820454E+02  0.0000000E+00  0.0000000E+00  1.0000000E+00
 39  2  1  2   0   0  0.0000000E+00 -5.6843419E-14  6.4818692E+02  1.1845960E+03  9.9152478E+02  0.0000000E+00  1.0000000E+00
 23  2  3  3   0   0 -1.3719593E+02  1.3171427E+02  8.5512511E+02  8.8053790E+02  8.9088015E+01  0.0000000E+00  1.0000000E+00
 23  2  3  3   0   0  1.3719593E+02 -1.3171427E+02 -2.0693818E+02  3.0405810E+02  1.1600234E+02  0.0000000E+00  1.0000000E+00
-11  1  4  4   0   0 -1.3238467E+02  1.3666750E+02  8.5194755E+02  8.7293662E+02  1.0062422E-06  0.0000000E+00  1.0000000E+00
 11  1  4  4   0   0 -4.8112568E+00 -4.9532269E+00  3.1775537E+00  7.6012825E+00  1.0789593E-05  0.0000000E+00  1.0000000E+00
-13  1  5  5   0   0  2.3597444E+00  9.7867055E+00  8.4946148E+00  1.3172186E+01  2.6973983E-06  0.0000000E+00  1.0000000E+00
 13  1  5  5   0   0  1.3483619E+02 -1.4150097E+02 -2.1543280E+02  2.9088591E+02  1.6731821E-06  0.0000000E+00  1.0000000E+00
</event>
<event>
9 100 1.0000000E+00 1.0000000E+03 7.8125000E-03 0.0000000E+00
 21 -1  0  0 501 502  0.0000000E+00  0.0000000E+00  6.6318986E+02  6.6318986E+02  0.0000000E+00  0.0000000E+00  1.0000000E+00
 21 -1  0  0 502 501  0.0000000E+00  0.0000000E+00 -3.6676701E+02  3.6676701E+02  0.0000000E+00  0.0000000E+00  1.0000000E+00
 39  2  1  2   0   0 -1.0800250E-12 -1.0231815E-12  2.9642285E+02  1.0299569E+03  9.8637957E+02  0.0000000E+00  1.0000000E+00
 23  2  3  3   0   0  2.8382199E+02  2.6589353E+02  4.5066010E+02  6.0208160E+02  9.0296387E+01  0.0000000E+00  1.0000000E+00
 23  2  3  3   0   0 -2.8382199E+02 -2.6589353E+02 -1.5423725E+02  4.2787528E+02  8.9631664E+01  0.0000000E+00  1.0000000E+00
-11  1  4  4   0   0  2.3179852E+01 -4.4868053E+00  2.3632315E+01  3.3405438E+01  1.4273290E-05  0.0000000E+00  1.0000000E+00
 11  1  4  4   0   0  2.6064214E+02  2.7038033E+02  4.2702779E+02  5.6867616E+02  2.8610229E-06  0.0000000E+00  1.0000000E+00
-13  1  5  5   0   0 -1.5186034E+02 -9.2156918E+01 -4.2025773E+01  1.8253938E+02  1.1121658E-05  0.0000000E+00  1.0000000E+00
 13  1  5  5   0   0 -1.3196165E+02 -1.7373661E+02 -1.1221148E+02  2.4533590E+02  4.7204470E-06  0.0000000E+00  1.0000000E+00
</event>
<event>
9 100 1.0000000E+00 1.0000000E+03 7.8125000E-03 0.0000000E+00
 21 -1  0  0 501 502  0.0000000E+00  0.0000000E+00  4.2305049E+02  4.2305049E+02  0.0000000E+00  0.0000000E+00  1.0000000E+00
 21 -1  0  0 502 501  0.0000000E+00  0.0000000E+00 -5.8200463E+02  5.8200463E+02  0.0000000E+00  0.0000000E+00  1.0000000E+00
 39  2  1  2   0   0  4.5474735E-13 -7.9580786E-13 -1.5895414E+02  1.0050551E+03  9.9240586E+02  0.0000000E+00  1.0000000E+00
 23  2  3  3   0   0  2.4999944E+02 -4.0050238E+02  4.5577733E+01  4.8253339E+02  8.8652495E+01  0.0000000E+00  1.0000000E+00
 23  2  3  3   0   0 -2.4999944E+02  4.0050238E+02 -2.0453187E+02  5.2252173E+02  9.1070250E+01  0.0000000E+00  1.0000000E+00
-11  1  4  4   0   0  1.8553845E+02 -2.6819019E+02 -7.1543747E+00  3.2619271E+02  5.0011103E-06  0.0000000E+00  1.0000000E+00
 11  1  4  4   0   0  6.4460994E+01 -1.3231219E+02  5.2732108E+01  1.5634069E+02  1.0144704E-05  0.0000000E+00  1.0000000E+00
-13  1  5  5   0   0 -2.8101574E+01  8.0349537E+01 -6.0523767E+00  8.5336849E+01  8.9462581E-06  0.0000000E+00  1.0000000E+00
 13  1  5  5   0   0 -2.2189787E+02  3.2015285E+02 -1.9847950E+02  4.3718488E+02  2.6802215E-06  0.0000000E+00  1.0000000E+00
</event>
<event>
9 100 1.0000000E+00 1.0000000E+03 7.8125000E-03 0.0000000E+00
 21 -1  0  0 501 502  0.0000000E+00  0.0000000E+00  9.8716958E+02  9.8716958E+02  0.0000000E+00  0.0000000E+00  1.0000000E+00
 21 -1  0  0 502 501  0.0000000E+00  0.0000000E+00 -2.5249371E+02  2.5249371E+02  0.0000000E+00  0.0000000E+00  1.0000000E+00
 39  2  1  2   0   0 -2.7000624E-13 -4.2632564E-13  7.3467586E+02  1.2396633E+03  9.9850711E+02  0.0000000E+00  1.0000000E+00
 23  2  3  3   0   0 -8.2404414E+01 -1.3260541E+02 -2.0959321E+02  2.7724845E+02  9.2534894E+01  0.0000000E+00  1.0000000E+00
 23  2  3  3   0   0  8.2404414E+01  1.3260541E+02  9.4426908E+02  9.6241484E+02  1.0111155E+02  0.0000000E+00  1.0000000E+00
-11  1  4  4   0   0 -8.8321878E+01 -1.3674919E+02 -2.1392780E+02  2.6882373E+02  2.2891598E-06  0.0000000E+00  1.0000000E+00
 11  1  4  4   0   0  5.9174642E+00  4.1437762E+00  4.3345882E+00  8.4247207E+00  1.2936268E-05  0.0000000E+00  1.0000000E+00
-13  1  5  5   0   0  8.6705214E+01  1.0584165E+02  9.0118748E+02  9.1151474E+02  2.9004872E-06  0.0000000E+00  1.0000000E+00
 13  1  5  5   0   0 -4.3008001E+00  2.6763760E+01  4.3081598E+01  5.0900096E+01  3.5785032E-05  0.0000000E+00  1.0000000E+00
</event>
<event>
9 100 1.0000000E+00 1.0000000E+03 7.8125000E-03 0.0000000E+00
 21 -1  0  0 501 502  0.0000000E+00  0.0000000E+00  1.3186122E+03  1.3186122E+03  0.0000000E+00  0.0000000E+00  1.0000000E+00
 21 -1  0  0 502 501  0.0000000E+00  0.0000000E+00 -1.9001088E+02  1.9001088E+02  0.0000000E+00  0.0000000E+00  1.0000000E+00
 39  2  1  2   0   0  2.0463631E-12 -1.4210855E-12  1.1286013E+03  1.5086231E+03  1.0011007E+03  0.0000000E+00  1.0000000E+00
 23  2  3  3   0   0  2.4378364E+02 -1.7390971E+02  1.1527265E+03  1.1944859E+03  9.1340527E+01  0.0000000E+00  1.0000000E+00
 23  2  3  3   0   0 -2.4378364E+02  1.7390971E+02 -2.4125195E+01  3.1413718E+02  9.1788301E+01  0.0000000E+00  1.0000000E+00
-11  1  4  4   0   0  1.2286807E+02 -7.3958914E+01  7.2139092E+02  7.3550754E+02  1.3214499E-05  0.0000000E+00  1.0000000E+00
 11  1  4  4   0   0  1.2091557E+02 -9.9950793E+01  4.3133558E+02  4.5897835E+02  2.1579186E-05  0.0000000E+00  1.0000000E+00
-13  1  5  5   0   0 -9.8853609E+01  1.1621128E+02 -3.8890169E+01  1.5744695E+02  6.9632921E-06  0.0000000E+00  1.0000000E+00
 13  1  5  5   0   0 -1.4493003E+02  5.7698429E+01  1.4764974E+01  1.5669023E+02  6.5900206E-06  0.0000000E+00  1.0000000E+00
</event>
<event>
9 100 1.0000000E+00 1.0000000E+03 7.8125000E-03 0.0000000E+00
 21 -1  0  0 501 502  0.0000000E+00  0.0000000E+00  5.4389596E+02  5.4389596E+02  0.0000000E+00  0.0000000E+00  1.0000000E+00
 21 -1  0  0 502 501  0.0000000E+00  0.0000000E+00 -4.6066032E+02  4.6066032E+02  0.0000000E+00  0.0000000E+00  1.0000000E+00
 39  2  1  2   0   0  2.1316282E-14  3.4106051E-13  8.3235642E+01  1.0045563E+03  1.0011020E+03  0.0000000E+00  1.0000000E+00
 23  2  3  3   0   0  5.8579271E+01  4.7578003E+02 -6.9141984E+01  4.9329128E+02  9.3581526E+01  0.0000000E+00  1.0000000E+00
 23  2  3  3   0   0 -5.8579271E+01 -4.7578003E+02  1.5237763E+02  5.1126499E+02  9.1513842E+01  0.0000000E+00  1.0000000E+00
-11  1  4  4   0   0  5.9946037E+01  1.9347255E+02  3.7664199E-01  2.0254702E+02  6.1805160E-06  0.0000000E+00  1.0000000E+00
 11  1  4  4   0   0 -1.3667662E+00  2.8230748E+02 -6.9518626E+01  2.9074426E+02  4.2026228E-06  0.0000000E+00  1.0000000E+00
-13  1  5  5   0   0 -6.4321747E+01 -2.3966838E+02  4.6640024E+01  2.5249458E+02  5.8788433E-06  0.0000000E+00  1.0000000E+00
 13  1  5  5   0   0  5.7424755E+00 -2.3611165E+02  1.0573760E+02  2.5877042E+02  9.7722538E-06  0.0000000E+00  1.0000000E+00
</event>
<event>
9 100 1.0000000E+00 1.0000000E+03 7.8125000E-03 0.0000000E+00
 21 -1  0  0 501 502  0.0000000E+00  0.0000000E+00  8.2506545E+02  8.2506545E+02  0.0000000E+00  0.0000000E+00  1.0000000E+00
 21 -1  0  0 502 501  0.0000000E+00  0.0000000E+00 -3.0048093E+02  3.0048093E+02  0.0000000E+00  0.0000000E+00  1.0000000E+00
 39  2  1  2   0   0  2.2737368E-13  1.7053026E-13  5.2458452E+02  1.1255464E+03  9.9582416E+02  0.0000000E+00  1.0000000E+00
 23  2  3  3   0   0  2.3420491E+02  2.6479058E+02  6.4498685E+02  7.4115716E+02  9.1323151E+01  0.0000000E+00  1.0000000E+00
 23  2  3  3   0   0 -2.3420491E+02 -2.6479058E+02 -1.2040233E+02  3.8438923E+02  9.1062428E+01  0.0000000E+00  1.0000000E+00
-11  1  4  4   0   0  1.7662209E+02  1.7721540E+02  3.6796284E+02  4.4496889E+02  1.1444092E-05  0.0000000E+00  1.0000000E+00
 11  1  4  4   0   0  5.7582818E+01  8.7575176E+01  2.7702401E+02  2.9618827E+02  1.9451216E-05  0.0000000E+00  1.0000000E+00
-13  1  5  5   0   0 -2.1484772E+01 -3.5852698E+00 -2.7242459E+01  3.4879810E+01  1.7219038E-05  0.0000000E+00  1.0000000E+00
 13  1  5  5   0   0 -2.1272014E+02 -2.6120531E+02 -9.3159869E+01  3.4950942E+02  4.0460975E-06  0.0000000E+00  1.0000000E+00
</event>
<event>
9 100 1.0000000E+00 1.0000000E+03 7.8125000E-03 0.0000000E+00
 21 -1  0  0 501 502  0.0000000E+00  0.0000000E+00  8.1691004E+02  8.1691004E+02  0.0000000E+00  0.0000000E+00  1.0000000E+00
 21 -1  0  0 502 501  0.0000000E+00  0.0000000E+00 -2.9043048E+02  2.9043048E+02  0.0000000E+00  0.0000000E+00  1.0000000E+00
 39  2  1  2   0   0  6.5369932E-13 -5.6843419E-14  5.2647957E+02  1.1073405E+03  9.7417775E+02  0.0000000E+00  1.0000000E+00
 23  2  3  3   0   0  1.3276455E+02 -1.3359139E+01  7.8431046E+02  8.0324711E+02  1.1071642E+02  0.0000000E+00  1.0000000E+00
 23  2  3  3   0   0 -1.3276455E+02  1.3359139E+01 -2.5783090E+02  3.0409340E+02  9.0504879E+01  0.0000000E+00  1.0000000E+00
-11  1  4  4   0   0  9.2041943E+01 -5.4563694E+01  6.1654309E+02  6.2575897E+02  9.3440618E-06  0.0000000E+00  1.0000000E+00
 11  1  4  4   0   0  4.0722610E+01  4.1204555E+01  1.6776738E+02  1.7748814E+02  1.0789593E-05  0.0000000E+00  1.0000000E+00
-13  1  5  5   0   0 -3.7243082E+01  1.7343877E+01 -1.6068667E+01  4.4114162E+01  6.6072495E-06  0.0000000E+00  1.0000000E+00
 13  1  5  5   0   0 -9.5521471E+01 -3.9847387E+00 -2.4176223E+02  2.5997924E+02  7.9074497E-07  0.0000000E+00  1.0000000E+00
</event>
<event>
9 100 1.0000000E+00 1.0000000E+03 7.8125000E-03 0.0000000E+00
 21 -1  0  0 501 502  0.0000000E+00  0.0000000E+00  5.4642019E+02  5.4642019E+02  0.0000000E+00  0.0000000E+00  1.0000000E+00
 21 -1  0  0 502 501  0.0000000E+00  0.0000000E+00 -4.5927555E+02  4.5927555E+02  0.0000000E+00  0.0000000E+00  1.0000000E+00
 39  2  1  2   0   0  1.5916157E-12 -6.5369932E-13  8.7144633E+01  1.0056957E+03  1.0019130E+03  0.0000000E+00  1.0000000E+00
 23  2  3  3   0   0 -4.3474048E+02  1.8211373E+02 -9.9968521E+01  4.9071197E+02  9.2950711E+01  0.0000000E+00  1.0000000E+00
 23  2  3  3   0   0  4.3474048E+02 -1.8211373E+02  1.8711315E+02  5.1498377E+02  8.9622846E+01  0.0000000E+00  1.0000000E+00
-11  1  4  4   0   0 -3.3634946E+02  9.9117209E+01 -5.8643936E+01  3.5551975E+02  7.0080464E-06  0.0000000E+00  1.0000000E+00
 11  1  4  4   0   0 -9.8391026E+01  8.2996519E+01 -4.1324585E+01  1.3519222E+02  1.5583167E-05  0.0000000E+00  1.0000000E+00
-13  1  5  5   0   0  1.4207329E+02 -8.1124338E+01  2.4982845E+01  1.6549961E+02  1.6627880E-05  0.0000000E+00  1.0000000E+00
 13  1  5  5   0   0  2.9266719E+02 -1.0098939E+02  1.6213031E+02  3.4948416E+02  8.5432400E-06  0.0000000E+00  1.0000000E+00
</event>
<event>
9 100 1.0000000E+00 1.0000000E+03 7.8125000E-03 0.0000000E+00
 21 -1  0  0 501 502  0.0000000E+00  0.0000000E+00  4.4777643E+02  4.4777643E+02  0.0000000E+00  0.0000000E+00  1.0000000E+00
 21 -1  0  0 502 501  0.0000000E+00  0.0000000E+00 -5.6260695E+02  5.6260695E+02  0.0000000E+00  0.0000000E+00  1.0000000E+00
 39  2  1  2   0   0  2.1316282E-14  9.9475983E-14 -1.1483052E+02  1.0103834E+03  1.0038369E+03  0.0000000E+00  1.0000000E+00
 23  2  3  3   0   0  1.3217999E+01  5.6707063E+01 -5.5109651E+02  5.6116584E+02  8.8370404E+01  0.0000000E+00  1.0000000E+00
 23  2  3  3   0   0 -1.3217999E+01 -5.6707063E+01  4.3626599E+02  4.4921754E+02  8.9877560E+01  0.0000000E+00  1.0000000E+00
-11  1  4  4   0   0  4.5750526E+01  1.4287026E+01 -1.8143944E+02  1.8766327E+02  1.4273290E-05  0.0000000E+00  1.0000000E+00
 11  1  4  4   0   0 -3.2532527E+01  4.2420037E+01 -3.6965706E+02  3.7350257E+02  9.3440618E-06  0.0000000E+00  1.0000000E+00
-13  1  5  5   0   0  5.6014096E-01  2.4608899E+01  9.9849323E+01  1.0283870E+02  7.6293945E-06  0.0000000E+00  1.0000000E+00
 13  1  5  5   0   0 -1.3778140E+01 -8.1315962E+01  3.3641667E+02  3.4637883E+02  4.6720309E-06  0.0000000E+00  1.0000000E+00
</event>
<event>
9 100 1.0000000E+00 1.0000000E+03 7.8125000E-03 0.0000000E+00
 21 -1  0  0 501 502  0.0000000E+00  0.0000000E+00  3.9928963E+02  3.9928963E+02  0.0000000E+00  0.0000000E+00  1.0000000E+00
 21 -1  0  0 502 501  0.0000000E+00  0.0000000E+00 -6.2407145E+02  6.2407145E+02  0.0000000E+00  0.0000000E+00  1.0000000E+00
 39  2  1  2   0   0  7.3896445E-13  4.5474735E-13 -2.2478182E+02  1.0233611E+03  9.9836919E+02  0.0000000E+00  1.0000000E+00
 23  2  3  3   0   0 -3.7892414E+02 -2.0333401E+02  1.2950478E+02  4.5857711E+02  9.2699807E+01  0.0000000E+00  1.0000000E+00
 23  2  3  3   0   0  3.7892414E+02  2.0333401E+02 -3.5428660E+02  5.6478397E+02  9.2378157E+01  0.0000000E+00  1.0000000E+00
-11  1  4  4   0   0 -1.4342892E+02 -3.4531808E+01  2.0216024E+01  1.4890597E+02  1.4145276E-05  0.0000000E+00  1.0000000E+00
 11  1  4  4   0   0 -2.3549522E+02 -1.6880220E+02  1.0928876E+02  3.0967114E+02  5.8156542E-06  0.0000000E+00  1.0000000E+00
-13  1  5  5   0   0  2.0812403E+02  1.5329975E+02 -1.7498594E+02  3.1214821E+02  5.3947966E-06  0.0000000E+00  1.0000000E+00
 13  1  5  5   0   0  1.7080011E+02  5.0034256E+01 -1.7930066E+02  2.5263577E+02  6.6072495E-06  0.0000000E+00  1.0000000E+00
</event>
<event>
9 100 1.0000000E+00 1.0000000E+03 7.8125000E-03 0.0000000E+00
 21 -1  0  0 501 502  0.0000000E+00  0.0000000E+00  1.9592138E+03  1.9592138E+03  0.0000000E+00  0.0000000E+00  1.0000000E+00
 21 -1  0  0 502 501  0.0000000E+00  0.0000000E+00 -1.2585901E+02  1.2585901E+02  0.0000000E+00  0.0000000E+00  1.0000000E+00
 39  2  1  2   0   0 -9.0949470E-12  5.7411853E-12  1.8333548E+03  2.0850728E+03  9.9314595E+02  0.0000000E+00  1.0000000E+00
 23  2  3  3   0   0  2.2888914E+02 -1.4548253E+02  6.4544226E+01  2.9308490E+02  9.0428950E+01  0.0000000E+00  1.0000000E+00
 23  2  3  3   0   0 -2.2888914E+02  1.4548253E+02  1.7688106E+03  1.7919879E+03  9.4733748E+01  0.0000000E+00  1.0000000E+00
-11  1  4  4   0   0  9.8630413E+01 -7.3900054E+01  7.4684926E+01  1.4410765E+02  2.8808227E-06  0.0000000E+00  1.0000000E+00
 11  1  4  4   0   0  1.3025873E+02 -7.1582478E+01 -1.0140699E+01  1.4897725E+02  1.3486992E-06  0.0000000E+00  1.0000000E+00
-13  1  5  5   0   0 -7.3560412E+01  5.8482866E+01  3.6375959E+02  3.7570256E+02  6.2913599E-05  0.0000000E+00  1.0000000E+00
 13  1  5  5   0   0 -1.5532873E+02  8.6999666E+01  1.4050510E+03  1.4162854E+03  1.4273290E-05  0.0000000E+00  1.0000000E+00
</event>
<event>
9 100 1.0000000E+00 1.0000000E+03 7.8125000E-03 0.0000000E+00
 21 -1  0  0 501 502  0.0000000E+00  0.0000000E+00  3.3765130E+02  3.3765130E+02  0.0000000E+00  0.0000000E+00  1.0000000E+00
 21 -1  0  0 502 501  0.0000000E+00  0.0000000E+00 -7.1052442E+02  7.1052442E+02  0.0000000E+00  0.0000000E+00  1.0000000E+00
 39  2  1  2   0   0 -2.3874236E-12 -1.9326762E-12 -3.7287312E+02  1.0481757E+03  9.7961114E+02  0.0000000E+00  1.0000000E+00
 23  2  3  3   0   0 -3.5158870E+02 -2.7421990E+02 -3.6349830E+02  5.8246652E+02  9.1241781E+01  0.0000000E+00  1.0000000E+00
 23  2  3  3   0   0  3.5158870E+02  2.7421990E+02 -9.3748150E+00  4.6570920E+02  1.3411191E+02  0.0000000E+00  1.0000000E+00
-11  1  4  4   0   0 -2.1439727E+02 -1.2044251E+02 -1.6357762E+02  2.9534763E+02  6.0315660E-06  0.0000000E+00  1.0000000E+00
 11  1  4  4   0   0 -1.3719143E+02 -1.5377740E+02 -1.9992069E+02  2.8711889E+02  5.7220459E-06  0.0000000E+00  1.0000000E+00
-13  1  5  5   0   0  6.1016758E+01  1.1851999E+02 -2.5226089E+01  1.3567015E+02  2.5892302E-05  0.0000000E+00  1.0000000E+00
 13  1  5  5   0   0  2.9057194E+02  1.5569991E+02  1.5851274E+01  3.3003906E+02  1.3675337E-05  0.0000000E+00  1.0000000E+00
</event>
<event>
9 100 1.0000000E+00 1.0000000E+03 7.8125000E-03 0.0000000E+00
 21 -1  0  0 501 502  0.0000000E+00  0.0000000E+00  4.5161954E+02  4.5161954E+02  0.0000000E+00  0.0000000E+00  1.0000000E+00
 21 -1  0  0 502 501  0.0000000E+00  0.0000000E+00 -5.5513329E+02  5.5513329E+02  0.0000000E+00  0.0000000E+00  1.0000000E+00
 39  2  1  2   0   0 -6.2527761E-13 -1.3500312E-13 -1.0351374E+02  1.0067528E+03  1.0014171E+03  0.0000000E+00  1.0000000E+00
 23  2  3  3   0   0 -2.0177484E+02 -3.7876958E+01  3.9802257E+02  4.5718533E+02  9.1916882E+01  0.0000000E+00  1.0000000E+00
 23  2  3  3   0   0  2.0177484E+02  3.7876958E+01 -5.0153631E+02  5.4956750E+02  9.1312736E+01  0.0000000E+00  1.0000000E+00
-11  1  4  4   0   0 -1.7952776E+02 -5.9604921E+01  3.0296543E+02  3.5717085E+02  3.8146973E-06  0.0000000E+00  1.0000000E+00
 11  1  4  4   0   0 -2.2247071E+01  2.1727963E+01  9.5057141E+01  1.0001448E+02  1.3754087E-05  0.0000000E+00  1.0000000E+00
-13  1  5  5   0   0  6.5014026E+01  5.7145714E+01 -1.8968377E+02  2.0850034E+02  8.5299224E-06  0.0000000E+00  1.0000000E+00
 13  1  5  5   0   0  1.3676081E+02 -1.9268756E+01 -3.1185254E+02  3.4106716E+02  4.6720309E-06  0.0000000E+00  1.0000000E+00
</event>
<event>
9 100 1.0000000E+00 1.0000000E+03 7.8125000E-03 0.0000000E+00
 21 -1  0  0 501 502  0.0000000E+00  0.0000000E+00  4.2722047E+02  4.2722047E+02  0.0000000E+00  0.0000000E+00  1.0000000E+00
 21 -1  0  0 502 501  0.0000000E+00  0.0000000E+00 -5.7640032E+02  5.7640032E+02  0.0000000E+00  0.0000000E+00  1.0000000E+00
 39  2  1  2   0   0 -7.6738615E-13 -1.8189894E-12 -1.4917985E+02  1.0036208E+03  9.9247169E+02  0.0000000E+00  1.0000000E+00
 23  2  3  3   0   0  1.7815257E+02  4.1346613E+02 -2.6416093E+02  5.2991009E+02  9.1274987E+01  0.0000000E+00  1.0000000E+00
 23  2  3  3   0   0 -1.7815257E+02 -4.1346613E+02  1.1498108E+02  4.7371070E+02  9.2133582E+01  0.0000000E+00  1.0000000E+00
-11  1  4  4   0   0  1.2611465E+00  8.6442392E+01 -3.5734635E+01  9.3545933E+01  1.1121658E-05  0.0000000E+00  1.0000000E+00
 11  1  4  4   0   0  1.7689142E+02  3.2702374E+02 -2.2842630E+02  4.3636415E+02  6.7434958E-07  0.0000000E+00  1.0000000E+00
-13  1  5  5   0   0 -1.5863848E+02 -4.0476201E+02  1.2145088E+02  4.5138538E+02  1.6126334E-06  0.0000000E+00  1.0000000E+00
 13  1  5  5   0   0 -1.9514088E+01 -8.7041263E+00 -6.4697956E+00  2.2325315E+01  1.1444092E-05  0.0000000E+00  1.0000000E+00
</event>
<event>
9 100 1.0000000E+00 1.0000000E+03 7.8125000E-03 0.0000000E+00
 21 -1  0  0 501 502  0.0000000E+00  0.0000000E+00  1.7809743E+03  1.7809743E+03  0.0000000E+00  0.0000000E+00  1.0000000E+00
 21 -1  0  0 502 501  0.0000000E+00  0.0000000E+00 -1.3356966E+02  1.3356966E+02  0.0000000E+00  0.0000000E+00  1.0000000E+00
 39  2  1  2   0   0  1.3642421E-12 -3.3306691E-14  1.6474047E+03  1.9145440E+03  9.7546736E+02  0.0000000E+00  1.0000000E+00
 23  2  3  3   0   0 -1.5863338E+02  3.0149934E+00 -6.2922473E+01  1.9368371E+02  9.1545074E+01  0.0000000E+00  1.0000000E+00
 23  2  3  3   0   0  1.5863338E+02 -3.0149934E+00  1.7103271E+03  1.7208603E+03  1.0472614E+02  0.0000000E+00  1.0000000E+00
-11  1  4  4   0   0 -7.4603244E+01  3.6231004E+01 -6.1612826E+01  1.0331733E+02  6.9488478E-06  0.0000000E+00  1.0000000E+00
 11  1  4  4   0   0 -8.4030137E+01 -3.3216011E+01 -1.3096470E+00  9.0366379E+01  8.0640481E-06  0.0000000E+00  1.0000000E+00
-13  1  5  5   0   0  3.5141860E+01 -7.1246907E-01  1.0374988E+02  1.0954221E+02  6.4737559E-05  0.0000000E+00  1.0000000E+00
 13  1  5  5   0   0  1.2349152E+02 -2.3025244E+00  1.6065773E+03  1.6113181E+03  7.9790118E-06  0.0000000E+00  1.0000000E+00
</event>
<event>
9 100 1.0000000E+00 1.0000000E+03 7.8125000E-03 0.0000000E+00
 21 -1  0  0 501 502  0.0000000E+00  0.0000000E+00  9.8244971E+02  9.8244971E+02  0.0000000E+00  0.0000000E+00  1.0000000E+00
 21 -1  0  0 502 501  0.0000000E+00  0.0000000E+00 -2.5666124E+02  2.5666124E+02  0.0000000E+00  0.0000000E+00  1.0000000E+00
 39  2  1  2   0   0  2.3874236E-12 -4.1211479E-13  7.2578847E+02  1.2391110E+03  1.0043043E+03  0.0000000E+00  1.0000000E+00
 23  2  3  3   0   0 -4.5043496E+02  8.3378588E+01  1.3528158E+02  4.8611500E+02  9.0349600E+01  0.0000000E+00  1.0000000E+00
 23  2  3  3   0   0  4.5043496E+02 -8.3378588E+01  5.9050688E+02  7.5299595E+02  9.1983061E+01  0.0000000E+00  1.0000000E+00
-11  1  4  4   0   0 -3.0745802E+02  3.8937992E+01  1.3062709E+02  3.3631835E+02  8.8174592E-06  0.0000000E+00  1.0000000E+00
 11  1  4  4   0   0 -1.4297694E+02  4.4440596E+01  4.6544986E+00  1.4979665E+02  1.3621194E-05  0.0000000E+00  1.0000000E+00
-13  1  5  5   0   0  2.0413184E+02 -7.2250735E+01  2.2657710E+02  3.1341213E+02  1.3214499E-05  0.0000000E+00  1.0000000E+00
 13  1  5  5   0   0  2.4630311E+02 -1.1127853E+01  3.6392978E+02  4.3958382E+02  9.7256079E-06  0.0000000E+00  1.0000000E+00
</event>
<event>
9 100 1.0000000E+00 1.0000000E+03 7.8125000E-03 0.0000000E+00
 21 -1  0  0 501 502  0.0000000E+00  0.0000000E+00  6.9959603E+02  6.9959603E+02  0.0000000E+00  0.0000000E+00  1.0000000E+00
 21 -1  0  0 502 501  0.0000000E+00  0.0000000E+00 -3.5634810E+02  3.5634810E+02  0.0000000E+00  0.0000000E+00  1.0000000E+00
 39  2  1  2   0   0  1.5916157E-12 -8.2422957E-13  3.4324793E+02  1.0559441E+03  9.9859845E+02  0.0000000E+00  1.0000000E+00
 23  2  3  3   0   0 -4.1912853E+02  2.2168220E+02  3.5328623E+01  4.8332376E+02  8.6844781E+01  0.0000000E+00  1.0000000E+00
 23  2  3  3   0   0  4.1912853E+02 -2.2168220E+02  3.0791931E+02  5.7262037E+02  9.0928882E+01  0.0000000E+00  1.0000000E+00
-11  1  4  4   0   0 -7.0807563E+00  6.8830264E+00  1.5310286E+01  1.8218618E+01  5.5659378E-06  0.0000000E+00  1.0000000E+00
 11  1  4  4   0   0 -4.1204778E+02  2.1479918E+02  2.0018337E+01  4.6510514E+02  4.1295309E-07  0.0000000E+00  1.0000000E+00
-13  1  5  5   0   0  4.0704390E+02 -1.9177371E+02  2.9397000E+02  5.3747581E+02  2.1324806E-06  0.0000000E+00  1.0000000E+00
 13  1  5  5   0   0  1.2084632E+01 -2.9908497E+01  1.3949311E+01  3.5144556E+01  9.3440618E-06  0.0000000E+00  1.0000000E+00
</event>
<event>
9 100 1.0000000E+00 1.0000000E+03 7.8125000E-03 0.0000000E+00
 21 -1  0  0 501 502  0.0000000E+00  0.0000000E+00  1.2934709E+03  1.2934709E+03  0.0000000E+00  0.0000000E+00  1.0000000E+00
 21 -1  0  0 502 501  0.0000000E+00  0.0000000E+00 -1.9144443E+02  1.9144443E+02  0.0000000E+00  0.0000000E+00  1.0000000E+00
 39  2  1  2   0   0  5.7411853E-12  5.3432814E-12  1.1020264E+03  1.4849153E+03  9.9524427E+02  0.0000000E+00  1.0000000E+00
 23  2  3  3   0   0 -3.1965104E+02 -2.9415980E+02  2.1719757E+02  4.9478730E+02  9.4514077E+01  0.0000000E+00  1.0000000E+00
 23  2  3  3   0   0  3.1965104E+02  2.9415980E+02  8.8482888E+02  9.9012800E+02  9.3405260E+01  0.0000000E+00  1.0000000E+00
-11  1  4  4   0   0 -6.1819670E+00  2.0005770E+00  1.9180364E+01  2.0251059E+01  1.5495374E-05  0.0000000E+00  1.0000000E+00
 11  1  4  4   0   0 -3.1346907E+02 -2.9616038E+02  1.9801721E+02  4.7453624E+02  1.7520116E-06  0.0000000E+00  1.0000000E+00
-13  1  5  5   0   0  7.9993274E+01  8.4547004E+01  1.5468659E+02  1.9358476E+02  0.0000000E+00  0.0000000E+00  1.0000000E+00
 13  1  5  5   0   0  2.3965777E+02  2.0961280E+02  7.3014229E+02  7.9654324E+02  5.3947966E-06  0.0000000E+00  1.0000000E+00
</event>
<event>
9 100 1.0000000E+00 1.0000000E+03 7.8125000E-03 0.0000000E+00
 21 -1  0  0 501 502  0.0000000E+00  0.0000000E+00  6.7457950E+02  6.7457950E+02  0.0000000E+00  0.0000000E+00  1.0000000E+00
 21 -1  0  0 502 501  0.0000000E+00  0.0000000E+00 -2.8241696E+02  2.8241696E+02  0.0000000E+00  0.0000000E+00  1.0000000E+00
 39  2  1  2   0   0 -1.6342483E-13  7.3896445E-13  3.9216254E+02  9.5699646E+02  8.7295520E+02  0.0000000E+00  1.0000000E+00
 23  2  3  3   0   0 -4.2754748E+01  1.6119717E+02  5.7553495E+02  6.9310044E+02  3.4833208E+02  0.0000000E+00  1.0000000E+00
 23  2  3  3   0   0  4.2754748E+01 -1.6119717E+02 -1.8337242E+02  2.6389602E+02  9.0571371E+01  0.0000000E+00  1.0000000E+00
-11  1  4  4   0   0  4.9545615E+01  1.7290852E+01  5.0571429E+02  5.0842962E+02  2.2967519E-05  0.0000000E+00  1.0000000E+00
 11  1  4  4   0   0 -9.2300363E+01  1.4390631E+02  6.9820666E+01  1.8467081E+02  2.2243316E-05  0.0000000E+00  1.0000000E+00
-13  1  5  5   0   0  3.1334817E+01 -1.5180304E+02 -1.9201311E+02  2.4676926E+02  2.1981107E-06  0.0000000E+00  1.0000000E+00
 13  1  5  5   0   0  1.1419932E+01 -9.3941235E+00  8.6406926E+00  1.7126762E+01  1.3214499E-05  0.0000000E+00  1.0000000E+00
</event>
<event>
9 100 1.0000000E+00 1.0000000E+03 7.8125000E-03 0.0000000E+00
 21 -1  0  0 501 502  0.0000000E+00  0.0000000E+00  3.4248068E+02  3.4248068E+02  0.0000000E+00  0.0000000E+00  1.0000000E+00
 21 -1  0  0 502 501  0.0000000E+00  0.0000000E+00 -7.1742729E+02  7.1742729E+02  0.0000000E+00  0.0000000E+00  1.0000000E+00
 39  2  1  2   0   0  3.6948222E-13  8.5265128E-14 -3.7494662E+02  1.0599080E+03  9.9137276E+02  0.0000000E+00  1.0000000E+00
 23  2  3  3   0   0 -1.3984034E+02 -3.8361913E+01 -6.8486009E+02  7.0593364E+02  9.1005560E+01  0.0000000E+00  1.0000000E+00
 23  2  3  3   0   0  1.3984034E+02  3.8361913E+01  3.0991347E+02  3.5397433E+02  9.0689072E+01  0.0000000E+00  1.0000000E+00
-11  1  4  4   0   0 -1.4357346E+02 -1.8972945E+01 -6.4934697E+02  6.6530053E+02  8.2590618E-07  0.0000000E+00  1.0000000E+00
 11  1  4  4   0   0  3.7331162E+00 -1.9388968E+01 -3.5513117E+01  4.0633111E+01  7.6293945E-06  0.0000000E+00  1.0000000E+00
-13  1  5  5   0   0  6.4493233E+01 -1.6081584E+01  6.9276303E+01  9.6006253E+01  6.6072495E-06  0.0000000E+00  1.0000000E+00
 13  1  5  5   0   0  7.5347110E+01  5.4443497E+01  2.4063717E+02  2.5796808E+02  1.9073486E-06  0.0000000E+00  1.0000000E+00
</event>
<event>
9 100 1.0000000E+00 1.0000000E+03 7.8125000E-03 0.0000000E+00
 21 -1  0  0 501 502  0.0000000E+00  0.0000000E+00  5.9174710E+02  5.9174710E+02  0.0000000E+00  0.0000000E+00  1.0000000E+00
 21 -1  0  0 502 501  0.0000000E+00  0.0000000E+00 -4.2301367E+02  4.2301367E+02  0.0000000E+00  0.0000000E+00  1.0000000E+00
 39  2  1  2   0   0  5.6843419E-14 -1.1368684E-13  1.6873343E+02  1.0147608E+03  1.0006340E+03  0.0000000E+00  1.0000000E+00
 23  2  3  3   0   0  3.4936421E+02 -2.6970948E+02  3.0295939E+02  5.4410391E+02  9.7293995E+01  0.0000000E+00  1.0000000E+00
 23  2  3  3   0   0 -3.4936421E+02  2.6970948E+02 -1.3422596E+02  4.7065686E+02  9.3288359E+01  0.0000000E+00  1.0000000E+00
-11  1  4  4   0   0  2.6325729E+02 -2.2791182E+02  1.9224655E+02  3.9775235E+02  5.0463701E-06  0.0000000E+00  1.0000000E+00
 11  1  4  4   0   0  8.6106920E+01 -4.1797655E+01  1.1071284E+02  1.4635156E+02  6.0315660E-06  0.0000000E+00  1.0000000E+00
-13  1  5  5   0   0 -2.3662203E+02  2.2474234E+02 -1.2302955E+02  3.4876263E+02  6.8770433E-06  0.0000000E+00  1.0000000E+00
 13  1  5  5   0   0 -1.1274218E+02  4.4967135E+01 -1.1196408E+01  1.2189422E+02  1.3145493E-05  0.0000000E+00  1.0000000E+00
</event>
<event>
9 100 1.0000000E+00 1.0000000E+03 7.8125000E-03 0.0000000E+00
 21 -1  0  0 501 502  0.0000000E+00  0.0000000E+00  7.4355309E+02  7.4355309E+02  0.0000000E+00  0.0000000E+00  1.0000000E+00
 21 -1  0  0 502 501  0.0000000E+00  0.0000000E+00 -3.3969804E+02  3.3969804E+02  0.0000000E+00  0.0000000E+00  1.0000000E+00
 39  2  1  2   0   0  1.1084467E-12  3.3537617E-12  4.0385505E+02  1.0832511E+03  1.0051538E+03  0.0000000E+00  1.0000000E+00
 23  2  3  3   0   0  1.3442320E+02  3.9989856E+02 -7.5648921E+01  4.3808004E+02  9.0569891E+01  0.0000000E+00  1.0000000E+00
 23  2  3  3   0   0 -1.3442320E+02 -3.9989856E+02  4.7950397E+02  6.4517109E+02  9.1286514E+01  0.0000000E+00  1.0000000E+00
-11  1  4  4   0   0  3.7686639E+01  1.1460107E+02 -6.4091268E+01  1.3660665E+02  1.2101945E-05  0.0000000E+00  1.0000000E+00
 11  1  4  4   0   0  9.6736556E+01  2.8529749E+02 -1.1557654E+01  3.0147338E+02  5.9556942E-06  0.0000000E+00  1.0000000E+00
-13  1  5  5   0   0 -2.1363190E+01 -4.1067275E+01  1.0294909E+02  1.1287791E+02  2.0185481E-05  0.0000000E+00  1.0000000E+00
 13  1  5  5   0   0 -1.1306001E+02 -3.5883128E+02  3.7655488E+02  5.3229318E+02  6.4681339E-06  0.0000000E+00  1.0000000E+00
</event>
<event>
9 100 1.0000000E+00 1.0000000E+03 7.8125000E-03 0.0000000E+00
 21 -1  0  0 501 502  0.0000000E+00  0.0000000E+00  8.2840001E+02  8.2840001E+02  0.0000000E+00  0.0000000E+00  1.0000000E+00
 21 -1  0  0 502 501  0.0000000E+00  0.0000000E+00 -3.3043098E+02  3.3043098E+02  0.0000000E+00  0.0000000E+00  1.0000000E+00
 39  2  1  2   0   0  2.1316282E-13 -8.5265128E-13  4.9796903E+02  1.1588310E+03  1.0463824E+03  0.0000000E+00  1.0000000E+00
 23  2  3  3   0   0  1.1071536E+02 -4.5023965E+02  4.9874032E+02  6.8627683E+02  8.5207702E+01  0.0000000E+00  1.0000000E+00
 23  2  3  3   0   0 -1.1071536E+02  4.5023965E+02 -7.7128256E-01  4.7255416E+02  9.1286390E+01  0.0000000E+00  1.0000000E+00
-11  1  4  4   0   0  1.2380676E+02 -3.7763523E+02  4.1269959E+02  5.7293755E+02  7.3253114E-06  0.0000000E+00  1.0000000E+00
 11  1  4  4   0   0 -1.3091404E+01 -7.2604419E+01  8.6040726E+01  1.1333928E+02  2.6973983E-05  0.0000000E+00  1.0000000E+00
-13  1  5  5   0   0 -3.7934430E+01  2.0522358E+02  4.3408856E+01  2.1316676E+02  1.6212463E-05  0.0000000E+00  1.0000000E+00
 13  1  5  5   0   0 -7.2780926E+01  2.4501607E+02 -4.4180139E+01  2.5938740E+02  1.2759293E-05  0.0000000E+00  1.0000000E+00
</event>
<event>
9 100 1.0000000E+00 1.0000000E+03 7.8125000E-03 0.0000000E+00
 21 -1  0  0 501 502  0.0000000E+00  0.0000000E+00  4.1480293E+02  4.1480293E+02  0.0000000E+00  0.0000000E+00  1.0000000E+00
 21 -1  0  0 502 501  0.0000000E+00  0.0000000E+00 -6.0321626E+02  6.0321626E+02  0.0000000E+00  0.0000000E+00  1.0000000E+00
 39  2  1  2   0   0 -2.4158453E-13  1.3073986E-12 -1.8841334E+02  1.0180192E+03  1.0004317E+03  0.0000000E+00  1.0000000E+00
 23  2  3  3   0   0  1.0378097E+02 -4.7116884E+02 -1.9544540E+02  5.2675979E+02  8.0662270E+01  0.0000000E+00  1.0000000E+00
 23  2  3  3   0   0 -1.0378097E+02  4.7116884E+02  7.0320601E+00  4.9125940E+02  9.2281013E+01  0.0000000E+00  1.0000000E+00
-11  1  4  4   0   0  8.3455479E+01 -4.5500006E+02 -1.9070694E+02  5.0035887E+02  1.7861514E-06  0.0000000E+00  1.0000000E+00
 11  1  4  4   0   0  2.0325488E+01 -1.6168787E+01 -4.7384620E+00  2.6400912E+01  1.6407633E-05  0.0000000E+00  1.0000000E+00
-13  1  5  5   0   0 -1.6285695E+01  2.8429420E+02  9.1024978E+00  2.8490573E+02  9.1208741E-06  0.0000000E+00  1.0000000E+00
 13  1  5  5   0   0 -8.7495272E+01  1.8687464E+02 -2.0704377E+00  2.0635368E+02  8.8230982E-06  0.0000000E+00  1.0000000E+00
</event>
<event>
9 100 1.0000000E+00 1.0000000E+03 7.8125000E-03 0.0000000E+00
 21 -1  0  0 501 502  0.0000000E+00  0.0000000E+00  4.9626324E+02  4.9626324E+02  0.0000000E+00  0.0000000E+00  1.0000000E+00
 21 -1  0  0 502 501  0.0000000E+00  0.0000000E+00 -5.0113504E+02  5.0113504E+02  0.0000000E+00  0.0000000E+00  1.0000000E+00
 39  2  1  2   0   0  1.4210855E-13 -3.9790393E-13 -4.8718027E+00  9.9739828E+02  9.9738638E+02  0.0000000E+00  1.0000000E+00
 23  2  3  3   0   0  1.0714058E+02 -2.6282253E+02 -4.0185607E+02  5.0040297E+02  9.1433263E+01  0.0000000E+00  1.0000000E+00
 23  2  3  3   0   0 -1.0714058E+02  2.6282253E+02  3.9698427E+02  4.9699531E+02  9.4090603E+01  0.0000000E+00  1.0000000E+00
-11  1  4  4   0   0  1.2368458E+02 -2.3990555E+02 -3.6489920E+02  4.5387660E+02  2.3360155E-06  0.0000000E+00  1.0000000E+00
 11  1  4  4   0   0 -1.6544000E+01 -2.2916986E+01 -3.6956870E+01  4.6526362E+01  7.6293945E-06  0.0000000E+00  1.0000000E+00
-13  1  5  5   0   0  1.6499446E+01  4.9387423E+01  6.1271329E+01  8.0408488E+01  1.1444092E-05  0.0000000E+00  1.0000000E+00
 13  1  5  5   0   0 -1.2364003E+02  2.1343511E+02  3.3571294E+02  4.1658682E+02  2.5231851E-06  0.0000000E+00  1.0000000E+00
</event>
<event>
9 100 1.0000000E+00 1.0000000E+03 7.8125000E-03 0.0000000E+00
 21 -1  0  0 501 502  0.0000000E+00  0.0000000E+00  9.8345232E+01  9.8345232E+01  0.0000000E+00  0.0000000E+00  1.0000000E+00
 21 -1  0  0 502 501  0.0000000E+00  0.0000000E+00 -2.5390885E+03  2.5390885E+03  0.0000000E+00  0.0000000E+00  1.0000000E+00
 39  2  1  2   0   0  2.3874236E-12 -1.1723955E-13 -2.4407433E+03  2.6374337E+03  9.9941432E+02  0.0000000E+00  1.0000000E+00
 23  2  3  3   0   0  4.7277664E+02 -2.5223864E+01 -1.5643741E+03  1.6370592E+03  9.2425544E+01  0.0000000E+00  1.0000000E+00
 23  2  3  3   0   0 -4.7277664E+02  2.5223864E+01 -8.7636916E+02  1.0003745E+03  9.2586751E+01  0.0000000E+00  1.0000000E+00
-11  1  4  4   0   0  2.9603235E+02 -6.0241940E+01 -9.9648178E+02  1.0412685E+03  2.5303839E-05  0.0000000E+00  1.0000000E+00
 11  1  4  4   0   0  1.7674429E+02  3.5018076E+01 -5.6789233E+02  5.9579066E+02  4.0370961E-05  0.0000000E+00  1.0000000E+00
-13  1  5  5   0   0 -8.0905249E+01  3.9285861E+01 -1.4896530E+02  1.7401063E+02  3.5785032E-05  0.0000000E+00  1.0000000E+00
 13  1  5  5   0   0 -3.9187139E+02 -1.4061997E+01 -7.2740386E+02  8.2636391E+02  6.8770433E-06  0.0000000E+00  1.0000000E+00
</event>
<event>
9 100 1.0000000E+00 1.0000000E+03 7.8125000E-03 0.0000000E+00
 21 -1  0  0 501 502  0.0000000E+00  0.0000000E+00  3.3276770E+02  3.3276770E+02  0.0000000E+00  0.0000000E+00  1.0000000E+00
 21 -1  0  0 502 501  0.0000000E+00  0.0000000E+00 -7.5875488E+02  7.5875488E+02  0.0000000E+00  0.0000000E+00  1.0000000E+00
 39  2  1  2   0   0 -1.1368684E-13 -1.7053026E-13 -4.2598718E+02  1.0915226E+03  1.0049659E+03  0.0000000E+00  1.0000000E+00
 23  2  3  3   0   0 -2.5882647E+02 -3.2412607E+02  8.3993786E+01  4.2792356E+02  6.3362185E+01  0.0000000E+00  1.0000000E+00
 23  2  3  3   0   0  2.5882647E+02  3.2412607E+02 -5.0998097E+02  6.6359903E+02  9.0742663E+01  0.0000000E+00  1.0000000E+00
-11  1  4  4   0   0 -1.6860501E+02 -1.8229977E+02  7.5821703E+01  2.5963394E+02  2.2806080E-06  0.0000000E+00  1.0000000E+00
 11  1  4  4   0   0 -9.0221463E+01 -1.4182630E+02  8.1720833E+00  1.6828962E+02  3.1629799E-06  0.0000000E+00  1.0000000E+00
-13  1  5  5   0   0  1.7879716E+02  1.5168384E+02 -2.7849624E+02  3.6405572E+02  3.8146973E-06  0.0000000E+00  1.0000000E+00
 13  1  5  5   0   0  8.0029304E+01  1.7244223E+02 -2.3148473E+02  2.9954330E+02  0.0000000E+00  0.0000000E+00  1.0000000E+00
</event>
<event>
9 100 1.0000000E+00 1.0000000E+03 7.8125000E-03 0.0000000E+00
 21 -1  0  0 501 502  0.0000000E+00  0.0000000E+00  7.6405441E+02  7.6405441E+02  0.0000000E+00  0.0000000E+00  1.0000000E+00
 21 -1  0  0 502 501  0.0000000E+00  0.0000000E+00 -3.2737042E+02  3.2737042E+02  0.0000000E+00  0.0000000E+00  1.0000000E+00
 39  2  1  2   0   0 -3.4106051E-13 -7.3896445E-13  4.3668399E+02  1.0914248E+03  1.0002576E+03  0.0000000E+00  1.0000000E+00
 23  2  3  3   0   0  1.4664688E+02  3.4143506E+02  5.6973538E+02  6.8621493E+02  9.0605272E+01  0.0000000E+00  1.0000000E+00
 23  2  3  3   0   0 -1.4664688E+02 -3.4143506E+02 -1.3305140E+02  4.0520990E+02  9.1701592E+01  0.0000000E+00  1.0000000E+00
-11  1  4  4   0   0 -5.7767134E+00  7.4738825E+01  1.2355839E+02  1.4451968E+02  7.6293945E-06  0.0000000E+00  1.0000000E+00
 11  1  4  4   0   0  1.5242359E+02  2.6669623E+02  4.4617700E+02  5.4169525E+02  4.2649612E-06  0.0000000E+00  1.0000000E+00
-13  1  5  5   0   0 -5.7082873E+01 -1.5246573E+02 -1.0618923E+02  1.9437183E+02  7.3871295E-06  0.0000000E+00  1.0000000E+00
 13  1  5  5   0   0 -8.9564007E+01 -1.8896932E+02 -2.6862167E+01  2.1083807E+02  4.2649612E-06  0.0000000E+00  1.0000000E+00
</event>
<event>
9 100 1.0000000E+00 1.0000000E+03 7.8125000E-03 0.0000000E+00
 21 -1  0  0 501 502  0.0000000E+00  0.0000000E+00  3.8705247E+02  3.8705247E+02  0.0000000E+00  0.0000000E+00  1.0000000E+00
 21 -1  0  0 502 501  0.0000000E+00  0.0000000E+00 -6.4108845E+02  6.4108845E+02  0.0000000E+00  0.0000000E+00  1.0000000E+00
 39  2  1  2   0   0 -1.0231815E-12  5.9685590E-13 -2.5403598E+02  1.0281409E+03  9.9626276E+02  0.0000000E+00  1.0000000E+00
 23  2  3  3   0   0  4.0897306E+02 -2.4777369E+02 -1.5348144E+01  4.8735880E+02  9.2910011E+01  0.0000000E+00  1.0000000E+00
 23  2  3  3   0   0 -4.0897306E+02  2.4777369E+02 -2.3868784E+02  5.4078212E+02  8.2599350E+01  0.0000000E+00  1.0000000E+00
-11  1  4  4   0   0  3.9652909E+02 -2.5152171E+02 -3.2215778E+00  4.6958372E+02  1.5266238E-06  0.0000000E+00  1.0000000E+00
 11  1  4  4   0   0  1.2443972E+01  3.7480175E+00 -1.2126566E+01  1.7775086E+01  1.0455222E-05  0.0000000E+00  1.0000000E+00
-13  1  5  5   0   0 -9.3818656E+01  3.0283669E+01 -2.2749594E+01  1.0117601E+02  9.3440618E-06  0.0000000E+00  1.0000000E+00
 13  1  5  5   0   0 -3.1515440E+02  2.1749003E+02 -2.1593824E+02  4.3960611E+02  4.0601221E-06  0.0000000E+00  1.0000000E+00
</event>
<event>
9 100 1.0000000E+00 1.0000000E+03 7.8125000E-03 0.0000000E+00
 21 -1  0  0 501 502  0.0000000E+00  0.0000000E+00  7.1529512E+02  7.1529512E+02  0.0000000E+00  0.0000000E+00  1.0000000E+00
 21 -1  0  0 502 501  0.0000000E+00  0.0000000E+00 -3.5002288E+02  3.5002288E+02  0.0000000E+00  0.0000000E+00  1.0000000E+00
 39  2  1  2   0   0  2.8421709E-14 -2.8421709E-14  3.6527224E+02  1.0653180E+03  1.0007390E+03  0.0000000E+00  1.0000000E+00
 23  2  3  3   0   0  1.6510443E+02 -7.5374982E+01  6.6924532E+02  6.9924982E+02  9.0111883E+01  0.0000000E+00  1.0000000E+00
 23  2  3  3   0   0 -1.6510443E+02  7.5374982E+01 -3.0397308E+02  3.6606817E+02  9.3088214E+01  0.0000000E+00  1.0000000E+00
-11  1  4  4   0   0  4.9738700E+01  1.0699034E+01  2.7233108E+02  2.7704264E+02  7.6293945E-06  0.0000000E+00  1.0000000E+00
 11  1  4  4   0   0  1.1536573E+02 -8.6074016E+01  3.9691423E+02  4.2220718E+02  6.6072495E-06  0.0000000E+00  1.0000000E+00
-13  1  5  5   0   0 -5.5779284E+01  4.7196623E+00 -3.1827901E+01  6.4394247E+01  1.0092740E-05  0.0000000E+00  1.0000000E+00
 13  1  5  5   0   0 -1.0932515E+02  7.0655320E+01 -2.7214517E+02  3.0167393E+02  3.6000416E-06  0.0000000E+00  1.0000000E+00
</event>
<event>
9 100 1.0000000E+00 1.0000000E+03 7.8125000E-03 0.0000000E+00
 21 -1  0  0 501 502  0.0000000E+00  0.0000000E+00  3.1536782E+02  3.1536782E+02  0.0000000E+00  0.0000000E+00  1.0000000E+00
 21 -1  0  0 502 501  0.0000000E+00  0.0000000E+00 -7.8887697E+02  7.8887697E+02  0.0000000E+00  0.0000000E+00  1.0000000E+00
 39  2  1  2   0   0 -8.5265128E-14  1.7053026E-13 -4.7350916E+02  1.1042448E+03  9.9756986E+02  0.0000000E+00  1.0000000E+00
 23  2  3  3   0   0 -1.1103752E+02  2.3836898E+02  2.2092440E+02  3.5580927E+02  9.2970673E+01  0.0000000E+00  1.0000000E+00
 23  2  3  3   0   0  1.1103752E+02 -2.3836898E+02 -6.9443355E+02  7.4843552E+02  9.3641155E+01  0.0000000E+00  1.0000000E+00
-11  1  4  4   0   0 -6.8401758E+01  1.9990407E+02  2.0894469E+02  2.9715034E+02  4.3702847E-06  0.0000000E+00  1.0000000E+00
 11  1  4  4   0   0 -4.2635758E+01  3.8464905E+01  1.1979706E+01  5.8658931E+01  1.2936268E-05  0.0000000E+00  1.0000000E+00
-13  1  5  5   0   0  1.0056554E+02 -2.4627464E+02 -6.6156357E+02  7.1304347E+02  0.0000000E+00  0.0000000E+00  1.0000000E+00
 13  1  5  5   0   0  1.0471977E+01  7.9056584E+00 -3.2869980E+01  3.5392051E+01  2.0185481E-05  0.0000000E+00  1.0000000E+00
</event>
<event>
9 100 1.0000000E+00 1.0000000E+03 7.8125000E-03 0.0000000E+00
 21 -1  0  0 501 502  0.0000000E+00  0.0000000E+00  7.9713000E+02  7.9713000E+02  0.0000000E+00  0.0000000E+00  1.0000000E+00
 21 -1  0  0 502 501  0.0000000E+00  0.0000000E+00 -3.5635341E+02  3.5635341E+02  0.0000000E+00  0.0000000E+00  1.0000000E+00
 39  2  1  2   0   0 -5.6843419E-13  1.7053026E-13  4.4077659E+02  1.1534834E+03  1.0659456E+03  0.0000000E+00  1.0000000E+00
 23  2  3  3   0   0 -2.6716626E+02  9.9232480E+01 -2.5562475E+02  3.9542285E+02  9.8946059E+01  0.0000000E+00  1.0000000E+00
 23  2  3  3   0   0  2.6716626E+02 -9.9232480E+01  6.9640134E+02  7.5806056E+02  9.1956993E+01  0.0000000E+00  1.0000000E+00
-11  1  4  4   0   0  7.4418644E-01 -9.7077577E+00 -4.7531379E-01  9.7478355E+00  1.0446979E-05  0.0000000E+00  1.0000000E+00
 11  1  4  4   0   0 -2.6791045E+02  1.0894024E+02 -2.5514943E+02  3.8567502E+02  8.7041151E-07  0.0000000E+00  1.0000000E+00
-13  1  5  5   0   0  2.6460856E+02 -9.3681051E+01  6.1048309E+02  6.7192517E+02  4.0460975E-06  0.0000000E+00  1.0000000E+00
 13  1  5  5   0   0  2.5577070E+00 -5.5514295E+00  8.5918244E+01  8.6135387E+01  1.0789593E-05  0.0000000E+00  1.0000000E+00
</event>
<event>
9 100 1.0000000E+00 1.0000000E+03 7.8125000E-03 0.0000000E+00
 21 -1  0  0 501 502  0.0000000E+00  0.0000000E+00  1.9158822E+03  1.9158822E+03  0.0000000E+00  0.0000000E+00  1.0000000E+00
 21 -1  0  0 502 501  0.0000000E+00  0.0000000E+00 -1.3209996E+02  1.3209996E+02  0.0000000E+00  0.0000000E+00  1.0000000E+00
 39  2  1  2   0   0  1.0267343E-12 -1.1155521E-12  1.7837822E+03  2.0479822E+03  1.0061570E+03  0.0000000E+00  1.0000000E+00
 23  2  3  3   0   0  3.0556424E+01 -3.3355763E+01  1.8945465E+03  1.8987667E+03  1.1816132E+02  0.0000000E+00  1.0000000E+00
 23  2  3  3   0   0 -3.0556424E+01  3.3355763E+01 -1.1076429E+02  1.4921548E+02  8.9164065E+01  0.0000000E+00  1.0000000E+00
-11  1  4  4   0   0 -3.5032109E+01 -2.5367899E+01  3.2958473E+02  3.3241070E+02  6.8239379E-05  0.0000000E+00  1.0000000E+00
 11  1  4  4   0   0  6.5588533E+01 -7.9878646E+00  1.5649618E+03  1.5663560E+03  1.3214499E-05  0.0000000E+00  1.0000000E+00
-13  1  5  5   0   0 -4.7536553E+00  5.4911981E-01  1.5505080E+01  1.6226715E+01  3.5683226E-06  0.0000000E+00  1.0000000E+00
 13  1  5  5   0   0 -2.5802768E+01  3.2806643E+01 -1.2626937E+02  1.3298876E+02  2.3841858E-07  0.0000000E+00  1.0000000E+00
</event>
<event>
9 100 1.0000000E+00 1.0000000E+03 7.8125000E-03 0.0000000E+00
 21 -1  0  0 501 502  0.0000000E+00  0.0000000E+00  1.1450597E+03  1.1450597E+03  0.0000000E+00  0.0000000E+00  1.0000000E+00
 21 -1  0  0 502 501  0.0000000E+00  0.0000000E+00 -2.1730086E+02  2.1730086E+02  0.0000000E+00  0.0000000E+00  1.0000000E+00
 39  2  1  2   0   0  2.3874236E-12  2.1600499E-12  9.2775886E+02  1.3623606E+03  9.9764215E+02  0.0000000E+00  1.0000000E+00
 23  2  3  3   0   0 -3.2294393E+02 -2.7719350E+02  1.4888571E+02  4.5973854E+02  8.9797301E+01  0.0000000E+00  1.0000000E+00
 23  2  3  3   0   0  3.2294393E+02  2.7719350E+02  7.7887315E+02  9.0262205E+02  1.6417722E+02  0.0000000E+00  1.0000000E+00
-11  1  4  4   0   0 -4.8229528E+01 -5.5331020E+00  1.9149592E+01  5.2186295E+01  1.5258789E-05  0.0000000E+00  1.0000000E+00
 11  1  4  4   0   0 -2.7471440E+02 -2.7166039E+02  1.2973611E+02  4.0755224E+02  3.5762787E-06  0.0000000E+00  1.0000000E+00
-13  1  5  5   0   0  3.0470323E+02  2.7999687E+02  7.8118739E+02  8.8402265E+02  1.6702600E-06  0.0000000E+00  1.0000000E+00
 13  1  5  5   0   0  1.8240701E+01 -2.8033706E+00 -2.3142361E+00  1.8599402E+01  3.7376247E-05  0.0000000E+00  1.0000000E+00
</event>
<event>
9 100 1.0000000E+00 1.0000000E+03 7.8125000E-03 0.0000000E+00
 21 -1  0  0 501 502  0.0000000E+00  0.0000000E+00  1.4039629E+02  1.4039629E+02  0.0000000E+00  0.0000000E+00  1.0000000E+00
 21 -1  0  0 502 501  0.0000000E+00  0.0000000E+00 -1.7357058E+03  1.7357058E+03  0.0000000E+00  0.0000000E+00  1.0000000E+00
 39  2  1  2   0   0  4.7180038E-12  1.5631940E-13 -1.5953095E+03  1.8761021E+03  9.8729256E+02  0.0000000E+00  1.0000000E+00
 23  2  3  3   0   0 -3.0528652E+02 -1.0116442E+01 -1.5139525E+03  1.5471281E+03  9.0834649E+01  0.0000000E+00  1.0000000E+00
 23  2  3  3   0   0  3.0528652E+02  1.0116442E+01 -8.1357016E+01  3.2897400E+02  9.1119321E+01  0.0000000E+00  1.0000000E+00
-11  1  4  4   0   0 -2.2225643E+02  1.2244179E+01 -1.2456829E+03  1.2654145E+03  3.8146973E-06  0.0000000E+00  1.0000000E+00
 11  1  4  4   0   0 -8.3030090E+01 -2.2360621E+01 -2.6826958E+02  2.8171361E+02  1.5258789E-05  0.0000000E+00  1.0000000E+00
-13  1  5  5   0   0  2.9558291E+02  4.4420599E+00 -5.5502449E+01  3.0078150E+02  2.2618372E-06  0.0000000E+00  1.0000000E+00
 13  1  5  5   0   0  9.7036067E+00  5.6743817E+00 -2.5854567E+01  2.8192503E+01  1.3720984E-05  0.0000000E+00  1.0000000E+00
</event>
<event>
9 100 1.0000000E+00 1.0000000E+03 7.8125000E-03 0.0000000E+00
 21 -1  0  0 501 502  0.0000000E+00  0.0000000E+00  3.5826433E+02  3.5826433E+02  0.0000000E+00  0.0000000E+00  1.0000000E+00
 21 -1  0  0 502 501  0.0000000E+00  0.0000000E+00 -6.9999306E+02  6.9999306E+02  0.0000000E+00  0.0000000E+00  1.0000000E+00
 39  2  1  2   0   0 -2.0463631E-12 -1.2789769E-12 -3.4172873E+02  1.0582574E+03  1.0015639E+03  0.0000000E+00  1.0000000E+00
 23  2  3  3   0   0 -2.9298519E+02 -1.9063064E+02  1.9583020E+02  4.1085530E+02  9.0951886E+01  0.0000000E+00  1.0000000E+00
 23  2  3  3   0   0  2.9298519E+02  1.9063064E+02 -5.3755894E+02  6.4740208E+02  8.9327905E+01  0.0000000E+00  1.0000000E+00
-11  1  4  4   0   0 -1.5556825E+02 -1.4343640E+02  1.4669010E+02  2.5747518E+02  7.0404163E-06  0.0000000E+00  1.0000000E+00
 11  1  4  4   0   0 -1.3741695E+02 -4.7194244E+01  4.9140102E+01  1.5338013E+02  1.0956884E-05  0.0000000E+00  1.0000000E+00
-13  1  5  5   0   0  2.6905537E+02  1.9085541E+02 -5.2586680E+02  6.2076765E+02  7.5394575E-07  0.0000000E+00  1.0000000E+00
 13  1  5  5   0   0  2.3929823E+01 -2.2476385E-01 -1.1692138E+01  2.6634433E+01  7.6293945E-06  0.0000000E+00  1.0000000E+00
</event>
<event>
9 100 1.0000000E+00 1.0000000E+03 7.8125000E-03 0.0000000E+00
 21 -1  0  0 501 502  0.0000000E+00  0.0000000E+00  1.8577667E+03  1.8577667E+03  0.0000000E+00  0.0000000E+00  1.0000000E+00
 21 -1  0  0 502 501  0.0000000E+00  0.0000000E+00 -1.3734521E+02  1.3734521E+02  0.0000000E+00  0.0000000E+00  1.0000000E+00
 39  2  1  2   0   0  4.0358827E-12  3.6948222E-12  1.7204215E+03  1.9951119E+03  1.0102581E+03  0.0000000E+00  1.0000000E+00
 23  2  3  3   0   0  3.1386840E+02  2.8478012E+02  3.4817903E+02  5.5599371E+02  9.1034464E+01  0.0000000E+00  1.0000000E+00
 23  2  3  3   0   0 -3.1386840E+02 -2.8478012E+02  1.3722424E+03  1.4391182E+03  9.1644715E+01  0.0000000E+00  1.0000000E+00
-11  1  4  4   0   0  7.0820348E+01  1.1085161E+02  1.3778727E+02  1.9049654E+02  8.5299224E-06  0.0000000E+00  1.0000000E+00
 11  1  4  4   0   0  2.4304806E+02  1.7392851E+02  2.1039176E+02  3.6549717E+02  4.6720309E-06  0.0000000E+00  1.0000000E+00
-13  1  5  5   0   0  1.0415864E+00 -1.9949900E+01  1.0057904E+02  1.0254378E+02  2.1579186E-05  0.0000000E+00  1.0000000E+00
 13  1  5  5   0   0 -3.1490999E+02 -2.6483022E+02  1.2716634E+03  1.3365744E+03  3.5683226E-06  0.0000000E+00  1.0000000E+00
</event>
<event>
9 100 1.0000000E+00 1.0000000E+03 7.8125000E-03 0.0000000E+00
 21 -1  0  0 501 502  0.0000000E+00  0.0000000E+00  7.7787498E+02  7.7787498E+02  0.0000000E+00  0.0000000E+00  1.0000000E+00
 21 -1  0  0 502 501  0.0000000E+00  0.0000000E+00 -3.2612356E+02  3.2612356E+02  0.0000000E+00  0.0000000E+00  1.0000000E+00
 39  2  1  2   0   0 -7.1054274E-15  1.1368684E-13  4.5175142E+02  1.1039985E+03  1.0073398E+03  0.0000000E+00  1.0000000E+00
 23  2  3  3   0   0  1.5860548E+01 -4.6993664E+02  3.9611330E+02  6.2184955E+02  9.3269046E+01  0.0000000E+00  1.0000000E+00
 23  2  3  3   0   0 -1.5860548E+01  4.6993664E+02  5.5638123E+01  4.8214899E+02  9.0994736E+01  0.0000000E+00  1.0000000E+00
-11  1  4  4   0   0  3.1632049E+01 -6.4989106E+01  4.1470479E+01  8.3330493E+01  3.8146973E-06  0.0000000E+00  1.0000000E+00
 11  1  4  4   0   0 -1.5771501E+01 -4.0494754E+02  3.5464282E+02  5.3851906E+02  2.5678467E-06  0.0000000E+00  1.0000000E+00
-13  1  5  5   0   0  9.4670322E+00  9.6677537E+01  4.7046190E+01  1.0793292E+02  1.2156425E-05  0.0000000E+00  1.0000000E+00
 13  1  5  5   0   0 -2.5327580E+01  3.7325911E+02  8.5919324E+00  3.7421607E+02  5.3098339E-06  0.0000000E+00  1.0000000E+00
</event>
<event>
9 100 1.0000000E+00 1.0000000E+03 7.8125000E-03 0.0000000E+00
 21 -1  0  0 501 502  0.0000000E+00  0.0000000E+00  7.7422624E+01  7.7422624E+01  0.0000000E+00  0.0000000E+00  1.0000000E+00
 21 -1  0  0 502 501  0.0000000E+00  0.0000000E+00 -3.2587132E+03  3.2587132E+03  0.0000000E+00  0.0000000E+00  1.0000000E+00
 39  2  1  2   0   0  2.5544011E-12  8.2422957E-12 -3.1812906E+03  3.3361358E+03  1.0045857E+03  0.0000000E+00  1.0000000E+00
 23  2  3  3   0   0 -2.9062757E+01 -9.3972395E+01 -3.2002865E+03  3.2030679E+03  9.0193372E+01  0.0000000E+00  1.0000000E+00
 23  2  3  3   0   0  2.9062757E+01  9.3972395E+01  1.8995874E+01  1.3306797E+02  8.7583029E+01  0.0000000E+00  1.0000000E+00
-11  1  4  4   0   0 -1.7086791E+01 -7.7626598E-02 -1.0887903E+02  1.1021165E+02  1.0571599E-04  0.0000000E+00  1.0000000E+00
 11  1  4  4   0   0 -1.1975966E+01 -9.3894768E+01 -3.0914074E+03  3.0928562E+03  1.3486992E-06  0.0000000E+00  1.0000000E+00
-13  1  5  5   0   0 -3.8312145E+00  3.2617969E+01  4.7578447E+01  5.7812790E+01  9.3744293E-06  0.0000000E+00  1.0000000E+00
 13  1  5  5   0   0  3.2893972E+01  6.1354425E+01 -2.8582572E+01  7.5255182E+01  8.2038167E-06  0.0000000E+00  1.0000000E+00
</event>
<event>
9 100 1.0000000E+00 1.0000000E+03 7.8125000E-03 0.0000000E+00
 21 -1  0  0 501 502  0.0000000E+00  0.0000000E+00  4.0701956E+02  4.0701956E+02  0.0000000E+00  0.0000000E+00  1.0000000E+00
 21 -1  0  0 502 501  0.0000000E+00  0.0000000E+00 -6.2376838E+02  6.2376838E+02  0.0000000E+00  0.0000000E+00  1.0000000E+00
 39  2  1  2   0   0 -8.5265128E-14 -6.2527761E-13 -2.1674882E+02  1.0307879E+03  1.0077419E+03  0.0000000E+00  1.0000000E+00
 23  2  3  3   0   0  4.7992202E+01  3.8429466E+02 -4.2432199E+02  5.8172109E+02  9.1458357E+01  0.0000000E+00  1.0000000E+00
 23  2  3  3   0   0 -4.7992202E+01 -3.8429466E+02  2.0757318E+02  4.4906685E+02  9.2675639E+01  0.0000000E+00  1.0000000E+00
-11  1  4  4   0   0  2.1277495E+01  3.5579506E+02 -3.6093404E+02  5.0726348E+02  2.1324806E-06  0.0000000E+00  1.0000000E+00
 11  1  4  4   0   0  2.6714707E+01  2.8499603E+01 -6.3387950E+01  7.4457606E+01  1.0092740E-05  0.0000000E+00  1.0000000E+00
-13  1  5  5   0   0 -1.7317680E+01 -2.3284353E+02  1.7333279E+02  2.9079248E+02  5.0011103E-06  0.0000000E+00  1.0000000E+00
 13  1  5  5   0   0 -3.0674522E+01 -1.5145113E+02  3.4240385E+01  1.5827436E+02  8.5299224E-06  0.0000000E+00  1.0000000E+00
</event>
<event>
9 100 1.0000000E+00 1.0000000E+03 7.8125000E-03 0.0000000E+00
 21 -1  0  0 501 502  0.0000000E+00  0.0000000E+00  2.9476974E+03  2.9476974E+03  0.0000000E+00  0.0000000E+00  1.0000000E+00
 21 -1  0  0 502 501  0.0000000E+00  0.0000000E+00 -8.4185692E+01  8.4185692E+01  0.0000000E+00  0.0000000E+00  1.0000000E+00
 39  2  1  2   0   0 -4.2277293E-13  1.2562396E-11  2.8635117E+03  3.0318831E+03  9.9630105E+02  0.0000000E+00  1.0000000E+00
 23  2  3  3   0   0  1.6297321E+01 -4.8385817E+02  1.2070559E+03  1.3037276E+03  9.1309549E+01  0.0000000E+00  1.0000000E+00
 23  2  3  3   0   0 -1.6297321E+01  4.8385817E+02  1.6564558E+03  1.7281555E+03  9.1055708E+01  0.0000000E+00  1.0000000E+00
-11  1  4  4   0   0 -1.1475095E+01 -4.4153939E+02  1.0670604E+03  1.1548622E+03  7.1366451E-06  0.0000000E+00  1.0000000E+00
 11  1  4  4   0   0  2.7772416E+01 -4.2318786E+01  1.3999541E+02  1.4886538E+02  3.0517578E-05  0.0000000E+00  1.0000000E+00
-13  1  5  5   0   0 -1.8253267E+01  4.7308656E+02  1.5386223E+03  1.6098144E+03  5.0463701E-06  0.0000000E+00  1.0000000E+00
 13  1  5  5   0   0  1.9559460E+00  1.0771614E+01  1.1783358E+02  1.1834106E+02  2.1579186E-05  0.0000000E+00  1.0000000E+00
</event>
<event>
9 100 1.0000000E+00 1.0000000E+03 7.8125000E-03 0.0000000E+00
 21 -1  0  0 501 502  0.0000000E+00  0.0000000E+00  3.4293609E+02  3.4293609E+02  0.0000000E+00  0.0000000E+00  1.0000000E+00
 21 -1  0  0 502 501  0.0000000E+00  0.0000000E+00 -7.2913818E+02  7.2913818E+02  0.0000000E+00  0.0000000E+00  1.0000000E+00
 39  2  1  2   0   0  1.0231815E-12 -7.4606987E-14 -3.8620209E+02  1.0720743E+03  1.0000956E+03  0.0000000E+00  1.0000000E+00
 23  2  3  3   0   0 -2.6625703E+02  2.0703946E+01  2.4943127E+02  3.7640327E+02  9.0233076E+01  0.0000000E+00  1.0000000E+00
 23  2  3  3   0   0  2.6625703E+02 -2.0703946E+01 -6.3563336E+02  6.9567101E+02  9.2773511E+01  0.0000000E+00  1.0000000E+00
-11  1  4  4   0   0  2.5222824E+00 -5.8182265E+00 -2.7282319E+00  6.9033990E+00  3.8146973E-06  0.0000000E+00  1.0000000E+00
 11  1  4  4   0   0 -2.6877931E+02  2.6522172E+01  2.5215950E+02  3.6949987E+02  6.0930992E-07  0.0000000E+00  1.0000000E+00
-13  1  5  5   0   0  2.1485214E+01 -2.5794668E+01 -4.3704214E+01  5.5109325E+01  1.3214499E-05  0.0000000E+00  1.0000000E+00
 13  1  5  5   0   0  2.4477181E+02  5.0907220E+00 -5.9192914E+02  6.4056168E+02  6.7434958E-07  0.0000000E+00  1.0000000E+00
</event>
<event>
9 100 1.0000000E+00 1.0000000E+03 7.8125000E-03 0.0000000E+00
 21 -1  0  0 501 502  0.0000000E+00  0.0000000E+00  1.4889351E+02  1.4889351E+02  0.0000000E+00  0.0000000E+00  1.0000000E+00
 21 -1  0  0 502 501  0.0000000E+00  0.0000000E+00 -1.6897620E+03  1.6897620E+03  0.0000000E+00  0.0000000E+00  1.0000000E+00
 39  2  1  2   0   0 -8.4554586E-13  1.7053026E-12 -1.5408685E+03  1.8386555E+03  1.0031841E+03  0.0000000E+00  1.0000000E+00
 23  2  3  3   0   0 -4.1782815E+01  8.6989797E+01  1.1615152E+02  1.7628358E+02  9.0948875E+01  0.0000000E+00  1.0000000E+00
 23  2  3  3   0   0  4.1782815E+01 -8.6989797E+01 -1.6570200E+03  1.6623719E+03  9.1935311E+01  0.0000000E+00  1.0000000E+00
-11  1  4  4   0   0 -6.3924890E+01  8.5797607E+01  7.8927479E+01  1.3295551E+02  3.1268304E-06  0.0000000E+00  1.0000000E+00
 11  1  4  4   0   0  2.2142074E+01  1.1921908E+00  3.7224037E+01  4.3328071E+01  6.2536607E-06  0.0000000E+00  1.0000000E+00
-13  1  5  5   0   0  5.3123051E+01 -9.5915164E+00 -5.7523701E+02  5.7776438E+02  2.6428998E-05  0.0000000E+00  1.0000000E+00
 13  1  5  5   0   0 -1.1340236E+01 -7.7398281E+01 -1.0817830E+03  1.0846075E+03  1.3214499E-05  0.0000000E+00  1.0000000E+00
</event>
<event>
9 100 1.0000000E+00 1.0000000E+03 7.8125000E-03 0.0000000E+00
 21 -1  0  0 501 502  0.0000000E+00  0.0000000E+00  4.1338968E+02  4.1338968E+02  0.0000000E+00  0.0000000E+00  1.0000000E+00
 21 -1  0  0 502 501  0.0000000E+00  0.0000000E+00 -6.0720663E+02  6.0720663E+02  0.0000000E+00  0.0000000E+00  1.0000000E+00
 39  2  1  2   0   0  1.2505552E-12 -5.2580162E-13 -1.9381695E+02  1.0205963E+03  1.0020239E+03  0.0000000E+00  1.0000000E+00
 23  2  3  3   0   0  2.5177485E+02 -1.0271081E+02 -5.1452327E+02  5.9009878E+02  9.7684625E+01  0.0000000E+00  1.0000000E+00
 23  2  3  3   0   0 -2.5177485E+02  1.0271081E+02  3.2070632E+02  4.3049753E+02  9.2387747E+01  0.0000000E+00  1.0000000E+00
-11  1  4  4   0   0  1.0370081E+01 -1.3247287E+01 -2.5175613E+00  1.7010799E+01  2.6428998E-05  0.0000000E+00  1.0000000E+00
 11  1  4  4   0   0  2.4140477E+02 -8.9463521E+01 -5.1200570E+02  5.7308798E+02  2.7036472E-06  0.0000000E+00  1.0000000E+00
-13  1  5  5   0   0 -1.1144158E+02  7.2237706E+01  2.1291850E+02  2.5094182E+02  7.7476868E-06  0.0000000E+00  1.0000000E+00
 13  1  5  5   0   0 -1.4033328E+02  3.0473102E+01  1.0778782E+02  1.7955571E+02  1.1757687E-05  0.0000000E+00  1.0000000E+00
</event>
<event>
9 100 1.0000000E+00 1.0000000E+03 7.8125000E-03 0.0000000E+00
 21 -1  0  0 501 502  0.0000000E+00  0.0000000E+00  3.8057334E+02  3.8057334E+02  0.0000000E+00  0.0000000E+00  1.0000000E+00
 21 -1  0  0 502 501  0.0000000E+00  0.0000000E+00 -6.5645315E+02  6.5645315E+02  0.0000000E+00  0.0000000E+00  1.0000000E+00
 39  2  1  2   0   0 -1.9895197E-13  1.7053026E-12 -2.7587981E+02  1.0370265E+03  9.9965708E+02  0.0000000E+00  1.0000000E+00
 23  2  3  3   0   0 -3.7187558E+01  3.1170240E+02 -5.2953467E+02  6.2302776E+02  9.5996438E+01  0.0000000E+00  1.0000000E+00
 23  2  3  3   0   0  3.7187558E+01 -3.1170240E+02  2.5365486E+02  4.1399874E+02  9.2265167E+01  0.0000000E+00  1.0000000E+00
-11  1  4  4   0   0  8.5183891E+00  1.2261576E+02 -1.3149606E+02  1.7999556E+02  9.3440618E-06  0.0000000E+00  1.0000000E+00
 11  1  4  4   0   0 -4.5705947E+01  1.8908664E+02 -3.9803861E+02  4.4303220E+02  3.3036247E-06  0.0000000E+00  1.0000000E+00
-13  1  5  5   0   0 -2.0591122E+01 -1.6807360E+01  2.3613754E+01  3.5554058E+01  1.4273290E-05  0.0000000E+00  1.0000000E+00
 13  1  5  5   0   0  5.7778680E+01 -2.9489504E+02  2.3004111E+02  3.7844468E+02  3.4550135E-06  0.0000000E+00  1.0000000E+00
</event>
<event>
9 100 1.0000000E+00 1.0000000E+03 7.8125000E-03 0.0000000E+00
 21 -1  0  0 501 502  0.0000000E+00  0.0000000E+00  1.9047255E+02  1.9047255E+02  0.0000000E+00  0.0000000E+00  1.0000000E+00
 21 -1  0  0 502 501  0.0000000E+00  0.0000000E+00 -1.3816062E+03  1.3816062E+03  0.0000000E+00  0.0000000E+00  1.0000000E+00
 39  2  1  2   0   0 -5.3290705E-14  1.2079227E-13 -1.1911336E+03  1.5720787E+03  1.0259787E+03  0.0000000E+00  1.0000000E+00
 23  2  3  3   0   0  2.8227957E+01 -5.6050661E+01  1.7620419E+02  2.0028416E+02  7.1605400E+01  0.0000000E+00  1.0000000E+00
 23  2  3  3   0   0 -2.8227957E+01  5.6050661E+01 -1.3673378E+03  1.3717946E+03  9.0934733E+01  0.0000000E+00  1.0000000E+00
-11  1  4  4   0   0  3.6049519E+01 -6.1409886E+01  1.7698238E+02  1.9077082E+02  3.1272031E-06  0.0000000E+00  1.0000000E+00
 11  1  4  4   0   0 -7.8215625E+00  5.3592245E+00 -7.7818712E-01  9.5133434E+00  1.4016093E-05  0.0000000E+00  1.0000000E+00
-13  1  5  5   0   0  3.0504391E+01  2.8027496E+00 -3.2132162E+02  3.2277849E+02  2.1579186E-05  0.0000000E+00  1.0000000E+00
 13  1  5  5   0   0 -5.8732348E+01  5.3247912E+01 -1.0460162E+03  1.0490161E+03  1.3214499E-05  0.0000000E+00  1.0000000E+00
</event>
<event>
9 100 1.0000000E+00 1.0000000E+03 7.8125000E-03 0.0000000E+00
 21 -1  0  0 501 502  0.0000000E+00  0.0000000E+00  6.2975078E+02  6.2975078E+02  0.0000000E+00  0.0000000E+00  1.0000000E+00
 21 -1  0  0 502 501  0.0000000E+00  0.0000000E+00 -4.0548355E+02  4.0548355E+02  0.0000000E+00  0.0000000E+00  1.0000000E+00
 39  2  1  2   0   0  2.3092639E-14 -1.0800250E-12  2.2426723E+02  1.0352343E+03  1.0106505E+03  0.0000000E+00  1.0000000E+00
 23  2  3  3   0   0  9.0196556E+00 -3.5412470E+02  4.6926094E+02  5.9488651E+02  9.0545412E+01  0.0000000E+00  1.0000000E+00
 23  2  3  3   0   0 -9.0196556E+00  3.5412470E+02 -2.4499371E+02  4.4034782E+02  9.1644032E+01  0.0000000E+00  1.0000000E+00
-11  1  4  4   0   0 -1.0602518E+01 -3.4266182E+02  4.3704104E+02  5.5545874E+02  1.7192608E-06  0.0000000E+00  1.0000000E+00
 11  1  4  4   0   0  1.9622174E+01 -1.1462878E+01  3.2219900E+01  3.9427773E+01  1.5258789E-05  0.0000000E+00  1.0000000E+00
-13  1  5  5   0   0  1.0103676E+01  3.2424861E+02 -2.4204530E+02  4.0475322E+02  7.0146336E-07  0.0000000E+00  1.0000000E+00
 13  1  5  5   0   0 -1.9123331E+01  2.9876085E+01 -2.9484189E+00  3.5594598E+01  0.0000000E+00  0.0000000E+00  1.0000000E+00
</event>
<event>
9 100 1.0000000E+00 1.0000000E+03 7.8125000E-03 0.0000000E+00
 21 -1  0  0 501 502  0.0000000E+00  0.0000000E+00  6.6965187E+02  6.6965187E+02  0.0000000E+00  0.0000000E+00  1.0000000E+00
 21 -1  0  0 502 501  0.0000000E+00  0.0000000E+00 -3.7334356E+02  3.7334356E+02  0.0000000E+00  0.0000000E+00  1.0000000E+00
 39  2  1  2   0   0 -2.8421709E-14 -5.6843419E-14  2.9630832E+02  1.0429954E+03  1.0000204E+03  0.0000000E+00  1.0000000E+00
 23  2  3  3   0   0  1.4002130E+02  1.3744157E+02  6.1804638E+02  6.5520704E+02  9.3908389E+01  0.0000000E+00  1.0000000E+00
 23  2  3  3   0   0 -1.4002130E+02 -1.3744157E+02 -3.2173806E+02  3.8778839E+02  9.1478424E+01  0.0000000E+00  1.0000000E+00
-11  1  4  4   0   0  1.4540540E+02  1.1832872E+02  5.9915821E+02  6.2780170E+02  1.9369217E-06  0.0000000E+00  1.0000000E+00
 11  1  4  4   0   0 -5.3840911E+00  1.9112851E+01  1.8888163E+01  2.7405332E+01  2.2888184E-05  0.0000000E+00  1.0000000E+00
-13  1  5  5   0   0  3.6987066E+00  8.8658950E+00 -2.7486035E+01  2.9116433E+01  0.0000000E+00  0.0000000E+00  1.0000000E+00
 13  1  5  5   0   0 -1.4372001E+02 -1.4630747E+02 -2.9425203E+02  3.5867196E+02  1.4697108E-06  0.0000000E+00  1.0000000E+00
</event>
<event>
9 100 1.0000000E+00 1.0000000E+03 7.8125000E-03 0.0000000E+00
 21 -1  0  0 501 502  0.0000000E+00  0.0000000E+00  3.8281168E+02  3.8281168E+02  0.0000000E+00  0.0000000E+00  1.0000000E+00
 21 -1  0  0 502 501  0.0000000E+00  0.0000000E+00 -7.1780445E+02  7.1780445E+02  0.0000000E+00  0.0000000E+00  1.0000000E+00
 39  2  1  2   0   0 -7.1054274E-15  1.7053026E-13 -3.3499278E+02  1.1006161E+03  1.0483967E+03  0.0000000E+00  1.0000000E+00
 23  2  3  3   0   0 -4.2407340E+01  5.0372634E+02 -2.7524367E+02  5.8339353E+02  9.5133174E+01  0.0000000E+00  1.0000000E+00
 23  2  3  3   0   0  4.2407340E+01 -5.0372634E+02 -5.9749108E+01  5.1722260E+02  9.1709605E+01  0.0000000E+00  1.0000000E+00
-11  1  4  4   0   0 -3.0274055E+01  9.4300799E+01 -2.0829581E+01  1.0120786E+02  1.5958024E-05  0.0000000E+00  1.0000000E+00
 11  1  4  4   0   0 -1.2133286E+01  4.0942554E+02 -2.5441409E+02  4.8218567E+02  4.9093390E-06  0.0000000E+00  1.0000000E+00
-13  1  5  5   0   0  5.2067442E+01 -2.7741410E+02  2.6368521E+00  2.8227036E+02  9.8648838E-06  0.0000000E+00  1.0000000E+00
 13  1  5  5   0   0 -9.6601013E+00 -2.2631224E+02 -6.2385960E+01  2.3495224E+02  1.4550341E-05  0.0000000E+00  1.0000000E+00
</event>
<event>
9 100 1.0000000E+00 1.0000000E+03 7.8125000E-03 0.0000000E+00
 21 -1  0  0 501 502  0.0000000E+00  0.0000000E+00  4.8653725E+02  4.8653725E+02  0.0000000E+00  0.0000000E+00  1.0000000E+00
 21 -1  0  0 502 501  0.0000000E+00  0.0000000E+00 -5.1465280E+02  5.1465280E+02  0.0000000E+00  0.0000000E+00  1.0000000E+00
 39  2  1  2   0   0  7.1054274E-15 -2.8421709E-13 -2.8115550E+01  1.0011900E+03  1.0007952E+03  0.0000000E+00  1.0000000E+00
 23  2  3  3   0   0 -1.0222215E+01  2.6377059E+02 -4.2984502E+02  5.1296207E+02  9.3187580E+01  0.0000000E+00  1.0000000E+00
 23  2  3  3   0   0  1.0222215E+01 -2.6377059E+02  4.0172947E+02  4.8822797E+02  8.5443372E+01  0.0000000E+00  1.0000000E+00
-11  1  4  4   0   0 -4.0374078E+01  2.3324416E+02 -3.7232852E+02  4.4120452E+02  2.8610229E-06  0.0000000E+00  1.0000000E+00
 11  1  4  4   0   0  3.0151862E+01  3.0526437E+01 -5.7516499E+01  7.1757549E+01  1.2063132E-05  0.0000000E+00  1.0000000E+00
-13  1  5  5   0   0  2.7486238E+01 -5.1648058E+01  1.3399287E+02  1.4620911E+02  1.4774259E-05  0.0000000E+00  1.0000000E+00
 13  1  5  5   0   0 -1.7264022E+01 -2.1212253E+02  2.6773660E+02  3.4201886E+02  6.8770433E-06  0.0000000E+00  1.0000000E+00
</event>
<event>
9 100 1.0000000E+00 1.0000000E+03 7.8125000E-03 0.0000000E+00
 21 -1  0  0 501 502  0.0000000E+00  0.0000000E+00  1.1394502E+03  1.1394502E+03  0.0000000E+00  0.0000000E+00  1.0000000E+00
 21 -1  0  0 502 501  0.0000000E+00  0.0000000E+00 -2.2124682E+02  2.2124682E+02  0.0000000E+00  0.0000000E+00  1.0000000E+00
 39  2  1  2   0   0 -1.4210855E-12  5.2295945E-12  9.1820341E+02  1.3606970E+03  1.0041907E+03  0.0000000E+00  1.0000000E+00
 23  2  3  3   0   0  1.1170156E+02 -4.1152825E+02  1.2221911E+02  4.5311402E+02  9.2423270E+01  0.0000000E+00  1.0000000E+00
 23  2  3  3   0   0 -1.1170156E+02  4.1152825E+02  7.9598430E+02  9.0758303E+02  9.1012162E+01  0.0000000E+00  1.0000000E+00
-11  1  4  4   0   0  4.8403372E+01 -7.0910943E+01  4.9541207E+01  9.9124061E+01  5.6420133E-06  0.0000000E+00  1.0000000E+00
 11  1  4  4   0   0  6.3298188E+01 -3.4061731E+02  7.2677908E+01  3.5398996E+02  3.8738434E-06  0.0000000E+00  1.0000000E+00
-13  1  5  5   0   0 -8.8715344E-01  7.6942334E+01  8.9288091E+01  1.1786973E+02  1.0789593E-05  0.0000000E+00  1.0000000E+00
 13  1  5  5   0   0 -1.1081441E+02  3.3458592E+02  7.0669620E+02  7.8971330E+02  2.8610229E-06  0.0000000E+00  1.0000000E+00
</event>
<event>
9 100 1.0000000E+00 1.0000000E+03 7.8125000E-03 0.0000000E+00
 21 -1  0  0 501 502  0.0000000E+00  0.0000000E+00  1.2831825E+03  1.2831825E+03  0.0000000E+00  0.0000000E+00  1.0000000E+00
 21 -1  0  0 502 501  0.0000000E+00  0.0000000E+00 -1.9500020E+02  1.9500020E+02  0.0000000E+00  0.0000000E+00  1.0000000E+00
 39  2  1  2   0   0 -1.2789769E-12  3.7800874E-12  1.0881823E+03  1.4781827E+03  1.0004416E+03  0.0000000E+00  1.0000000E+00
 23  2  3  3   0   0  6.4781191E+01 -1.9338483E+02 -1.1301656E+02  2.5132546E+02  9.3794725E+01  0.0000000E+00  1.0000000E+00
 23  2  3  3   0   0 -6.4781191E+01  1.9338483E+02  1.2011989E+03  1.2268572E+03  1.4389467E+02  0.0000000E+00  1.0000000E+00
-11  1  4  4   0   0 -1.8674547E+00 -2.5503612E+01 -5.6574303E+01  6.2085211E+01  8.4226235E-06  0.0000000E+00  1.0000000E+00
 11  1  4  4   0   0  6.6648646E+01 -1.6788122E+02 -5.6442262E+01  1.8924025E+02  4.2113118E-06  0.0000000E+00  1.0000000E+00
-13  1  5  5   0   0 -2.0665274E+01 -2.1278244E+01  1.7779774E+02  1.8025497E+02  3.4119690E-05  0.0000000E+00  1.0000000E+00
 13  1  5  5   0   0 -4.4115917E+01  2.1466307E+02  1.0234011E+03  1.0466023E+03  7.8641999E-06  0.0000000E+00  1.0000000E+00
</event>
<event>
9 100 1.0000000E+00 1.0000000E+03 7.8125000E-03 0.0000000E+00
 21 -1  0  0 501 502  0.0000000E+00  0.0000000E+00  1.5201210E+03  1.5201210E+03  0.0000000E+00  0.0000000E+00  1.0000000E+00
 21 -1  0  0 502 501  0.0000000E+00  0.0000000E+00 -1.6507848E+02  1.6507848E+02  0.0000000E+00  0.0000000E+00  1.0000000E+00
 39  2  1  2   0   0  5.1159077E-13 -9.9475983E-14  1.3550425E+03  1.6851995E+03  1.0018768E+03  0.0000000E+00  1.0000000E+00
 23  2  3  3   0   0 -4.7670949E+02  8.0800908E+01  5.1887490E+02  7.1502635E+02  9.0833923E+01  0.0000000E+00  1.0000000E+00
 23  2  3  3   0   0  4.7670949E+02 -8.0800908E+01  8.3616761E+02  9.7017312E+02  9.0988370E+01  0.0000000E+00  1.0000000E+00
-11  1  4  4   0   0 -1.9668760E+02 -4.5470826E+00  2.4428176E+02  3.1365629E+02  6.6072495E-06  0.0000000E+00  1.0000000E+00
 11  1  4  4   0   0 -2.8002190E+02  8.5347991E+01  2.7459313E+02  4.0137007E+02  8.5299224E-06  0.0000000E+00  1.0000000E+00
-13  1  5  5   0   0  3.4796867E+02 -3.7763044E+01  5.2852894E+02  6.3391725E+02  3.8146973E-06  0.0000000E+00  1.0000000E+00
 13  1  5  5   0   0  1.2874083E+02 -4.3037864E+01  3.0763868E+02  3.3625588E+02  1.7059845E-05  0.0000000E+00  1.0000000E+00
</event>
<event>
9 100 1.0000000E+00 1.0000000E+03 7.8125000E-03 0.0000000E+00
 21 -1  0  0 501 502  0.0000000E+00  0.0000000E+00  1.3057423E+02  1.3057423E+02  0.0000000E+00  0.0000000E+00  1.0000000E+00
 21 -1  0  0 502 501  0.0000000E+00  0.0000000E+00 -1.8972947E+03  1.8972947E+03  0.0000000E+00  0.0000000E+00  1.0000000E+00
 39  2  1  2   0   0 -1.0373924E-12 -2.2453150E-12 -1.7667205E+03  2.0278690E+03  9.9546533E+02  0.0000000E+00  1.0000000E+00
 23  2  3  3   0   0 -3.2684293E+01 -7.1013916E+01  1.0025106E+02  1.5703065E+02  9.2179762E+01  0.0000000E+00  1.0000000E+00
 23  2  3  3   0   0  3.2684293E+01  7.1013916E+01 -1.8669716E+03  1.8708383E+03  9.1334304E+01  0.0000000E+00  1.0000000E+00
-11  1  4  4   0   0 -1.2974713E+01  2.1809905E+01  2.7799017E+01  3.7640410E+01  6.6757202E-06  0.0000000E+00  1.0000000E+00
 11  1  4  4   0   0 -1.9709580E+01 -9.2823821E+01  7.2452048E+01  1.1939024E+02  3.6157968E-06  0.0000000E+00  1.0000000E+00
-13  1  5  5   0   0  2.6744853E+00  4.2475676E+01 -1.6090873E+03  1.6096500E+03  7.6293945E-06  0.0000000E+00  1.0000000E+00
 13  1  5  5   0   0  3.0009808E+01  2.8538240E+01 -2.5788430E+02  2.6118830E+02  3.7376247E-05  0.0000000E+00  1.0000000E+00
</event>
<event>
9 100 1.0000000E+00 1.0000000E+03 7.8125000E-03 0.0000000E+00
 21 -1  0  0 501 502  0.0000000E+00  0.0000000E+00  3.4691350E+02  3.4691350E+02  0.0000000E+00  0.0000000E+00  1.0000000E+00
 21 -1  0  0 502 501  0.0000000E+00  0.0000000E+00 -7.2439362E+02  7.2439362E+02  0.0000000E+00  0.0000000E+00  1.0000000E+00
 39  2  1  2   0   0 -7.9580786E-13  5.1159077E-13 -3.7748012E+02  1.0713071E+03  1.0026005E+03  0.0000000E+00  1.0000000E+00
 23  2  3  3   0   0  2.9897932E+02 -1.8621872E+02  1.7965395E+02  4.0566871E+02  9.0694601E+01  0.0000000E+00  1.0000000E+00
 23  2  3  3   0   0 -2.9897932E+02  1.8621872E+02 -5.5713408E+02  6.6563841E+02  9.2790481E+01  0.0000000E+00  1.0000000E+00
-11  1  4  4   0   0  2.9099073E+02 -1.9254424E+02  1.6070746E+02  3.8415593E+02  2.3238169E-06  0.0000000E+00  1.0000000E+00
 11  1  4  4   0   0  7.9885923E+00  6.3255284E+00  1.8946493E+01  2.1512776E+01  1.4016093E-05  0.0000000E+00  1.0000000E+00
-13  1  5  5   0   0 -1.1918894E+02  7.8874311E+01 -3.1244258E+02  3.4358045E+02  8.0921949E-06  0.0000000E+00  1.0000000E+00
 13  1  5  5   0   0 -1.7979038E+02  1.0734441E+02 -2.4469149E+02  3.2205796E+02  1.2063132E-05  0.0000000E+00  1.0000000E+00
</event>
<event>
9 100 1.0000000E+00 1.0000000E+03 7.8125000E-03 0.0000000E+00
 21 -1  0  0 501 502  0.0000000E+00  0.0000000E+00  2.5861871E+02  2.5861871E+02  0.0000000E+00  0.0000000E+00  1.0000000E+00
 21 -1  0  0 502 501  0.0000000E+00  0.0000000E+00 -1.0070954E+03  1.0070954E+03  0.0000000E+00  0.0000000E+00  1.0000000E+00
 39  2  1  2   0   0 -1.1368684E-13  3.9790393E-13 -7.4847669E+02  1.2657141E+03  1.0206933E+03  0.0000000E+00  1.0000000E+00
 23  2  3  3   0   0  1.6925874E+02 -3.1611812E+02 -8.1060540E+02  8.9198209E+02  9.9858667E+01  0.0000000E+00  1.0000000E+00
 23  2  3  3   0   0 -1.6925874E+02  3.1611812E+02  6.2128706E+01  3.7373203E+02  8.5067412E+01  0.0000000E+00  1.0000000E+00
-11  1  4  4   0   0  1.7523929E+02 -2.9427981E+02 -7.0270071E+02  7.8172738E+02  6.0315660E-06  0.0000000E+00  1.0000000E+00
 11  1  4  4   0   0 -5.9805463E+00 -2.1838304E+01 -1.0790469E+02  1.1025471E+02  3.3255760E-05  0.0000000E+00  1.0000000E+00
-13  1  5  5   0   0 -5.9096625E+01  1.9915520E+02  3.0304757E+01  2.0993709E+02  9.5427018E-06  0.0000000E+00  1.0000000E+00
 13  1  5  5   0   0 -1.1016212E+02  1.1696292E+02  3.1823949E+01  1.6379494E+02  1.2077260E-05  0.0000000E+00  1.0000000E+00
</event>
<event>
9 100 1.0000000E+00 1.0000000E+03 7.8125000E-03 0.0000000E+00
 21 -1  0  0 501 502  0.0000000E+00  0.0000000E+00  3.6527669E+02  3.6527669E+02  0.0000000E+00  0.0000000E+00  1.0000000E+00
 21 -1  0  0 502 501  0.0000000E+00  0.0000000E+00 -6.3617620E+02  6.3617620E+02  0.0000000E+00  0.0000000E+00  1.0000000E+00
 39  2  1  2   0   0  4.2632564E-14 -3.5527137E-15 -2.7089951E+02  1.0014529E+03  9.6411688E+02  0.0000000E+00  1.0000000E+00
 23  2  3  3   0   0  3.8849192E+01 -2.6922747E+00  3.5274990E+02  3.6963544E+02  1.0335065E+02  0.0000000E+00  1.0000000E+00
 23  2  3  3   0   0 -3.8849192E+01  2.6922747E+00 -6.2364941E+02  6.3181745E+02  9.3478361E+01  0.0000000E+00  1.0000000E+00
-11  1  4  4   0   0  5.5247788E+01 -8.8406008E+00  3.4657985E+02  3.5106704E+02  2.5994733E-06  0.0000000E+00  1.0000000E+00
 11  1  4  4   0   0 -1.6398595E+01  6.1483261E+00  6.1700482E+00  1.8568396E+01  1.6184390E-05  0.0000000E+00  1.0000000E+00
-13  1  5  5   0   0 -5.5131038E+01  1.7454934E+01 -2.1695676E+02  2.2453138E+02  1.5258789E-05  0.0000000E+00  1.0000000E+00
 13  1  5  5   0   0  1.6281845E+01 -1.4762659E+01 -4.0669265E+02  4.0728607E+02  7.6293945E-06  0.0000000E+00  1.0000000E+00
</event>
<event>
9 100 1.0000000E+00 1.0000000E+03 7.8125000E-03 0.0000000E+00
 21 -1  0  0 501 502  0.0000000E+00  0.0000000E+00  1.5508636E+03  1.5508636E+03  0.0000000E+00  0.0000000E+00  1.0000000E+00
 21 -1  0  0 502 501  0.0000000E+00  0.0000000E+00 -1.6486647E+02  1.6486647E+02  0.0000000E+00  0.0000000E+00  1.0000000E+00
 39  2  1  2   0   0 -6.2527761E-13  1.9895197E-12  1.3859972E+03  1.7157301E+03  1.0113069E+03  0.0000000E+00  1.0000000E+00
 23  2  3  3   0   0  1.3703152E+02 -4.0720571E+02  2.6673361E+02  5.1324712E+02  8.7645040E+01  0.0000000E+00  1.0000000E+00
 23  2  3  3   0   0 -1.3703152E+02  4.0720571E+02  1.1192636E+03  1.2024830E+03  9.2845699E+01  0.0000000E+00  1.0000000E+00
-11  1  4  4   0   0  4.0683099E+01 -3.4298669E+01  2.8387980E+01  6.0310784E+01  3.1916047E-05  0.0000000E+00  1.0000000E+00
 11  1  4  4   0   0  9.6348422E+01 -3.7290704E+02  2.3834563E+02  4.5293633E+02  5.9461422E-06  0.0000000E+00  1.0000000E+00
-13  1  5  5   0   0 -8.6258551E+01  1.2012461E+02  3.9107149E+02  4.1809971E+02  1.0789593E-05  0.0000000E+00  1.0000000E+00
 13  1  5  5   0   0 -5.0772970E+01  2.8708110E+02  7.2819207E+02  7.8438329E+02  0.0000000E+00  0.0000000E+00  1.0000000E+00
</event>
<event>
9 100 1.0000000E+00 1.0000000E+03 7.8125000E-03 0.0000000E+00
 21 -1  0  0 501 502  0.0000000E+00  0.0000000E+00  2.7424653E+03  2.7424653E+03  0.0000000E+00  0.0000000E+00  1.0000000E+00
 21 -1  0  0 502 501  0.0000000E+00  0.0000000E+00 -9.1169976E+01  9.1169976E+01  0.0000000E+00  0.0000000E+00  1.0000000E+00
 39  2  1  2   0   0 -1.1155521E-12 -2.0463631E-11  2.6512954E+03  2.8336353E+03  1.0000610E+03  0.0000000E+00  1.0000000E+00
 23  2  3  3   0   0 -1.9891916E+01 -3.6207979E+02  2.2666599E+03  2.2972487E+03  9.0038090E+01  0.0000000E+00  1.0000000E+00
 23  2  3  3   0   0  1.9891916E+01  3.6207979E+02  3.8463547E+02  5.3638666E+02  9.0932614E+01  0.0000000E+00  1.0000000E+00
-11  1  4  4   0   0  1.7424421E+01 -1.8687023E+02  1.3771113E+03  1.3898416E+03  2.6428998E-05  0.0000000E+00  1.0000000E+00
 11  1  4  4   0   0 -3.7316337E+01 -1.7520956E+02  8.8954862E+02  9.0740710E+02  1.5258789E-05  0.0000000E+00  1.0000000E+00
-13  1  5  5   0   0  4.1134500E+01  8.1994608E+01  7.6587118E+01  1.1950209E+02  5.3947966E-06  0.0000000E+00  1.0000000E+00
 13  1  5  5   0   0 -2.1242584E+01  2.8008518E+02  3.0804836E+02  4.1688457E+02  4.2649612E-06  0.0000000E+00  1.0000000E+00
</event>
<event>
9 100 1.0000000E+00 1.0000000E+03 7.8125000E-03 0.0000000E+00
 21 -1  0  0 501 502  0.0000000E+00  0.0000000E+00  3.6103212E+02  3.6103212E+02  0.0000000E+00  0.0000000E+00  1.0000000E+00
 21 -1  0  0 502 501  0.0000000E+00  0.0000000E+00 -6.9485070E+02  6.9485070E+02  0.0000000E+00  0.0000000E+00  1.0000000E+00
 39  2  1  2   0   0 -1.2505552E-12  4.8316906E-13 -3.3381858E+02  1.0558828E+03  1.0017254E+03  0.0000000E+00  1.0000000E+00
 23  2  3  3   0   0 -3.5663859E+02  1.2234118E+02 -5.0258083E+02  6.3476507E+02  9.0447534E+01  0.0000000E+00  1.0000000E+00
 23  2  3  3   0   0  3.5663859E+02 -1.2234118E+02  1.6876225E+02  4.2111775E+02  8.1859738E+01  0.0000000E+00  1.0000000E+00
-11  1  4  4   0   0 -1.1474182E+02  4.3829853E+01 -9.9097404E+01  1.5781963E+02  5.3947966E-06  0.0000000E+00  1.0000000E+00
 11  1  4  4   0   0 -2.4189677E+02  7.8511323E+01 -4.0348343E+02  4.7694544E+02  1.9073486E-06  0.0000000E+00  1.0000000E+00
-13  1  5  5   0   0  3.4317560E+02 -1.3262884E+02  1.6713368E+02  4.0409599E+02  1.4704660E-06  0.0000000E+00  1.0000000E+00
 13  1  5  5   0   0  1.3462989E+01  1.0287666E+01  1.6285730E+00  1.7021763E+01  9.1473227E-06  0.0000000E+00  1.0000000E+00
</event>
<event>
9 100 1.0000000E+00 1.0000000E+03 7.8125000E-03 0.0000000E+00
 21 -1  0  0 501 502  0.0000000E+00  0.0000000E+00  6.5222040E+02  6.5222040E+02  0.0000000E+00  0.0000000E+00  1.0000000E+00
 21 -1  0  0 502 501  0.0000000E+00  0.0000000E+00 -3.8252169E+02  3.8252169E+02  0.0000000E+00  0.0000000E+00  1.0000000E+00
 39  2  1  2   0   0  7.1054274E-15  2.8421709E-14  2.6969870E+02  1.0347421E+03  9.9897638E+02  0.0000000E+00  1.0000000E+00
 23  2  3  3   0   0 -6.2892812E+01 -1.2818556E+02 -3.5223590E+02  3.9060980E+02  9.0104590E+01  0.0000000E+00  1.0000000E+00
 23  2  3  3   0   0  6.2892812E+01  1.2818556E+02  6.2193461E+02  6.4413230E+02  8.7844837E+01  0.0000000E+00  1.0000000E+00
-11  1  4  4   0   0  1.0501054E+01 -2.9405963E+01 -2.2018803E+01  3.8207467E+01  3.8146973E-06  0.0000000E+00  1.0000000E+00
 11  1  4  4   0   0 -7.3393866E+01 -9.8779597E+01 -3.3021710E+02  3.5240233E+02  1.1434153E-06  0.0000000E+00  1.0000000E+00
-13  1  5  5   0   0  2.7145116E+00  8.8140143E+01  4.3198961E+02  4.4089803E+02  0.0000000E+00  0.0000000E+00  1.0000000E+00
 13  1  5  5   0   0  6.0178301E+01  4.0045417E+01  1.8994500E+02  2.0323427E+02  9.3440618E-06  0.0000000E+00  1.0000000E+00
</event>
<event>
9 100 1.0000000E+00 1.0000000E+03 7.8125000E-03 0.0000000E+00
 21 -1  0  0 501 502  0.0000000E+00  0.0000000E+00  1.7182318E+03  1.7182318E+03  0.0000000E+00  0.0000000E+00  1.0000000E+00
 21 -1  0  0 502 501  0.0000000E+00  0.0000000E+00 -1.5125021E+02  1.5125021E+02  0.0000000E+00  0.0000000E+00  1.0000000E+00
 39  2  1  2   0   0 -8.6330942E-13  7.1906925E-12  1.5669816E+03  1.8694820E+03  1.0195743E+03  0.0000000E+00  1.0000000E+00
 23  2  3  3   0   0 -1.9726341E+01  1.6121563E+02  1.6524043E+03  1.6646901E+03  1.1988979E+02  0.0000000E+00  1.0000000E+00
 23  2  3  3   0   0  1.9726341E+01 -1.6121563E+02 -8.5422714E+01  2.0479191E+02  9.0901476E+01  0.0000000E+00  1.0000000E+00
-11  1  4  4   0   0 -3.6042498E+01  3.8800336E+01  1.9501624E+02  2.0207885E+02  4.8252528E-05  0.0000000E+00  1.0000000E+00
 11  1  4  4   0   0  1.6316157E+01  1.2241529E+02  1.4573880E+03  1.4626112E+03  1.1757687E-05  0.0000000E+00  1.0000000E+00
-13  1  5  5   0   0  1.6294141E+01  4.9839264E+00  1.6755481E+00  1.7121508E+01  1.4835691E-05  0.0000000E+00  1.0000000E+00
 13  1  5  5   0   0  3.4321997E+00 -1.6619956E+02 -8.7098262E+01  1.8767040E+02  3.8212691E-06  0.0000000E+00  1.0000000E+00
</event>
<event>
9 100 1.0000000E+00 1.0000000E+03 7.8125000E-03 0.0000000E+00
 21 -1  0  0 501 502  0.0000000E+00  0.0000000E+00  1.4838359E+02  1.4838359E+02  0.0000000E+00  0.0000000E+00  1.0000000E+00
 21 -1  0  0 502 501  0.0000000E+00  0.0000000E+00 -1.7104104E+03  1.7104104E+03  0.0000000E+00  0.0000000E+00  1.0000000E+00
 39  2  1  2   0   0 -9.9475983E-13  1.3073986E-12 -1.5620268E+03  1.8587940E+03  1.0075651E+03  0.0000000E+00  1.0000000E+00
 23  2  3  3   0   0 -2.4296630E+02  3.2556350E+02 -2.5746632E+02  4.8934359E+02  9.0244240E+01  0.0000000E+00  1.0000000E+00
 23  2  3  3   0   0  2.4296630E+02 -3.2556350E+02 -1.3045605E+03  1.3694504E+03  9.2152707E+01  0.0000000E+00  1.0000000E+00
-11  1  4  4   0   0 -1.4893740E+02  1.3479633E+02 -9.7943872E+01  2.2348467E+02  1.0956884E-05  0.0000000E+00  1.0000000E+00
 11  1  4  4   0   0 -9.4028906E+01  1.9076717E+02 -1.5952245E+02  2.6585891E+02  1.0533677E-05  0.0000000E+00  1.0000000E+00
-13  1  5  5   0   0  2.1248592E+02 -2.8958736E+02 -1.0290353E+03  1.0899196E+03  1.2063132E-05  0.0000000E+00  1.0000000E+00
 13  1  5  5   0   0  3.0480383E+01 -3.5976138E+01 -2.7552513E+02  2.7953074E+02  3.0517578E-05  0.0000000E+00  1.0000000E+00
</event>
<event>
9 100 1.0000000E+00 1.0000000E+03 7.8125000E-03 0.0000000E+00
 21 -1  0  0 501 502  0.0000000E+00  0.0000000E+00  2.6289896E+02  2.6289896E+02  0.0000000E+00  0.0000000E+00  1.0000000E+00
 21 -1  0  0 502 501  0.0000000E+00  0.0000000E+00 -9.6032293E+02  9.6032293E+02  0.0000000E+00  0.0000000E+00  1.0000000E+00
 39  2  1  2   0   0 -1.9539925E-14  1.1795009E-12 -6.9742397E+02  1.2232219E+03  1.0049237E+03  0.0000000E+00  1.0000000E+00
 23  2  3  3   0   0  1.4841269E+00 -8.8513093E+01  2.4291469E+02  2.7428542E+02  9.1586990E+01  0.0000000E+00  1.0000000E+00
 23  2  3  3   0   0 -1.4841269E+00  8.8513093E+01 -9.4033866E+02  9.4893647E+02  9.1688903E+01  0.0000000E+00  1.0000000E+00
-11  1  4  4   0   0  2.6376186E+00 -4.9460061E+01  2.2659295E+02  2.3194314E+02  2.3841858E-07  0.0000000E+00  1.0000000E+00
 11  1  4  4   0   0 -1.1534918E+00 -3.9053032E+01  1.6321739E+01  4.2342284E+01  3.8146973E-06  0.0000000E+00  1.0000000E+00
-13  1  5  5   0   0 -2.1178849E+01  2.7416659E+01 -9.4238927E+01  1.0040514E+02  3.5785032E-05  0.0000000E+00  1.0000000E+00
 13  1  5  5   0   0  1.9694722E+01  6.1096434E+01 -8.4609973E+02  8.4853133E+02  6.0315660E-06  0.0000000E+00  1.0000000E+00
</event>
<event>
9 100 1.0000000E+00 1.0000000E+03 7.8125000E-03 0.0000000E+00
 21 -1  0  0 501 502  0.0000000E+00  0.0000000E+00  1.0057529E+03  1.0057529E+03  0.0000000E+00  0.0000000E+00  1.0000000E+00
 21 -1  0  0 502 501  0.0000000E+00  0.0000000E+00 -2.4840488E+02  2.4840488E+02  0.0000000E+00  0.0000000E+00  1.0000000E+00
 39  2  1  2   0   0 -9.9475983E-13 -1.0516032E-12  7.5734797E+02  1.2541577E+03  9.9966777E+02  0.0000000E+00  1.0000000E+00
 23  2  3  3   0   0  1.6051421E+02  1.7132654E+02 -1.6336792E+02  2.9980457E+02  8.9867165E+01  0.0000000E+00  1.0000000E+00
 23  2  3  3   0   0 -1.6051421E+02 -1.7132654E+02  9.2071589E+02  9.5435316E+02  8.9188617E+01  0.0000000E+00  1.0000000E+00
-11  1  4  4   0   0  1.1342025E+01  1.7641376E+01  1.0946699E+01  2.3657766E+01  1.3351440E-05  0.0000000E+00  1.0000000E+00
 11  1  4  4   0   0  1.4917218E+02  1.5368516E+02 -1.7431462E+02  2.7614680E+02  2.2460751E-06  0.0000000E+00  1.0000000E+00
-13  1  5  5   0   0 -1.1809998E+02 -7.7831218E+01  6.4025233E+02  6.5568922E+02  1.0092740E-05  0.0000000E+00  1.0000000E+00
 13  1  5  5   0   0 -4.2414230E+01 -9.3495323E+01  2.8046356E+02  2.9866394E+02  2.4126264E-05  0.0000000E+00  1.0000000E+00
</event>
<event>
9 100 1.0000000E+00 1.0000000E+03 7.8125000E-03 0.0000000E+00
 21 -1  0  0 501 502  0.0000000E+00  0.0000000E+00  2.9489795E+02  2.9489795E+02  0.0000000E+00  0.0000000E+00  1.0000000E+00
 21 -1  0  0 502 501  0.0000000E+00  0.0000000E+00 -8.3345581E+02  8.3345581E+02  0.0000000E+00  0.0000000E+00  1.0000000E+00
 39  2  1  2   0   0 -1.0231815E-12 -6.0396133E-14 -5.3855786E+02  1.1283538E+03  9.9153297E+02  0.0000000E+00  1.0000000E+00
 23  2  3  3   0   0  1.6073540E+02  8.8162706E+00  2.5408658E+02  3.1440409E+02  9.1522388E+01  0.0000000E+00  1.0000000E+00
 23  2  3  3   0   0 -1.6073540E+02 -8.8162706E+00 -7.9264444E+02  8.1394967E+02  9.1188015E+01  0.0000000E+00  1.0000000E+00
-11  1  4  4   0   0  8.0255262E+01  4.4627831E+01  9.2347928E+01  1.3023321E+02  2.6973983E-06  0.0000000E+00  1.0000000E+00
 11  1  4  4   0   0  8.0480135E+01 -3.5811561E+01  1.6173865E+02  1.8417087E+02  2.3360155E-06  0.0000000E+00  1.0000000E+00
-13  1  5  5   0   0 -7.1452407E+01 -1.2890418E+01 -5.6069727E+02  5.6537867E+02  8.9462581E-06  0.0000000E+00  1.0000000E+00
 13  1  5  5   0   0 -8.9282990E+01  4.0741479E+00 -2.3194718E+02  2.4857100E+02  1.0789593E-05  0.0000000E+00  1.0000000E+00
</event>
<event>
9 100 1.0000000E+00 1.0000000E+03 7.8125000E-03 0.0000000E+00
 21 -1  0  0 501 502  0.0000000E+00  0.0000000E+00  3.6488341E+02  3.6488341E+02  0.0000000E+00  0.0000000E+00  1.0000000E+00
 21 -1  0  0 502 501  0.0000000E+00  0.0000000E+00 -7.0852734E+02  7.0852734E+02  0.0000000E+00  0.0000000E+00  1.0000000E+00
 39  2  1  2   0   0  7.8159701E-13 -2.0605739E-13 -3.4364393E+02  1.0734107E+03  1.0169167E+03  0.0000000E+00  1.0000000E+00
 23  2  3  3   0   0  1.0774409E+02 -2.7725298E+01  3.4290738E+02  3.7200417E+02  9.1783173E+01  0.0000000E+00  1.0000000E+00
 23  2  3  3   0   0 -1.0774409E+02  2.7725298E+01 -6.8655131E+02  7.0140658E+02  9.0779966E+01  0.0000000E+00  1.0000000E+00
-11  1  4  4   0   0  1.2266921E+02 -3.1109307E+01  3.2290584E+02  3.4681941E+02  1.7026492E-06  0.0000000E+00  1.0000000E+00
 11  1  4  4   0   0 -1.4925113E+01  3.3840086E+00  2.0001538E+01  2.5184758E+01  1.3754087E-05  0.0000000E+00  1.0000000E+00
-13  1  5  5   0   0 -7.4374221E+01  3.1608446E+01 -6.3335777E+02  6.3849251E+02  2.6973983E-06  0.0000000E+00  1.0000000E+00
 13  1  5  5   0   0 -3.3369873E+01 -3.8831481E+00 -5.3193542E+01  6.2914070E+01  1.0789593E-05  0.0000000E+00  1.0000000E+00
</event>
<event>
9 100 1.0000000E+00 1.0000000E+03 7.8125000E-03 0.0000000E+00
 21 -1  0  0 501 502  0.0000000E+00  0.0000000E+00  1.0384444E+03  1.0384444E+03  0.0000000E+00  0.0000000E+00  1.0000000E+00
 21 -1  0  0 502 501  0.0000000E+00  0.0000000E+00 -2.4104730E+02  2.4104730E+02  0.0000000E+00  0.0000000E+00  1.0000000E+00
 39  2  1  2   0   0 -9.2370556E-14 -1.8474111E-13  7.9739707E+02  1.2794917E+03  1.0006282E+03  0.0000000E+00  1.0000000E+00
 23  2  3  3   0   0 -5.5579083E+01 -1.1986130E+02  1.0048938E+03  1.0176283E+03  9.1104531E+01  0.0000000E+00  1.0000000E+00
 23  2  3  3   0   0  5.5579083E+01  1.1986130E+02 -2.0749678E+02  2.6186332E+02  8.9787087E+01  0.0000000E+00  1.0000000E+00
-11  1  4  4   0   0 -6.2211535E+01 -1.3103067E+02  8.5929975E+02  8.7145589E+02  2.6973983E-06  0.0000000E+00  1.0000000E+00
 11  1  4  4   0   0  6.6324524E+00  1.1169372E+01  1.4559409E+02  1.4617245E+02  1.8688124E-05  0.0000000E+00  1.0000000E+00
-13  1  5  5   0   0  7.8326278E+01  1.0047434E+02 -1.8422236E+02  2.2398209E+02  5.6621275E-06  0.0000000E+00  1.0000000E+00
 13  1  5  5   0   0 -2.2747196E+01  1.9386965E+01 -2.3274415E+01  3.7881231E+01  1.8492431E-05  0.0000000E+00  1.0000000E+00
</event>
<event>
9 100 1.0000000E+00 1.0000000E+03 7.8125000E-03 0.0000000E+00
 21 -1  0  0 501 502  0.0000000E+00  0.0000000E+00  1.2206119E+03  1.2206119E+03  0.0000000E+00  0.0000000E+00  1.0000000E+00
 21 -1  0  0 502 501  0.0000000E+00  0.0000000E+00 -2.0455992E+02  2.0455992E+02  0.0000000E+00  0.0000000E+00  1.0000000E+00
 39  2  1  2   0   0  1.8758328E-12  5.2580162E-13  1.0160520E+03  1.4251718E+03  9.9937635E+02  0.0000000E+00  1.0000000E+00
 23  2  3  3   0   0 -4.6700378E+02 -1.2717840E+02  3.8733645E+02  6.2652225E+02  9.0739936E+01  0.0000000E+00  1.0000000E+00
 23  2  3  3   0   0  4.6700378E+02  1.2717840E+02  6.2871555E+02  7.9864958E+02  9.1055109E+01  0.0000000E+00  1.0000000E+00
-11  1  4  4   0   0 -3.8137401E+02 -1.0189886E+02  3.5696186E+02  5.3221357E+02  8.2590618E-07  0.0000000E+00  1.0000000E+00
 11  1  4  4   0   0 -8.5629768E+01 -2.5279535E+01  3.0374585E+01  9.4308682E+01  1.7481139E-05  0.0000000E+00  1.0000000E+00
-13  1  5  5   0   0  1.9196886E+02  3.9187154E+01  1.8649135E+02  2.7049344E+02  2.0185481E-05  0.0000000E+00  1.0000000E+00
 13  1  5  5   0   0  2.7503492E+02  8.7991246E+01  4.4222420E+02  5.2815614E+02  1.0789593E-05  0.0000000E+00  1.0000000E+00
</event>
<event>
9 100 1.0000000E+00 1.0000000E+03 7.8125000E-03 0.0000000E+00
 21 -1  0  0 501 502  0.0000000E+00  0.0000000E+00  2.4922718E+02  2.4922718E+02  0.0000000E+00  0.0000000E+00  1.0000000E+00
 21 -1  0  0 502 501  0.0000000E+00  0.0000000E+00 -9.8730452E+02  9.8730452E+02  0.0000000E+00  0.0000000E+00  1.0000000E+00
 39  2  1  2   0   0 -7.5317530E-13  1.2221335E-12 -7.3807734E+02  1.2365317E+03  9.9209500E+02  0.0000000E+00  1.0000000E+00
 23  2  3  3   0   0  1.0265888E+02 -1.7269458E+02  1.8591132E+02  2.8612163E+02  8.3308489E+01  0.0000000E+00  1.0000000E+00
 23  2  3  3   0   0 -1.0265888E+02  1.7269458E+02 -9.2398866E+02  9.5041008E+02  9.5718386E+01  0.0000000E+00  1.0000000E+00
-11  1  4  4   0   0  6.4223107E+00 -4.0879358E+01  8.4188517E+01  9.3808711E+01  1.0619668E-05  0.0000000E+00  1.0000000E+00
 11  1  4  4   0   0  9.6236567E+01 -1.3181522E+02  1.0172280E+02  1.9231292E+02  6.6757202E-06  0.0000000E+00  1.0000000E+00
-13  1  5  5   0   0 -1.1010989E+02  1.0067616E+02 -5.7979073E+02  5.9867952E+02  1.8294645E-05  0.0000000E+00  1.0000000E+00
 13  1  5  5   0   0  7.4510139E+00  7.2018412E+01 -3.4419793E+02  3.5173056E+02  2.6428998E-05  0.0000000E+00  1.0000000E+00
</event>
<event>
9 100 1.0000000E+00 1.0000000E+03 7.8125000E-03 0.0000000E+00
 21 -1  0  0 501 502  0.0000000E+00  0.0000000E+00  2.8652896E+02  2.8652896E+02  0.0000000E+00  0.0000000E+00  1.0000000E+00
 21 -1  0  0 502 501  0.0000000E+00  0.0000000E+00 -8.6943039E+02  8.6943039E+02  0.0000000E+00  0.0000000E+00  1.0000000E+00
 39  2  1  2   0   0 -2.5011104E-12 -1.1368684E-12 -5.8290143E+02  1.1559593E+03  9.9823240E+02  0.0000000E+00  1.0000000E+00
 23  2  3  3   0   0 -2.8502784E+02 -1.2750077E+02 -7.2940255E+02  7.9888198E+02  9.3204177E+01  0.0000000E+00  1.0000000E+00
 23  2  3  3   0   0  2.8502784E+02  1.2750077E+02  1.4650112E+02  3.5707737E+02  9.2435660E+01  0.0000000E+00  1.0000000E+00
-11  1  4  4   0   0 -2.2447885E+02 -5.8374549E+01 -4.8037574E+02  5.3344090E+02  0.0000000E+00  0.0000000E+00  1.0000000E+00
 11  1  4  4   0   0 -6.0548999E+01 -6.9126220E+01 -2.4902681E+02  2.6544108E+02  1.0789593E-05  0.0000000E+00  1.0000000E+00
-13  1  5  5   0   0  9.3798171E+01  7.9336688E+01  8.8874532E+01  1.5162813E+02  4.3702847E-06  0.0000000E+00  1.0000000E+00
 13  1  5  5   0   0  1.9122967E+02  4.8164081E+01  5.7626586E+01  2.0544924E+02  2.1324806E-06  0.0000000E+00  1.0000000E+00
</event>
<event>
9 100 1.0000000E+00 1.0000000E+03 7.8125000E-03 0.0000000E+00
 21 -1  0  0 501 502  0.0000000E+00  0.0000000E+00  2.3497459E+03  2.3497459E+03  0.0000000E+00  0.0000000E+00  1.0000000E+00
 21 -1  0  0 502 501  0.0000000E+00  0.0000000E+00 -1.0676731E+02  1.0676731E+02  0.0000000E+00  0.0000000E+00  1.0000000E+00
 39  2  1  2   0   0 -2.5295321E-12  3.9221959E-12  2.2429786E+03  2.4565132E+03  1.0017505E+03  0.0000000E+00  1.0000000E+00
 23  2  3  3   0   0 -1.4001921E+02  2.1763903E+02  9.2773403E+01  2.8883850E+02  8.8592591E+01  0.0000000E+00  1.0000000E+00
 23  2  3  3   0   0  1.4001921E+02 -2.1763903E+02  2.1502052E+03  2.1676747E+03  9.1973642E+01  0.0000000E+00  1.0000000E+00
-11  1  4  4   0   0 -1.9839169E+01  4.0116934E+01  5.5415972E+01  7.1231250E+01  1.3188664E-05  0.0000000E+00  1.0000000E+00
 11  1  4  4   0   0 -1.2018004E+02  1.7752209E+02  3.7357431E+01  2.1760725E+02  6.2899141E-06  0.0000000E+00  1.0000000E+00
-13  1  5  5   0   0  9.9572025E+01 -9.2542127E+01  1.3392666E+03  1.3461477E+03  1.8688124E-05  0.0000000E+00  1.0000000E+00
 13  1  5  5   0   0  4.0447188E+01 -1.2509690E+02  8.1093862E+02  8.2152703E+02  3.0517578E-05  0.0000000E+00  1.0000000E+00
</event>
<event>
9 100 1.0000000E+00 1.0000000E+03 7.8125000E-03 0.0000000E+00
 21 -1  0  0 501 502  0.0000000E+00  0.0000000E+00  3.3809630E+02  3.3809630E+02  0.0000000E+00  0.0000000E+00  1.0000000E+00
 21 -1  0  0 502 501  0.0000000E+00  0.0000000E+00 -7.1321194E+02  7.1321194E+02  0.0000000E+00  0.0000000E+00  1.0000000E+00
 39  2  1  2   0   0 -3.9790393E-13  1.9895197E-13 -3.7511563E+02  1.0513082E+03  9.8210859E+02  0.0000000E+00  1.0000000E+00
 23  2  3  3   0   0 -2.1458804E+02  1.2319752E+02  2.5597775E+02  3.6712662E+02  8.9619740E+01  0.0000000E+00  1.0000000E+00
 23  2  3  3   0   0  2.1458804E+02 -1.2319752E+02 -6.3109338E+02  6.8418162E+02  9.2736041E+01  0.0000000E+00  1.0000000E+00
-11  1  4  4   0   0 -2.1745399E+02  1.2651138E+02  2.5955575E+02  3.6146999E+02  7.1027132E-07  0.0000000E+00  1.0000000E+00
 11  1  4  4   0   0  2.8659508E+00 -3.3138631E+00 -3.5780064E+00  5.6566326E+00  8.5299224E-06  0.0000000E+00  1.0000000E+00
-13  1  5  5   0   0  1.0819099E+02 -3.4039206E+01 -1.8510561E+02  2.1708994E+02  1.0789593E-05  0.0000000E+00  1.0000000E+00
 13  1  5  5   0   0  1.0639705E+02 -8.9158310E+01 -4.4598778E+02  4.6709168E+02  3.8146973E-06  0.0000000E+00  1.0000000E+00
</event>
<event>
9 100 1.0000000E+00 1.0000000E+03 7.8125000E-03 0.0000000E+00
 21 -1  0  0 501 502  0.0000000E+00  0.0000000E+00  1.2024256E+02  1.2024256E+02  0.0000000E+00  0.0000000E+00  1.0000000E+00
 21 -1  0  0 502 501  0.0000000E+00  0.0000000E+00 -2.1104677E+03  2.1104677E+03  0.0000000E+00  0.0000000E+00  1.0000000E+00
 39  2  1  2   0   0  7.1054274E-13  1.2079227E-13 -1.9902251E+03  2.2307102E+03  1.0075079E+03  0.0000000E+00  1.0000000E+00
 23  2  3  3   0   0 -1.7386131E+02 -3.1462390E+01 -2.0195710E+03  2.0293212E+03  9.0884025E+01  0.0000000E+00  1.0000000E+00
 23  2  3  3   0   0  1.7386131E+02  3.1462390E+01  2.9345887E+01  2.0138903E+02  9.2079992E+01  0.0000000E+00  1.0000000E+00
-11  1  4  4   0   0 -7.8915471E+01 -6.0041347E+00 -4.6844860E+02  4.7508715E+02  6.1035156E-05  0.0000000E+00  1.0000000E+00
 11  1  4  4   0   0 -9.4945837E+01 -2.5458256E+01 -1.5511224E+03  1.5542341E+03  1.4273290E-05  0.0000000E+00  1.0000000E+00
-13  1  5  5   0   0  1.8299379E+02  3.9126088E+01  2.9643866E+01  1.8946329E+02  5.3043529E-06  0.0000000E+00  1.0000000E+00
 13  1  5  5   0   0 -9.1324855E+00 -7.6636980E+00 -2.9797871E-01  1.1925743E+01  2.1311474E-05  0.0000000E+00  1.0000000E+00
</event>
<event>
9 100 1.0000000E+00 1.0000000E+03 7.8125000E-03 0.0000000E+00
 21 -1  0  0 501 502  0.0000000E+00  0.0000000E+00  2.0922610E+03  2.0922610E+03  0.0000000E+00  0.0000000E+00  1.0000000E+00
 21 -1  0  0 502 501  0.0000000E+00  0.0000000E+00 -1.1991639E+02  1.1991639E+02  0.0000000E+00  0.0000000E+00  1.0000000E+00
 39  2  1  2   0   0 -2.7000624E-12 -3.4106051E-12  1.9723446E+03  2.2121774E+03  1.0017912E+03  0.0000000E+00  1.0000000E+00
 23  2  3  3   0   0 -2.4336709E+02 -3.0996772E+02  3.3406365E+02  5.2457749E+02  9.0969756E+01  0.0000000E+00  1.0000000E+00
 23  2  3  3   0   0  2.4336709E+02  3.0996772E+02  1.6382810E+03  1.6875999E+03  9.3388291E+01  0.0000000E+00  1.0000000E+00
-11  1  4  4   0   0 -5.3475201E+01 -4.3653945E+01  1.0346846E+02  1.2438242E+02  2.5872536E-05  0.0000000E+00  1.0000000E+00
 11  1  4  4   0   0 -1.8989189E+02 -2.6631377E+02  2.3059519E+02  4.0019508E+02  1.0002221E-05  0.0000000E+00  1.0000000E+00
-13  1  5  5   0   0  1.5314902E+02  1.2513549E+02  8.7715196E+02  8.9917133E+02  2.4126264E-05  0.0000000E+00  1.0000000E+00
 13  1  5  5   0   0  9.0218075E+01  1.8483223E+02  7.6112903E+02  7.8842859E+02  2.8546580E-05  0.0000000E+00  1.0000000E+00
</event>
<event>
9 100 1.0000000E+00 1.0000000E+03 7.8125000E-03 0.0000000E+00
 21 -1  0  0 501 502  0.0000000E+00  0.0000000E+00  4.0107589E+02  4.0107589E+02  0.0000000E+00  0.0000000E+00  1.0000000E+00
 21 -1  0  0 502 501  0.0000000E+00  0.0000000E+00 -6.2551517E+02  6.2551517E+02  0.0000000E+00  0.0000000E+00  1.0000000E+00
 39  2  1  2   0   0  7.3896445E-13 -3.5527137E-15 -2.2443928E+02  1.0265911E+03  1.0017566E+03  0.0000000E+00  1.0000000E+00
 23  2  3  3   0   0  3.2457858E+02 -3.6446022E-01  2.6452068E+02  4.3239963E+02  1.0792062E+02  0.0000000E+00  1.0000000E+00
 23  2  3  3   0   0 -3.2457858E+02  3.6446022E-01 -4.8895996E+02  5.9419143E+02  9.2899035E+01  0.0000000E+00  1.0000000E+00
-11  1  4  4   0   0  3.2028582E+02  1.5622061E+01  2.6476405E+02  4.1584500E+02  1.6663836E-06  0.0000000E+00  1.0000000E+00
 11  1  4  4   0   0  4.2927561E+00 -1.5986521E+01 -2.4336932E-01  1.6554632E+01  1.0092740E-05  0.0000000E+00  1.0000000E+00
-13  1  5  5   0   0 -6.8225849E+01  9.1088399E+00 -4.7523674E+01  8.3643511E+01  1.2063132E-05  0.0000000E+00  1.0000000E+00
 13  1  5  5   0   0 -2.5635273E+02 -8.7443796E+00 -4.4143629E+02  5.1054792E+02  3.2340670E-06  0.0000000E+00  1.0000000E+00
</event>
<event>
9 100 1.0000000E+00 1.0000000E+03 7.8125000E-03 0.0000000E+00
 21 -1  0  0 501 502  0.0000000E+00  0.0000000E+00  3.5832261E+03  3.5832261E+03  0.0000000E+00  0.0000000E+00  1.0000000E+00
 21 -1  0  0 502 501  0.0000000E+00  0.0000000E+00 -6.9558947E+01  6.9558947E+01  0.0000000E+00  0.0000000E+00  1.0000000E+00
 39  2  1  2   0   0  5.6417093E-12 -2.4215296E-11  3.5136671E+03  3.6527850E+03  9.9848973E+02  0.0000000E+00  1.0000000E+00
 23  2  3  3   0   0 -6.5466960E+01  2.8035846E+02  3.1937140E+03  3.2123877E+03  1.9167249E+02  0.0000000E+00  1.0000000E+00
 23  2  3  3   0   0  6.5466960E+01 -2.8035846E+02  3.1995310E+02  4.4039737E+02  9.3236618E+01  0.0000000E+00  1.0000000E+00
-11  1  4  4   0   0 -1.2127924E+02  1.0253113E+02  1.5699075E+03  1.5779198E+03  9.4061493E-05  0.0000000E+00  1.0000000E+00
 11  1  4  4   0   0  5.5812280E+01  1.7782733E+02  1.6238066E+03  1.6344679E+03  4.8252528E-05  0.0000000E+00  1.0000000E+00
-13  1  5  5   0   0  6.9867630E+00 -1.5202192E+02  2.2012527E+02  2.6760907E+02  1.3419387E-05  0.0000000E+00  1.0000000E+00
 13  1  5  5   0   0  5.8480197E+01 -1.2833654E+02  9.9827826E+01  1.7278830E+02  2.0185481E-05  0.0000000E+00  1.0000000E+00
</event>
<event>
9 100 1.0000000E+00 1.0000000E+03 7.8125000E-03 0.0000000E+00
 21 -1  0  0 501 502  0.0000000E+00  0.0000000E+00  5.8148087E+02  5.8148087E+02  0.0000000E+00  0.0000000E+00  1.0000000E+00
 21 -1  0  0 502 501  0.0000000E+00  0.0000000E+00 -4.3655713E+02  4.3655713E+02  0.0000000E+00  0.0000000E+00  1.0000000E+00
 39  2  1  2   0   0  1.9326762E-12 -2.3447910E-13  1.4492374E+02  1.0180380E+03  1.0076698E+03  0.0000000E+00  1.0000000E+00
 23  2  3  3   0   0  4.8041200E+02 -5.5159997E+01  1.8166044E+02  5.2456527E+02  9.1268250E+01  0.0000000E+00  1.0000000E+00
 23  2  3  3   0   0 -4.8041200E+02  5.5159997E+01 -3.6736694E+01  4.9347273E+02  9.1254807E+01  0.0000000E+00  1.0000000E+00
-11  1  4  4   0   0  1.1929910E+02 -3.5966135E+01  1.2177016E+01  1.2519631E+02  1.0271387E-05  0.0000000E+00  1.0000000E+00
 11  1  4  4   0   0  3.6111290E+02 -1.9193861E+01  1.6948342E+02  3.9936895E+02  2.1391342E-06  0.0000000E+00  1.0000000E+00
-13  1  5  5   0   0 -3.2740631E+02  7.3730917E+01 -4.7587367E+01  3.3896268E+02  7.6943109E-06  0.0000000E+00  1.0000000E+00
 13  1  5  5   0   0 -1.5300568E+02 -1.8570920E+01  1.0850674E+01  1.5451005E+02  1.5597751E-05  0.0000000E+00  1.0000000E+00
</event>
<event>
9 100 1.0000000E+00 1.0000000E+03 7.8125000E-03 0.0000000E+00
 21 -1  0  0 501 502  0.0000000E+00  0.0000000E+00  1.0956563E+03  1.0956563E+03  0.0000000E+00  0.0000000E+00  1.0000000E+00
 21 -1  0  0 502 501  0.0000000E+00  0.0000000E+00 -2.3276536E+02  2.3276536E+02  0.0000000E+00  0.0000000E+00  1.0000000E+00
 39  2  1  2   0   0 -3.9790393E-13  5.6843419E-13  8.6289097E+02  1.3284217E+03  1.0100116E+03  0.0000000E+00  1.0000000E+00
 23  2  3  3   0   0  2.5412548E+02 -4.2611157E+02  4.0504731E+02  6.4698625E+02  9.1526219E+01  0.0000000E+00  1.0000000E+00
 23  2  3  3   0   0 -2.5412548E+02  4.2611157E+02  4.5784366E+02  6.8143545E+02  9.2642461E+01  0.0000000E+00  1.0000000E+00
-11  1  4  4   0   0  1.5153448E+01 -4.7730228E+01  7.8007628E+01  9.2698391E+01  1.0092740E-05  0.0000000E+00  1.0000000E+00
 11  1  4  4   0   0  2.3897203E+02 -3.7838135E+02  3.2703968E+02  5.5428786E+02  4.2649612E-06  0.0000000E+00  1.0000000E+00
-13  1  5  5   0   0 -1.7740498E+02  3.0351316E+02  3.7808203E+02  5.1627395E+02  1.3486992E-06  0.0000000E+00  1.0000000E+00
 13  1  5  5   0   0 -7.6720502E+01  1.2259841E+02  7.9761635E+01  1.6516151E+02  5.3947966E-06  0.0000000E+00  1.0000000E+00
</event>
<event>
9 100 1.0000000E+00 1.0000000E+03 7.8125000E-03 0.0000000E+00
 21 -1  0  0 501 502  0.0000000E+00  0.0000000E+00  1.6568073E+03  1.6568073E+03  0.0000000E+00  0.0000000E+00  1.0000000E+00
 21 -1  0  0 502 501  0.0000000E+00  0.0000000E+00 -1.5500184E+02  1.5500184E+02  0.0000000E+00  0.0000000E+00  1.0000000E+00
 39  2  1  2   0   0  6.6791017E-12 -2.0463631E-12  1.5018054E+03  1.8118091E+03  1.0135249E+03  0.0000000E+00  1.0000000E+00
 23  2  3  3   0   0 -2.3992541E+02  7.3853215E+01  1.5211187E+03  1.5443948E+03  9.1294964E+01  0.0000000E+00  1.0000000E+00
 23  2  3  3   0   0  2.3992541E+02 -7.3853215E+01 -1.9313280E+01  2.6741428E+02  9.0104902E+01  0.0000000E+00  1.0000000E+00
-11  1  4  4   0   0 -6.2543094E+01  1.7214515E+01  6.7067628E+02  6.7380609E+02  1.0789593E-05  0.0000000E+00  1.0000000E+00
 11  1  4  4   0   0 -1.7738231E+02  5.6638700E+01  8.5044245E+02  8.7058876E+02  1.8688124E-05  0.0000000E+00  1.0000000E+00
-13  1  5  5   0   0  1.4228475E+02 -7.0277601E+01 -4.7629294E+01  1.6568778E+02  8.4831461E-06  0.0000000E+00  1.0000000E+00
 13  1  5  5   0   0  9.7640653E+01 -3.5756138E+00  2.8316014E+01  1.0172649E+02  1.2250168E-05  0.0000000E+00  1.0000000E+00
</event>
<event>
9 100 1.0000000E+00 1.0000000E+03 7.8125000E-03 0.0000000E+00
 21 -1  0  0 501 502  0.0000000E+00  0.0000000E+00  9.0200130E+02  9.0200130E+02  0.0000000E+00  0.0000000E+00  1.0000000E+00
 21 -1  0  0 502 501  0.0000000E+00  0.0000000E+00 -2.7487633E+02  2.7487633E+02  0.0000000E+00  0.0000000E+00  1.0000000E+00
 39  2  1  2   0   0 -1.4779289E-12  1.8474111E-13  6.2712497E+02  1.1768776E+03  9.9586908E+02  0.0000000E+00  1.0000000E+00
 23  2  3  3   0   0 -3.3329034E+02  4.1319666E+01  7.3374132E+02  8.1228571E+02  9.2962233E+01  0.0000000E+00  1.0000000E+00
 23  2  3  3   0   0  3.3329034E+02 -4.1319666E+01 -1.0661636E+02  3.6459192E+02  9.3650719E+01  0.0000000E+00  1.0000000E+00
-11  1  4  4   0   0 -5.3741538E+01  4.2164829E+01  1.6400365E+02  1.7766041E+02  2.0185481E-05  0.0000000E+00  1.0000000E+00
 11  1  4  4   0   0 -2.7954880E+02 -8.4516370E-01  5.6973768E+02  6.3462530E+02  6.0315660E-06  0.0000000E+00  1.0000000E+00
-13  1  5  5   0   0  3.3722657E+02 -3.9612440E+01 -9.5565525E+01  3.5273741E+02  2.5484035E-06  0.0000000E+00  1.0000000E+00
 13  1  5  5   0   0 -3.9362384E+00 -1.7072254E+00 -1.1050833E+01  1.1854514E+01  1.5958024E-05  0.0000000E+00  1.0000000E+00
</event>
<event>
9 100 1.0000000E+00 1.0000000E+03 7.8125000E-03 0.0000000E+00
 21 -1  0  0 501 502  0.0000000E+00  0.0000000E+00  6.0772582E+02  6.0772582E+02  0.0000000E+00  0.0000000E+00  1.0000000E+00
 21 -1  0  0 502 501  0.0000000E+00  0.0000000E+00 -4.1828240E+02  4.1828240E+02  0.0000000E+00  0.0000000E+00  1.0000000E+00
 39  2  1  2   0   0  1.7053026E-13 -7.9580786E-13  1.8944343E+02  1.0260082E+03  1.0083670E+03  0.0000000E+00  1.0000000E+00
 23  2  3  3   0   0 -7.2385857E+01  3.5170970E+02  4.4411965E+02  5.7836663E+02  9.1248412E+01  0.0000000E+00  1.0000000E+00
 23  2  3  3   0   0  7.2385857E+01 -3.5170970E+02 -2.5467623E+02  4.4764159E+02  8.1139323E+01  0.0000000E+00  1.0000000E+00
-11  1  4  4   0   0  2.4219570E+00  1.7321039E+02  2.5085100E+02  3.0485067E+02  8.5299224E-06  0.0000000E+00  1.0000000E+00
 11  1  4  4   0   0 -7.4807814E+01  1.7849930E+02  1.9326866E+02  2.7351597E+02  5.3947966E-06  0.0000000E+00  1.0000000E+00
-13  1  5  5   0   0  2.4200155E+01 -8.3359831E+01 -1.0630831E+02  1.3724418E+02  9.1473227E-06  0.0000000E+00  1.0000000E+00
 13  1  5  5   0   0  4.8185702E+01 -2.6834987E+02 -1.4836792E+02  3.1039741E+02  4.2649612E-06  0.0000000E+00  1.0000000E+00
</event>
<event>
9 100 1.0000000E+00 1.0000000E+03 7.8125000E-03 0.0000000E+00
 21 -1  0  0 501 502  0.0000000E+00  0.0000000E+00  1.7428101E+02  1.7428101E+02  0.0000000E+00  0.0000000E+00  1.0000000E+00
 21 -1  0  0 502 501  0.0000000E+00  0.0000000E+00 -1.4290227E+03  1.4290227E+03  0.0000000E+00  0.0000000E+00  1.0000000E+00
 39  2  1  2   0   0 -2.6147973E-12  1.3926638E-12 -1.2547417E+03  1.6033037E+03  9.9810123E+02  0.0000000E+00  1.0000000E+00
 23  2  3  3   0   0 -3.9830060E+02  2.1551217E+02 -9.3036827E+02  1.0386930E+03  9.0604445E+01  0.0000000E+00  1.0000000E+00
 23  2  3  3   0   0  3.9830060E+02 -2.1551217E+02 -3.2437345E+02  5.6461073E+02  9.2077559E+01  0.0000000E+00  1.0000000E+00
-11  1  4  4   0   0 -2.0220800E+02  7.0564681E+01 -3.6895693E+02  4.2661067E+02  0.0000000E+00  0.0000000E+00  1.0000000E+00
 11  1  4  4   0   0 -1.9609260E+02  1.4494749E+02 -5.6141134E+02  6.1208232E+02  5.3947966E-06  0.0000000E+00  1.0000000E+00
-13  1  5  5   0   0  3.1226243E+02 -1.9062707E+02 -2.9618652E+02  4.7071537E+02  2.0230487E-06  0.0000000E+00  1.0000000E+00
 13  1  5  5   0   0  8.6038172E+01 -2.4885098E+01 -2.8186922E+01  9.3895355E+01  1.2651920E-05  0.0000000E+00  1.0000000E+00
</event>
<event>
9 100 1.0000000E+00 1.0000000E+03 7.8125000E-03 0.0000000E+00
 21 -1  0  0 501 502  0.0000000E+00  0.0000000E+00  3.0791636E+02  3.0791636E+02  0.0000000E+00  0.0000000E+00  1.0000000E+00
 21 -1  0  0 502 501  0.0000000E+00  0.0000000E+00 -8.2059448E+02  8.2059448E+02  0.0000000E+00  0.0000000E+00  1.0000000E+00
 39  2  1  2   0   0  3.9221959E-12 -1.6768809E-12 -5.1267812E+02  1.1285108E+03  1.0053347E+03  0.0000000E+00  1.0000000E+00
 23  2  3  3   0   0 -3.3775157E+02  1.4490312E+02  1.1473315E+02  3.9558421E+02  9.0830231E+01  0.0000000E+00  1.0000000E+00
 23  2  3  3   0   0  3.3775157E+02 -1.4490312E+02 -6.2741126E+02  7.3292664E+02  9.1997394E+01  0.0000000E+00  1.0000000E+00
-11  1  4  4   0   0 -1.5015900E+02  1.0334629E+02  8.5100211E+01  2.0117213E+02  3.9320999E-06  0.0000000E+00  1.0000000E+00
 11  1  4  4   0   0 -1.8759258E+02  4.1556828E+01  2.9632936E+01  1.9441208E+02  4.8628039E-06  0.0000000E+00  1.0000000E+00
-13  1  5  5   0   0  2.8736335E+02 -1.2073804E+02 -5.8469087E+02  6.6258493E+02  2.9394217E-06  0.0000000E+00  1.0000000E+00
 13  1  5  5   0   0  5.0388226E+01 -2.4165080E+01 -4.2720393E+01  7.0341711E+01  1.8688124E-05  0.0000000E+00  1.0000000E+00
</event>
<event>
9 100 1.0000000E+00 1.0000000E+03 7.8125000E-03 0.0000000E+00
 21 -1  0  0 501 502  0.0000000E+00  0.0000000E+00  1.4148472E+02  1.4148472E+02  0.0000000E+00  0.0000000E+00  1.0000000E+00
 21 -1  0  0 502 501  0.0000000E+00  0.0000000E+00 -1.7389686E+03  1.7389686E+03  0.0000000E+00  0.0000000E+00  1.0000000E+00
 39  2  1  2   0   0 -4.2632564E-13 -6.2527761E-13 -1.5974839E+03  1.8804533E+03  9.9204332E+02  0.0000000E+00  1.0000000E+00
 23  2  3  3   0   0  2.4216548E+02  3.4859419E+02 -3.3751137E+02  5.4775017E+02  7.7164080E+01  0.0000000E+00  1.0000000E+00
 23  2  3  3   0   0 -2.4216548E+02 -3.4859419E+02 -1.2599725E+03  1.3327031E+03  9.1678507E+01  0.0000000E+00  1.0000000E+00
-11  1  4  4   0   0  6.4946757E+01  1.2503355E+02 -1.5304327E+02  2.0802335E+02  0.0000000E+00  0.0000000E+00  1.0000000E+00
 11  1  4  4   0   0  1.7721872E+02  2.2356064E+02 -1.8446810E+02  3.3972683E+02  3.8146973E-06  0.0000000E+00  1.0000000E+00
-13  1  5  5   0   0 -1.8091211E+02 -3.1483950E+02 -1.0905048E+03  1.1493711E+03  3.3036247E-06  0.0000000E+00  1.0000000E+00
 13  1  5  5   0   0 -6.1253371E+01 -3.3754689E+01 -1.6946767E+02  1.8333207E+02  2.1579186E-05  0.0000000E+00  1.0000000E+00
</event>
<event>
9 100 1.0000000E+00 1.0000000E+03 7.8125000E-03 0.0000000E+00
 21 -1  0  0 501 502  0.0000000E+00  0.0000000E+00  6.4428704E+02  6.4428704E+02  0.0000000E+00  0.0000000E+00  1.0000000E+00
 21 -1  0  0 502 501  0.0000000E+00  0.0000000E+00 -3.9157799E+02  3.9157799E+02  0.0000000E+00  0.0000000E+00  1.0000000E+00
 39  2  1  2   0   0  1.9895197E-13  3.4106051E-13  2.5270905E+02  1.0358650E+03  1.0045668E+03  0.0000000E+00  1.0000000E+00
 23  2  3  3   0   0 -1.4508078E+02 -2.6122816E+02  5.3202382E+02  6.1687733E+02  9.0552310E+01  0.0000000E+00  1.0000000E+00
 23  2  3  3   0   0  1.4508078E+02  2.6122816E+02 -2.7931476E+02  4.1898769E+02  9.0804021E+01  0.0000000E+00  1.0000000E+00
-11  1  4  4   0   0 -8.2864820E+01 -7.7328816E+01  2.4999847E+02  2.7449146E+02  8.5299224E-06  0.0000000E+00  1.0000000E+00
 11  1  4  4   0   0 -6.2215958E+01 -1.8389934E+02  2.8202534E+02  3.4238588E+02  6.6072495E-06  0.0000000E+00  1.0000000E+00
-13  1  5  5   0   0 -5.3031099E-01  7.8472788E+01 -7.6086770E+01  1.0930442E+02  0.0000000E+00  0.0000000E+00  1.0000000E+00
 13  1  5  5   0   0  1.4561109E+02  1.8275537E+02 -2.0322799E+02  3.0968327E+02  2.1324806E-06  0.0000000E+00  1.0000000E+00
</event>
<event>
9 100 1.0000000E+00 1.0000000E+03 7.8125000E-03 0.0000000E+00
 21 -1  0  0 501 502  0.0000000E+00  0.0000000E+00  5.0425004E+02  5.0425004E+02  0.0000000E+00  0.0000000E+00  1.0000000E+00
 21 -1  0  0 502 501  0.0000000E+00  0.0000000E+00 -2.9415643E+02  2.9415643E+02  0.0000000E+00  0.0000000E+00  1.0000000E+00
 39  2  1  2   0   0 -7.9580786E-13  4.9737992E-14  2.1009362E+02  7.9840647E+02  7.7026850E+02  0.0000000E+00  1.0000000E+00
 23  2  3  3   0   0 -2.6623441E+02  1.7037865E+01 -1.6684157E+02  3.2777014E+02  9.1793839E+01  0.0000000E+00  1.0000000E+00
 23  2  3  3   0   0  2.6623441E+02 -1.7037865E+01  3.7693519E+02  4.7063633E+02  9.0815037E+01  0.0000000E+00  1.0000000E+00
-11  1  4  4   0   0 -2.3386993E+02  2.1249866E+01 -1.0373801E+02  2.5672607E+02  2.2365645E-06  0.0000000E+00  1.0000000E+00
 11  1  4  4   0   0 -3.2364472E+01 -4.2120004E+00 -6.3103563E+01  7.1044068E+01  1.0533677E-05  0.0000000E+00  1.0000000E+00
-13  1  5  5   0   0  9.8922192E+01  3.0785644E+01  1.0289804E+02  1.4601836E+02  7.6293945E-06  0.0000000E+00  1.0000000E+00
 13  1  5  5   0   0  1.6731221E+02 -4.7823510E+01  2.7403715E+02  3.2461797E+02  5.0463701E-06  0.0000000E+00  1.0000000E+00
</event>
<event>
9 100 1.0000000E+00 1.0000000E+03 7.8125000E-03 0.0000000E+00
 21 -1  0  0 501 502  0.0000000E+00  0.0000000E+00  9.4788757E+02  9.4788757E+02  0.0000000E+00  0.0000000E+00  1.0000000E+00
 21 -1  0  0 502 501  0.0000000E+00  0.0000000E+00 -2.6349970E+02  2.6349970E+02  0.0000000E+00  0.0000000E+00  1.0000000E+00
 39  2  1  2   0   0  7.9580786E-13 -3.0198066E-14  6.8438788E+02  1.2113873E+03  9.9953607E+02  0.0000000E+00  1.0000000E+00
 23  2  3  3   0   0  1.4224605E+02 -4.7720351E+00  9.1254381E+02  9.2811058E+02  9.1631487E+01  0.0000000E+00  1.0000000E+00
 23  2  3  3   0   0 -1.4224605E+02  4.7720351E+00 -2.2815594E+02  2.8327669E+02  8.9072115E+01  0.0000000E+00  1.0000000E+00
-11  1  4  4   0   0  1.0617322E+02 -1.6358140E+01  8.3417432E+02  8.4106310E+02  2.5231851E-06  0.0000000E+00  1.0000000E+00
 11  1  4  4   0   0  3.6072826E+01  1.1586105E+01  7.8369497E+01  8.7047485E+01  1.5258789E-05  0.0000000E+00  1.0000000E+00
-13  1  5  5   0   0 -1.4196160E+02  2.4042099E+01 -2.1861996E+02  2.6177434E+02  2.3960771E-06  0.0000000E+00  1.0000000E+00
 13  1  5  5   0   0 -2.8445262E-01 -1.9270064E+01 -9.5359730E+00  2.1502350E+01  1.2361032E-05  0.0000000E+00  1.0000000E+00
</event>
<event>
9 100 1.0000000E+00 1.0000000E+03 7.8125000E-03 0.0000000E+00
 21 -1  0  0 501 502  0.0000000E+00  0.0000000E+00  2.5229855E+02  2.5229855E+02  0.0000000E+00  0.0000000E+00  1.0000000E+00
 21 -1  0  0 502 501  0.0000000E+00  0.0000000E+00 -1.0191972E+03  1.0191972E+03  0.0000000E+00  0.0000000E+00  1.0000000E+00
 39  2  1  2   0   0 -2.2737368E-12 -2.7000624E-12 -7.6689866E+02  1.2714958E+03  1.0141834E+03  0.0000000E+00  1.0000000E+00
 23  2  3  3   0   0  1.6925249E+02  2.0699191E+02  1.4470067E+02  3.1728074E+02  9.0756405E+01  0.0000000E+00  1.0000000E+00
 23  2  3  3   0   0 -1.6925249E+02 -2.0699191E+02 -9.1159933E+02  9.5421502E+02  8.9559505E+01  0.0000000E+00  1.0000000E+00
-11  1  4  4   0   0  6.9920587E+01  2.9421951E+01  6.0713585E+01  9.7163157E+01  7.6293945E-06  0.0000000E+00  1.0000000E+00
 11  1  4  4   0   0  9.9331901E+01  1.7756996E+02  8.3987082E+01  2.2011758E+02  3.6935647E-06  0.0000000E+00  1.0000000E+00
-13  1  5  5   0   0 -1.5535306E+02 -1.9273444E+02 -7.1562969E+02  7.5723642E+02  7.1366451E-06  0.0000000E+00  1.0000000E+00
 13  1  5  5   0   0 -1.3899430E+01 -1.4257473E+01 -1.9596964E+02  1.9697860E+02  1.5258789E-05  0.0000000E+00  1.0000000E+00
</event>
<event>
9 100 1.0000000E+00 1.0000000E+03 7.8125000E-03 0.0000000E+00
 21 -1  0  0 501 502  0.0000000E+00  0.0000000E+00  1.8912505E+03  1.8912505E+03  0.0000000E+00  0.0000000E+00  1.0000000E+00
 21 -1  0  0 502 501  0.0000000E+00  0.0000000E+00 -1.3403888E+02  1.3403888E+02  0.0000000E+00  0.0000000E+00  1.0000000E+00
 39  2  1  2   0   0 -1.0231815E-12 -3.7800874E-12  1.7572116E+03  2.0252894E+03  1.0069778E+03  0.0000000E+00  1.0000000E+00
 23  2  3  3   0   0 -5.8943972E+01 -2.1794136E+02 -6.0923073E+00  2.4516025E+02  9.5360407E+01  0.0000000E+00  1.0000000E+00
 23  2  3  3   0   0  5.8943972E+01  2.1794136E+02  1.7633039E+03  1.7801291E+03  9.2984603E+01  0.0000000E+00  1.0000000E+00
-11  1  4  4   0   0  2.1339620E+00 -1.5841448E+02 -1.6294917E+01  1.5926464E+02  4.4042953E-06  0.0000000E+00  1.0000000E+00
 11  1  4  4   0   0 -6.1077934E+01 -5.9526873E+01  1.0202610E+01  8.5895610E+01  6.9755263E-06  0.0000000E+00  1.0000000E+00
-13  1  5  5   0   0  1.4066518E+01  3.3530472E+01  1.0749329E+02  1.1347672E+02  7.1570065E-05  0.0000000E+00  1.0000000E+00
 13  1  5  5   0   0  4.4877454E+01  1.8441088E+02  1.6558106E+03  1.6666524E+03  6.3259598E-06  0.0000000E+00  1.0000000E+00
</event>
<event>
9 100 1.0000000E+00 1.0000000E+03 7.8125000E-03 0.0000000E+00
 21 -1  0  0 501 502  0.0000000E+00  0.0000000E+00  6.6031572E+02  6.6031572E+02  0.0000000E+00  0.0000000E+00  1.0000000E+00
 21 -1  0  0 502 501  0.0000000E+00  0.0000000E+00 -3.9489192E+02  3.9489192E+02  0.0000000E+00  0.0000000E+00  1.0000000E+00
 39  2  1  2   0   0  5.1159077E-13  1.7053026E-12  2.6542380E+02  1.0552076E+03  1.0212803E+03  0.0000000E+00  1.0000000E+00
 23  2  3  3   0   0 -1.3070261E+02 -4.5494082E+02  3.0207151E+02  5.6911378E+02  9.2676705E+01  0.0000000E+00  1.0000000E+00
 23  2  3  3   0   0  1.3070261E+02  4.5494082E+02 -3.6647711E+01  4.8609386E+02  1.0435450E+02  0.0000000E+00  1.0000000E+00
-11  1  4  4   0   0 -1.9502552E+01 -7.4974972E+00  1.7949933E+01  2.7545636E+01  9.3440618E-06  0.0000000E+00  1.0000000E+00
 11  1  4  4   0   0 -1.1120006E+02 -4.4744332E+02  2.8412157E+02  5.4156814E+02  1.2839233E-06  0.0000000E+00  1.0000000E+00
-13  1  5  5   0   0  1.4016797E+02  3.3542645E+02 -1.2212453E+01  3.6374044E+02  7.3253114E-06  0.0000000E+00  1.0000000E+00
 13  1  5  5   0   0 -9.4653554E+00  1.1951437E+02 -2.4435258E+01  1.2235342E+02  1.5437488E-05  0.0000000E+00  1.0000000E+00
</event>
<event>
9 100 1.0000000E+00 1.0000000E+03 7.8125000E-03 0.0000000E+00
 21 -1  0  0 501 502  0.0000000E+00  0.0000000E+00  8.4327566E+02  8.4327566E+02  0.0000000E+00  0.0000000E+00  1.0000000E+00
 21 -1  0  0 502 501  0.0000000E+00  0.0000000E+00 -2.9604006E+02  2.9604006E+02  0.0000000E+00  0.0000000E+00  1.0000000E+00
 39  2  1  2   0   0 -1.0231815E-12  1.3642421E-12  5.4723559E+02  1.1393157E+03  9.9928650E+02  0.0000000E+00  1.0000000E+00
 23  2  3  3   0   0  2.4235603E+02 -3.3509447E+02  5.7429235E+02  7.1336326E+02  8.9725678E+01  0.0000000E+00  1.0000000E+00
 23  2  3  3   0   0 -2.4235603E+02  3.3509447E+02 -2.7056752E+01  4.2595246E+02  9.8380283E+01  0.0000000E+00  1.0000000E+00
-11  1  4  4   0   0  5.3235000E+01 -3.6839293E+01  5.2799565E+01  8.3539768E+01  2.4126264E-05  0.0000000E+00  1.0000000E+00
 11  1  4  4   0   0  1.8912103E+02 -2.9825518E+02  5.2149278E+02  6.2982350E+02  3.8146973E-06  0.0000000E+00  1.0000000E+00
-13  1  5  5   0   0 -2.4722282E+02  3.2308432E+02 -1.3277196E+01  4.0703672E+02  1.1055015E-06  0.0000000E+00  1.0000000E+00
 13  1  5  5   0   0  4.8667882E+00  1.2010144E+01 -1.3779556E+01  1.8915743E+01  7.7550201E-06  0.0000000E+00  1.0000000E+00
</event>
<event>
9 100 1.0000000E+00 1.0000000E+03 7.8125000E-03 0.0000000E+00
 21 -1  0  0 501 502  0.0000000E+00  0.0000000E+00  1.7960708E+03  1.7960708E+03  0.0000000E+00  0.0000000E+00  1.0000000E+00
 21 -1  0  0 502 501  0.0000000E+00  0.0000000E+00 -1.3767887E+02  1.3767887E+02  0.0000000E+00  0.0000000E+00  1.0000000E+00
 39  2  1  2   0   0 -1.7053026E-13 -1.4210855E-13  1.6583919E+03  1.9337497E+03  9.9454714E+02  0.0000000E+00  1.0000000E+00
 23  2  3  3   0   0  1.9077807E+02  1.9575723E+02  4.6433830E+01  2.9610936E+02  1.0395904E+02  0.0000000E+00  1.0000000E+00
 23  2  3  3   0   0 -1.9077807E+02 -1.9575723E+02  1.6119581E+03  1.6376403E+03  9.3486568E+01  0.0000000E+00  1.0000000E+00
-11  1  4  4   0   0  1.0336819E+02  1.2791194E+02 -2.2127161E+01  1.6593992E+02  1.1162472E-05  0.0000000E+00  1.0000000E+00
 11  1  4  4   0   0  8.7409881E+01  6.7845299E+01  6.8560991E+01  1.3016943E+02  1.3291702E-05  0.0000000E+00  1.0000000E+00
-13  1  5  5   0   0 -1.4573998E+02 -1.5521712E+02  1.4322905E+03  1.4480292E+03  1.0789593E-05  0.0000000E+00  1.0000000E+00
 13  1  5  5   0   0 -4.5038092E+01 -4.0540110E+01  1.7966764E+02  1.8961116E+02  5.5016346E-05  0.0000000E+00  1.0000000E+00
</event>
<event>
9 100 1.0000000E+00 1.0000000E+03 7.8125000E-03 0.0000000E+00
 21 -1  0  0 501 502  0.0000000E+00  0.0000000E+00  3.2319432E+02  3.2319432E+02  0.0000000E+00  0.0000000E+00  1.0000000E+00
 21 -1  0  0 502 501  0.0000000E+00  0.0000000E+00 -7.7393740E+02  7.7393740E+02  0.0000000E+00  0.0000000E+00  1.0000000E+00
 39  2  1  2   0   0  1.6342483E-13 -9.6633812E-13 -4.5074308E+02  1.0971317E+03  1.0002643E+03  0.0000000E+00  1.0000000E+00
 23  2  3  3   0   0 -6.0304775E+01  3.6158448E+02 -5.8858108E+02  6.9475704E+02  4.3355052E+01  0.0000000E+00  1.0000000E+00
 23  2  3  3   0   0  6.0304775E+01 -3.6158448E+02  1.3783800E+02  4.0237467E+02  9.2336681E+01  0.0000000E+00  1.0000000E+00
-11  1  4  4   0   0 -1.8406926E+01  7.9327317E+01 -1.0013991E+02  1.2907223E+02  1.9451216E-05  0.0000000E+00  1.0000000E+00
 11  1  4  4   0   0 -4.1897849E+01  2.8225716E+02 -4.8844117E+02  5.6568482E+02  6.0315660E-06  0.0000000E+00  1.0000000E+00
-13  1  5  5   0   0 -5.4133426E-01 -1.1231609E+02  8.3862727E+01  1.4017187E+02  7.6293945E-06  0.0000000E+00  1.0000000E+00
 13  1  5  5   0   0  6.0846109E+01 -2.4926838E+02  5.3975274E+01  2.6220280E+02  3.9320999E-06  0.0000000E+00  1.0000000E+00
</event>
<event>
9 100 1.0000000E+00 1.0000000E+03 7.8125000E-03 0.0000000E+00
 21 -1  0  0 501 502  0.0000000E+00  0.0000000E+00  2.7286018E+02  2.7286018E+02  0.0000000E+00  0.0000000E+00  1.0000000E+00
 21 -1  0  0 502 501  0.0000000E+00  0.0000000E+00 -9.1192004E+02  9.1192004E+02  0.0000000E+00  0.0000000E+00  1.0000000E+00
 39  2  1  2   0   0 -9.2370556E-14 -7.9580786E-13 -6.3905986E+02  1.1847802E+03  9.9765057E+02  0.0000000E+00  1.0000000E+00
 23  2  3  3   0   0 -2.6623714E+01 -2.0940715E+02 -8.4663151E+02  8.7756883E+02  9.3712167E+01  0.0000000E+00  1.0000000E+00
 23  2  3  3   0   0  2.6623714E+01  2.0940715E+02  2.0757164E+02  3.0721139E+02  8.2052860E+01  0.0000000E+00  1.0000000E+00
-11  1  4  4   0   0 -2.5940784E+01 -9.7739158E+01 -5.7590261E+02  5.8471334E+02  5.3947966E-06  0.0000000E+00  1.0000000E+00
 11  1  4  4   0   0 -6.8293043E-01 -1.1166799E+02 -2.7072889E+02  2.9285550E+02  1.3214499E-05  0.0000000E+00  1.0000000E+00
-13  1  5  5   0   0  3.4716011E+00 -9.6306305E-01 -5.7050774E+00  6.7474004E+00  1.7892516E-05  0.0000000E+00  1.0000000E+00
 13  1  5  5   0   0  2.3152113E+01  2.1037021E+02  2.1327672E+02  3.0046399E+02  2.2852766E-06  0.0000000E+00  1.0000000E+00
</event>
<event>
9 100 1.0000000E+00 1.0000000E+03 7.8125000E-03 0.0000000E+00
 21 -1  0  0 501 502  0.0000000E+00  0.0000000E+00  1.0768612E+02  1.0768612E+02  0.0000000E+00  0.0000000E+00  1.0000000E+00
 21 -1  0  0 502 501  0.0000000E+00  0.0000000E+00 -2.3290591E+03  2.3290591E+03  0.0000000E+00  0.0000000E+00  1.0000000E+00
 39  2  1  2   0   0  6.5654149E-12  1.2676082E-11 -2.2213730E+03  2.4367452E+03  1.0016134E+03  0.0000000E+00  1.0000000E+00
 23  2  3  3   0   0 -1.4838246E+02 -2.8685784E+02 -1.9692809E+02  3.8503095E+02  7.1856721E+01  0.0000000E+00  1.0000000E+00
 23  2  3  3   0   0  1.4838246E+02  2.8685784E+02 -2.0244449E+03  2.0517143E+03  8.2761996E+01  0.0000000E+00  1.0000000E+00
-11  1  4  4   0   0 -9.8963780E+01 -2.4958602E+02 -1.6788116E+02  3.1665612E+02  8.3139399E-06  0.0000000E+00  1.0000000E+00
 11  1  4  4   0   0 -4.9418678E+01 -3.7271816E+01 -2.9046931E+01  6.8374836E+01  2.8418855E-05  0.0000000E+00  1.0000000E+00
-13  1  5  5   0   0  1.7503049E+01  1.1286537E+01 -5.5569680E+01  5.9344182E+01  8.0741922E-05  0.0000000E+00  1.0000000E+00
 13  1  5  5   0   0  1.3087941E+02  2.7557130E+02 -1.9688752E+03  1.9923701E+03  2.3360155E-06  0.0000000E+00  1.0000000E+00
</event>
<event>
9 100 1.0000000E+00 1.0000000E+03 7.8125000E-03 0.0000000E+00
 21 -1  0  0 501 502  0.0000000E+00  0.0000000E+00  3.3443980E+02  3.3443980E+02  0.0000000E+00  0.0000000E+00  1.0000000E+00
 21 -1  0  0 502 501  0.0000000E+00  0.0000000E+00 -7.3071804E+02  7.3071804E+02  0.0000000E+00  0.0000000E+00  1.0000000E+00
 39  2  1  2   0   0 -2.4158453E-13 -1.8189894E-12 -3.9627824E+02  1.0651578E+03  9.8869852E+02  0.0000000E+00  1.0000000E+00
 23  2  3  3   0   0 -5.8894129E+01 -4.4330503E+02  6.5441117E+00  4.5626846E+02  9.0278553E+01  0.0000000E+00  1.0000000E+00
 23  2  3  3   0   0  5.8894129E+01  4.4330503E+02 -4.0282235E+02  6.0888937E+02  9.2155053E+01  0.0000000E+00  1.0000000E+00
-11  1  4  4   0   0 -2.9191554E+01 -5.1825623E+01 -2.0035558E+01  6.2765162E+01  1.0956884E-05  0.0000000E+00  1.0000000E+00
 11  1  4  4   0   0 -2.9702575E+01 -3.9147940E+02  2.6579669E+01  3.9350330E+02  2.1457672E-06  0.0000000E+00  1.0000000E+00
-13  1  5  5   0   0  1.7907034E+01  8.3368223E+01 -3.3666681E+01  9.1675340E+01  1.8688124E-05  0.0000000E+00  1.0000000E+00
 13  1  5  5   0   0  4.0987095E+01  3.5993680E+02 -3.6915567E+02  5.1721403E+02  4.3962214E-06  0.0000000E+00  1.0000000E+00
</event>
<event>
9 100 1.0000000E+00 1.0000000E+03 7.8125000E-03 0.0000000E+00
 21 -1  0  0 501 502  0.0000000E+00  0.0000000E+00  2.2681169E+02  2.2681169E+02  0.0000000E+00  0.0000000E+00  1.0000000E+00
 21 -1  0  0 502 501  0.0000000E+00  0.0000000E+00 -1.0725414E+03  1.0725414E+03  0.0000000E+00  0.0000000E+00  1.0000000E+00
 39  2  1  2   0   0 -5.3290705E-14  1.0231815E-12 -8.4572967E+02  1.2993530E+03  9.8643786E+02  0.0000000E+00  1.0000000E+00
 23  2  3  3   0   0  5.2180810E+00 -1.2429775E+02  1.9454420E+02  2.4770692E+02  8.9633217E+01  0.0000000E+00  1.0000000E+00
 23  2  3  3   0   0 -5.2180810E+00  1.2429775E+02 -1.0402739E+03  1.0516461E+03  9.1174026E+01  0.0000000E+00  1.0000000E+00
-11  1  4  4   0   0  2.9796422E+01 -2.0311452E+01  1.5604466E+01  3.9292253E+01  7.6293945E-06  0.0000000E+00  1.0000000E+00
 11  1  4  4   0   0 -2.4578341E+01 -1.0398630E+02  1.7893973E+02  2.0841466E+02  3.3590800E-06  0.0000000E+00  1.0000000E+00
-13  1  5  5   0   0  2.2260756E+01  3.0231187E+01 -1.1011308E+02  1.1633725E+02  1.0789593E-05  0.0000000E+00  1.0000000E+00
 13  1  5  5   0   0 -2.7478837E+01  9.4066560E+01 -9.3016079E+02  9.3530887E+02  1.9073486E-06  0.0000000E+00  1.0000000E+00
</event>
<event>
9 100 1.0000000E+00 1.0000000E+03 7.8125000E-03 0.0000000E+00
 21 -1  0  0 501 502  0.0000000E+00  0.0000000E+00  4.6265411E+02  4.6265411E+02  0.0000000E+00  0.0000000E+00  1.0000000E+00
 21 -1  0  0 502 501  0.0000000E+00  0.0000000E+00 -5.2170852E+02  5.2170852E+02  0.0000000E+00  0.0000000E+00  1.0000000E+00
 39  2  1  2   0   0  3.9790393E-13 -1.9895197E-13 -5.9054409E+01  9.8436263E+02  9.8258962E+02  0.0000000E+00  1.0000000E+00
 23  2  3  3   0   0 -4.1141260E+02  2.1066875E+02 -1.6890799E+02  5.0046737E+02  9.1082531E+01  0.0000000E+00  1.0000000E+00
 23  2  3  3   0   0  4.1141260E+02 -2.1066875E+02  1.0985358E+02  4.8389526E+02  9.1897586E+01  0.0000000E+00  1.0000000E+00
-11  1  4  4   0   0 -1.2423126E+02  6.8575679E+01 -8.5256507E+00  1.4215737E+02  1.5258789E-05  0.0000000E+00  1.0000000E+00
 11  1  4  4   0   0 -2.8718134E+02  1.4209307E+02 -1.6038234E+02  3.5831000E+02  6.2547968E-06  0.0000000E+00  1.0000000E+00
-13  1  5  5   0   0 -2.8240036E+00 -1.8433558E+00 -4.9636676E+00  6.0009127E+00  1.7271776E-05  0.0000000E+00  1.0000000E+00
 13  1  5  5   0   0  4.1423660E+02 -2.0882540E+02  1.1481725E+02  4.7789435E+02  1.4205426E-06  0.0000000E+00  1.0000000E+00
</event>
<event>
9 100 1.0000000E+00 1.0000000E+03 7.8125000E-03 0.0000000E+00
 21 -1  0  0 501 502  0.0000000E+00  0.0000000E+00  1.3392709E+03  1.3392709E+03  0.0000000E+00  0.0000000E+00  1.0000000E+00
 21 -1  0  0 502 501  0.0000000E+00  0.0000000E+00 -1.8877661E+02  1.8877661E+02  0.0000000E+00  0.0000000E+00  1.0000000E+00
 39  2  1  2   0   0 -5.5422333E-13 -6.7075234E-12  1.1504943E+03  1.5280475E+03  1.0056302E+03  0.0000000E+00  1.0000000E+00
 23  2  3  3   0   0  3.6149721E+01  4.4947297E+02  2.6675495E+02  5.3172151E+02  9.0756828E+01  0.0000000E+00  1.0000000E+00
 23  2  3  3   0   0 -3.6149721E+01 -4.4947297E+02  8.8373931E+02  9.9632598E+02  9.1310194E+01  0.0000000E+00  1.0000000E+00
-11  1  4  4   0   0  1.7579481E+01  1.3052481E+02  1.2714443E+02  1.8306138E+02  1.7688024E-05  0.0000000E+00  1.0000000E+00
 11  1  4  4   0   0  1.8570240E+01  3.1894816E+02  1.3961053E+02  3.4866013E+02  1.0182455E-05  0.0000000E+00  1.0000000E+00
-13  1  5  5   0   0  1.2570893E+01 -3.3559094E+02  6.6333270E+02  7.4349820E+02  8.9462581E-06  0.0000000E+00  1.0000000E+00
 13  1  5  5   0   0 -4.8720614E+01 -1.1388203E+02  2.2040661E+02  2.5282778E+02  1.3214499E-05  0.0000000E+00  1.0000000E+00
</event>
<event>
9 100 1.0000000E+00 1.0000000E+03 7.8125000E-03 0.0000000E+00
 21 -1  0  0 501 502  0.0000000E+00  0.0000000E+00  7.1385613E+02  7.1385613E+02  0.0000000E+00  0.0000000E+00  1.0000000E+00
 21 -1  0  0 502 501  0.0000000E+00  0.0000000E+00 -3.4343524E+02  3.4343524E+02  0.0000000E+00  0.0000000E+00  1.0000000E+00
 39  2  1  2   0   0 -7.6738615E-13  1.1368684E-12  3.7042089E+02  1.0572914E+03  9.9027946E+02  0.0000000E+00  1.0000000E+00
 23  2  3  3   0   0 -2.1435324E+02  2.9092451E+02 -1.6662733E+02  4.0358704E+02  6.7330943E+01  0.0000000E+00  1.0000000E+00
 23  2  3  3   0   0  2.1435324E+02 -2.9092451E+02  5.3704822E+02  6.5370432E+02  9.1236899E+01  0.0000000E+00  1.0000000E+00
-11  1  4  4   0   0 -2.0163328E+02  2.6655893E+02 -1.7151673E+02  3.7566958E+02  2.4948656E-06  0.0000000E+00  1.0000000E+00
 11  1  4  4   0   0 -1.2719961E+01  2.4365579E+01  4.8894012E+00  2.7917469E+01  1.6184390E-05  0.0000000E+00  1.0000000E+00
-13  1  5  5   0   0  1.4732220E+01 -3.4878949E+01  1.9088330E+01  4.2402166E+01  7.6293945E-06  0.0000000E+00  1.0000000E+00
 13  1  5  5   0   0  1.9962102E+02 -2.5604556E+02  5.1795989E+02  6.1130216E+02  9.8302498E-07  0.0000000E+00  1.0000000E+00
</event>
<event>
9 100 1.0000000E+00 1.0000000E+03 7.8125000E-03 0.0000000E+00
 21 -1  0  0 501 502  0.0000000E+00  0.0000000E+00  9.6851275E+01  9.6851275E+01  0.0000000E+00  0.0000000E+00  1.0000000E+00
 21 -1  0  0 502 501  0.0000000E+00  0.0000000E+00 -2.5679843E+03  2.5679843E+03  0.0000000E+00  0.0000000E+00  1.0000000E+00
 39  2  1  2   0   0 -3.6237680E-12 -3.6948222E-13 -2.4711330E+03  2.6648355E+03  9.9742177E+02  0.0000000E+00  1.0000000E+00
 23  2  3  3   0   0 -4.0074063E+01 -4.1333687E+00 -2.5411816E+03  2.5431127E+03  9.0527793E+01  0.0000000E+00  1.0000000E+00
 23  2  3  3   0   0  4.0074063E+01  4.1333687E+00  7.0048661E+01  1.2172279E+02  9.1030799E+01  0.0000000E+00  1.0000000E+00
-11  1  4  4   0   0 -2.1146516E+01 -1.9019016E+01 -2.3774289E+03  2.3775990E+03  7.8641999E-06  0.0000000E+00  1.0000000E+00
 11  1  4  4   0   0 -1.8927547E+01  1.4885647E+01 -1.6375272E+02  1.6551371E+02  6.1035156E-05  0.0000000E+00  1.0000000E+00
-13  1  5  5   0   0  1.5997778E+01  4.7275096E+01  3.9365344E+01  6.3564879E+01  1.2534561E-05  0.0000000E+00  1.0000000E+00
 13  1  5  5   0   0  2.4076285E+01 -4.3141727E+01  3.0683317E+01  5.8157906E+01  1.3102180E-05  0.0000000E+00  1.0000000E+00
</event>
<event>
9 100 1.0000000E+00 1.0000000E+03 7.8125000E-03 0.0000000E+00
 21 -1  0  0 501 502  0.0000000E+00  0.0000000E+00  5.9212040E+02  5.9212040E+02  0.0000000E+00  0.0000000E+00  1.0000000E+00
 21 -1  0  0 502 501  0.0000000E+00  0.0000000E+00 -4.2826408E+02  4.2826408E+02  0.0000000E+00  0.0000000E+00  1.0000000E+00
 39  2  1  2   0   0 -1.6484591E-12  0.0000000E+00  1.6385631E+02  1.0203845E+03  1.0071423E+03  0.0000000E+00  1.0000000E+00
 23  2  3  3   0   0 -4.4994563E+02 -3.0324762E-01 -1.3006509E+02  4.7548425E+02  8.1958413E+01  0.0000000E+00  1.0000000E+00
 23  2  3  3   0   0  4.4994563E+02  3.0324762E-01  2.9392140E+02  5.4490023E+02  8.9862674E+01  0.0000000E+00  1.0000000E+00
-11  1  4  4   0   0 -3.9083945E+02  2.2274755E+01 -1.2907831E+02  4.1220486E+02  2.0268592E-06  0.0000000E+00  1.0000000E+00
 11  1  4  4   0   0 -5.9106188E+01 -2.2578003E+01 -9.8677960E-01  6.3279391E+01  4.2649612E-06  0.0000000E+00  1.0000000E+00
-13  1  5  5   0   0  1.4159605E+02  3.6687085E+01  7.0454766E+01  1.6235534E+02  5.3947966E-06  0.0000000E+00  1.0000000E+00
 13  1  5  5   0   0  3.0834959E+02 -3.6383838E+01  2.2346664E+02  3.8254489E+02  4.5736613E-06  0.0000000E+00  1.0000000E+00
</event>
<event>
9 100 1.0000000E+00 1.0000000E+03 7.8125000E-03 0.0000000E+00
 21 -1  0  0 501 502  0.0000000E+00  0.0000000E+00  1.9949262E+02  1.9949262E+02  0.0000000E+00  0.0000000E+00  1.0000000E+00
 21 -1  0  0 502 501  0.0000000E+00  0.0000000E+00 -1.2597398E+03  1.2597398E+03  0.0000000E+00  0.0000000E+00  1.0000000E+00
 39  2  1  2   0   0  1.9042545E-12 -1.0516032E-12 -1.0602471E+03  1.4592324E+03  1.0026142E+03  0.0000000E+00  1.0000000E+00
 23  2  3  3   0   0  1.7431121E+02 -9.4073529E+01 -1.1871741E+03  1.2071811E+03  9.3111174E+01  0.0000000E+00  1.0000000E+00
 23  2  3  3   0   0 -1.7431121E+02  9.4073529E+01  1.2692697E+02  2.5205125E+02  9.0471832E+01  0.0000000E+00  1.0000000E+00
-11  1  4  4   0   0  2.6281034E+00 -2.8756186E+01 -8.4147669E+01  8.8964349E+01  3.0517578E-05  0.0000000E+00  1.0000000E+00
 11  1  4  4   0   0  1.7168311E+02 -6.5317343E+01 -1.1030264E+03  1.1182168E+03  2.3360155E-06  0.0000000E+00  1.0000000E+00
-13  1  5  5   0   0 -2.5355120E+01  1.3646438E+01  6.6226364E+01  7.2215225E+01  9.9566522E-06  0.0000000E+00  1.0000000E+00
 13  1  5  5   0   0 -1.4895609E+02  8.0427092E+01  6.0700603E+01  1.7983603E+02  5.2234894E-06  0.0000000E+00  1.0000000E+00
</event>
<event>
9 100 1.0000000E+00 1.0000000E+03 7.8125000E-03 0.0000000E+00
 21 -1  0  0 501 502  0.0000000E+00  0.0000000E+00  8.7291899E+02  8.7291899E+02  0.0000000E+00  0.0000000E+00  1.0000000E+00
 21 -1  0  0 502 501  0.0000000E+00  0.0000000E+00 -2.8767818E+02  2.8767818E+02  0.0000000E+00  0.0000000E+00  1.0000000E+00
 39  2  1  2   0   0 -7.3896445E-13 -1.8474111E-13  5.8524081E+02  1.1605972E+03  1.0022370E+03  0.0000000E+00  1.0000000E+00
 23  2  3  3   0   0 -2.2722036E+02 -5.1062751E+01  7.9465811E+02  8.3310725E+02  9.1376644E+01  0.0000000E+00  1.0000000E+00
 23  2  3  3   0   0  2.2722036E+02  5.1062751E+01 -2.0941730E+02  3.2748992E+02  9.5695071E+01  0.0000000E+00  1.0000000E+00
-11  1  4  4   0   0 -2.1649210E+02 -4.5277204E+01  7.8945825E+02  8.1985559E+02  7.4207184E-07  0.0000000E+00  1.0000000E+00
 11  1  4  4   0   0 -1.0728259E+01 -5.7855477E+00  5.1998547E+00  1.3251664E+01  3.0517578E-05  0.0000000E+00  1.0000000E+00
-13  1  5  5   0   0  9.0557987E+01 -2.2827033E+01 -5.4690867E+01  1.0822621E+02  1.5377536E-05  0.0000000E+00  1.0000000E+00
 13  1  5  5   0   0  1.3666237E+02  7.3889784E+01 -1.5472643E+02  2.1926371E+02  8.5830688E-06  0.0000000E+00  1.0000000E+00
</event>
<event>
9 100 1.0000000E+00 1.0000000E+03 7.8125000E-03 0.0000000E+00
 21 -1  0  0 501 502  0.0000000E+00  0.0000000E+00  1.2072600E+03  1.2072600E+03  0.0000000E+00  0.0000000E+00  1.0000000E+00
 21 -1  0  0 502 501  0.0000000E+00  0.0000000E+00 -2.1167166E+02  2.1167166E+02  0.0000000E+00  0.0000000E+00  1.0000000E+00
 39  2  1  2   0   0  3.4106051E-13 -1.1723955E-13  9.9558838E+02  1.4189317E+03  1.0110247E+03  0.0000000E+00  1.0000000E+00
 23  2  3  3   0   0 -9.6757536E+01  3.1607234E+01 -1.8584798E+02  2.2964544E+02  8.8524109E+01  0.0000000E+00  1.0000000E+00
 23  2  3  3   0   0  9.6757536E+01 -3.1607234E+01  1.1814364E+03  1.1892863E+03  9.0823276E+01  0.0000000E+00  1.0000000E+00
-11  1  4  4   0   0 -1.0710363E+02  1.7515477E+01 -1.2125750E+02  1.6273094E+02  3.4385216E-06  0.0000000E+00  1.0000000E+00
 11  1  4  4   0   0  1.0346092E+01  1.4091757E+01 -6.4590487E+01  6.6914499E+01  5.5608291E-06  0.0000000E+00  1.0000000E+00
-13  1  5  5   0   0  1.9582941E+01  2.2956284E+01  5.4877263E+02  5.4960156E+02  1.8688124E-05  0.0000000E+00  1.0000000E+00
 13  1  5  5   0   0  7.7174595E+01 -5.4563518E+01  6.3266374E+02  6.3968469E+02  1.5258789E-05  0.0000000E+00  1.0000000E+00
</event>
<event>
9 100 1.0000000E+00 1.0000000E+03 7.8125000E-03 0.0000000E+00
 21 -1  0  0 501 502  0.0000000E+00  0.0000000E+00  4.0979132E+02  4.0979132E+02  0.0000000E+00  0.0000000E+00  1.0000000E+00
 21 -1  0  0 502 501  0.0000000E+00  0.0000000E+00 -6.0649390E+02  6.0649390E+02  0.0000000E+00  0.0000000E+00  1.0000000E+00
 39  2  1  2   0   0 -5.6843419E-14  3.9790393E-13 -1.9670258E+02  1.0162852E+03  9.9706757E+02  0.0000000E+00  1.0000000E+00
 23  2  3  3   0   0  6.7326419E+01 -4.7748525E+02 -1.0094708E+01  4.9108681E+02  9.2408537E+01  0.0000000E+00  1.0000000E+00
 23  2  3  3   0   0 -6.7326419E+01  4.7748525E+02 -1.8660787E+02  5.2519841E+02  9.2118725E+01  0.0000000E+00  1.0000000E+00
-11  1  4  4   0   0  2.8176843E+01 -3.9052671E+02  1.7115792E+01  3.9191580E+02  5.0011103E-06  0.0000000E+00  1.0000000E+00
 11  1  4  4   0   0  3.9149575E+01 -8.6958548E+01 -2.7210500E+01  9.9171012E+01  1.2406933E-05  0.0000000E+00  1.0000000E+00
-13  1  5  5   0   0  3.1398088E+00  1.5353532E+02 -9.7508069E+01  1.8190870E+02  8.2590618E-06  0.0000000E+00  1.0000000E+00
 13  1  5  5   0   0 -7.0466228E+01  3.2394994E+02 -8.9099804E+01  3.4328971E+02  5.7220459E-06  0.0000000E+00  1.0000000E+00
</event>
<event>
9 100 1.0000000E+00 1.0000000E+03 7.8125000E-03 0.0000000E+00
 21 -1  0  0 501 502  0.0000000E+00  0.0000000E+00  3.7673423E+02  3.7673423E+02  0.0000000E+00  0.0000000E+00  1.0000000E+00
 21 -1  0  0 502 501  0.0000000E+00  0.0000000E+00 -6.6739773E+02  6.6739773E+02  0.0000000E+00  0.0000000E+00  1.0000000E+00
 39  2  1  2   0   0 -6.2527761E-13 -5.4001248E-13 -2.9066350E+02  1.0441320E+03  1.0028590E+03  0.0000000E+00  1.0000000E+00
 23  2  3  3   0   0  1.6329247E+02  1.3641717E+02 -6.0829388E+02  6.5080661E+02  9.0849972E+01  0.0000000E+00  1.0000000E+00
 23  2  3  3   0   0 -1.6329247E+02 -1.3641717E+02  3.1763038E+02  3.9332535E+02  9.2421307E+01  0.0000000E+00  1.0000000E+00
-11  1  4  4   0   0  8.6849068E+01  3.6479349E+01 -1.6493358E+02  1.8993838E+02  9.3440618E-06  0.0000000E+00  1.0000000E+00
 11  1  4  4   0   0  7.6443402E+01  9.9937820E+01 -4.4336031E+02  4.6086823E+02  3.3036247E-06  0.0000000E+00  1.0000000E+00
-13  1  5  5   0   0 -1.2211382E+02 -8.4369375E+01  1.4133945E+02  2.0495564E+02  2.6973983E-06  0.0000000E+00  1.0000000E+00
 13  1  5  5   0   0 -4.1178655E+01 -5.2047795E+01  1.7629093E+02  1.8836971E+02  4.2649612E-06  0.0000000E+00  1.0000000E+00
</event>
<event>
9 100 1.0000000E+00 1.0000000E+03 7.8125000E-03 0.0000000E+00
 21 -1  0  0 501 502  0.0000000E+00  0.0000000E+00  2.6263584E+02  2.6263584E+02  0.0000000E+00  0.0000000E+00  1.0000000E+00
 21 -1  0  0 502 501  0.0000000E+00  0.0000000E+00 -8.7579937E+02  8.7579937E+02  0.0000000E+00  0.0000000E+00  1.0000000E+00
 39  2  1  2   0   0 -4.8316906E-13  8.5265128E-13 -6.1316353E+02  1.1384352E+03  9.5920030E+02  0.0000000E+00  1.0000000E+00
 23  2  3  3   0   0 -2.0368689E+02  3.6863232E+02 -5.5425173E+02  7.0237793E+02  9.3603572E+01  0.0000000E+00  1.0000000E+00
 23  2  3  3   0   0  2.0368689E+02 -3.6863232E+02 -5.8911795E+01  4.3605728E+02  9.6422055E+01  0.0000000E+00  1.0000000E+00
-11  1  4  4   0   0 -1.1603880E+02  1.5318210E+02 -1.9030958E+02  2.7045794E+02  9.3440618E-06  0.0000000E+00  1.0000000E+00
 11  1  4  4   0   0 -8.7648091E+01  2.1545022E+02 -3.6394216E+02  4.3191999E+02  6.0315660E-06  0.0000000E+00  1.0000000E+00
-13  1  5  5   0   0  1.5220333E+02 -2.2565146E+02 -7.7384259E+01  2.8297130E+02  1.5814899E-06  0.0000000E+00  1.0000000E+00
 13  1  5  5   0   0  5.1483565E+01 -1.4298087E+02  1.8472464E+01  1.5308598E+02  7.5695552E-06  0.0000000E+00  1.0000000E+00
</event>
<event>
9 100 1.0000000E+00 1.0000000E+03 7.8125000E-03 0.0000000E+00
 21 -1  0  0 501 502  0.0000000E+00  0.0000000E+00  1.8297836E+02  1.8297836E+02  0.0000000E+00  0.0000000E+00  1.0000000E+00
 21 -1  0  0 502 501  0.0000000E+00  0.0000000E+00 -1.4866726E+03  1.4866726E+03  0.0000000E+00  0.0000000E+00  1.0000000E+00
 39  2  1  2   0   0 -1.7763568E-15  2.5579538E-13 -1.3036942E+03  1.6696509E+03  1.0431278E+03  0.0000000E+00  1.0000000E+00
 23  2  3  3   0   0  1.1496901E+00 -1.4293486E+02  1.4231542E+02  2.1370399E+02  7.0597590E+01  0.0000000E+00  1.0000000E+00
 23  2  3  3   0   0 -1.1496901E+00  1.4293486E+02 -1.4460096E+03  1.4559469E+03  9.1683961E+01  0.0000000E+00  1.0000000E+00
-11  1  4  4   0   0 -1.7839100E+01 -3.7853274E+00  2.3506539E+01  2.9750959E+01  1.0704968E-05  0.0000000E+00  1.0000000E+00
 11  1  4  4   0   0  1.8988790E+01 -1.3914953E+02  1.1880888E+02  1.8395303E+02  3.6626557E-06  0.0000000E+00  1.0000000E+00
-13  1  5  5   0   0 -1.6909421E+01  1.9722663E+01 -6.3016395E+02  6.3069923E+02  0.0000000E+00  0.0000000E+00  1.0000000E+00
 13  1  5  5   0   0  1.5759731E+01  1.2321220E+02 -8.1584568E+02  8.2524772E+02  2.1579186E-05  0.0000000E+00  1.0000000E+00
</event>
<event>
9 100 1.0000000E+00 1.0000000E+03 7.8125000E-03 0.0000000E+00
 21 -1  0  0 501 502  0.0000000E+00  0.0000000E+00  1.4107882E+02  1.4107882E+02  0.0000000E+00  0.0000000E+00  1.0000000E+00
 21 -1  0  0 502 501  0.0000000E+00  0.0000000E+00 -1.8410382E+03  1.8410382E+03  0.0000000E+00  0.0000000E+00  1.0000000E+00
 39  2  1  2   0   0  3.2400749E-12  4.1211479E-12 -1.6999594E+03  1.9821170E+03  1.0192772E+03  0.0000000E+00  1.0000000E+00
 23  2  3  3   0   0  1.6318287E+02  2.0553121E+02 -1.6813989E+03  1.7042586E+03  9.2321323E+01  0.0000000E+00  1.0000000E+00
 23  2  3  3   0   0 -1.6318287E+02 -2.0553121E+02 -1.8560446E+01  2.7785843E+02  8.9381704E+01  0.0000000E+00  1.0000000E+00
-11  1  4  4   0   0  1.3603332E+02  1.5232176E+02 -1.4849751E+03  1.4989523E+03  5.3947966E-06  0.0000000E+00  1.0000000E+00
 11  1  4  4   0   0  2.7149546E+01  5.3209452E+01 -1.9642379E+02  2.0530624E+02  3.7376247E-05  0.0000000E+00  1.0000000E+00
-13  1  5  5   0   0 -5.0688070E+01 -6.6416774E+01  3.5768477E+01  9.0883729E+01  4.9554371E-06  0.0000000E+00  1.0000000E+00
 13  1  5  5   0   0 -1.1249480E+02 -1.3911444E+02 -5.4328923E+01  1.8697470E+02  1.9073486E-06  0.0000000E+00  1.0000000E+00
</event>
<event>
9 100 1.0000000E+00 1.0000000E+03 7.8125000E-03 0.0000000E+00
 21 -1  0  0 501 502  0.0000000E+00  0.0000000E+00  7.8516878E+02  7.8516878E+02  0.0000000E+00  0.0000000E+00  1.0000000E+00
 21 -1  0  0 502 501  0.0000000E+00  0.0000000E+00 -3.1753046E+02  3.1753046E+02  0.0000000E+00  0.0000000E+00  1.0000000E+00
 39  2  1  2   0   0  5.6843419E-13  7.3896445E-13  4.6763833E+02  1.1026992E+03  9.9862906E+02  0.0000000E+00  1.0000000E+00
 23  2  3  3   0   0 -1.9449529E+02 -2.3360372E+02 -1.9199098E+02  3.7075450E+02  9.0549687E+01  0.0000000E+00  1.0000000E+00
 23  2  3  3   0   0  1.9449529E+02  2.3360372E+02  6.5962930E+02  7.3194474E+02  9.0736836E+01  0.0000000E+00  1.0000000E+00
-11  1  4  4   0   0 -1.9370145E+02 -2.3740410E+02 -1.7402018E+02  3.5236910E+02  1.2157010E-06  0.0000000E+00  1.0000000E+00
 11  1  4  4   0   0 -7.9383492E-01  3.8003839E+00 -1.7970800E+01  1.8385394E+01  8.0921949E-06  0.0000000E+00  1.0000000E+00
-13  1  5  5   0   0  1.9649592E+02  2.3535545E+02  6.1453625E+02  6.8677335E+02  1.1680077E-06  0.0000000E+00  1.0000000E+00
 13  1  5  5   0   0 -2.0006283E+00 -1.7517323E+00  4.5093055E+01  4.5171393E+01  2.2888184E-05  0.0000000E+00  1.0000000E+00
</event>
<event>
9 100 1.0000000E+00 1.0000000E+03 7.8125000E-03 0.0000000E+00
 21 -1  0  0 501 502  0.0000000E+00  0.0000000E+00  8.5518572E+02  8.5518572E+02  0.0000000E+00  0.0000000E+00  1.0000000E+00
 21 -1  0  0 502 501  0.0000000E+00  0.0000000E+00 -2.9274792E+02  2.9274792E+02  0.0000000E+00  0.0000000E+00  1.0000000E+00
 39  2  1  2   0   0  0.0000000E+00 -1.9895197E-13  5.6243780E+02  1.1479336E+03  1.0007074E+03  0.0000000E+00  1.0000000E+00
 23  2  3  3   0   0 -4.9848268E+00  2.4211837E+02 -2.0982344E+02  3.3342015E+02  9.2178999E+01  0.0000000E+00  1.0000000E+00
 23  2  3  3   0   0  4.9848268E+00 -2.4211837E+02  7.7226124E+02  8.1451348E+02  9.1644083E+01  0.0000000E+00  1.0000000E+00
-11  1  4  4   0   0 -7.9177129E+00  1.1741818E+01  8.0776965E+00  1.6303670E+01  1.2651920E-05  0.0000000E+00  1.0000000E+00
 11  1  4  4   0   0  2.9328860E+00  2.3037655E+02 -2.1790114E+02  3.1711648E+02  2.0784850E-06  0.0000000E+00  1.0000000E+00
-13  1  5  5   0   0  3.1793002E+01 -4.4827119E+01  2.4051105E+02  2.4671002E+02  7.6293945E-06  0.0000000E+00  1.0000000E+00
 13  1  5  5   0   0 -2.6808175E+01 -1.9729125E+02  5.3175019E+02  5.6780347E+02  2.6973983E-06  0.0000000E+00  1.0000000E+00
</event>
<event>
9 100 1.0000000E+00 1.0000000E+03 7.8125000E-03 0.0000000E+00
 21 -1  0  0 501 502  0.0000000E+00  0.0000000E+00  6.1954878E+02  6.1954878E+02  0.0000000E+00  0.0000000E+00  1.0000000E+00
 21 -1  0  0 502 501  0.0000000E+00  0.0000000E+00 -4.0676097E+02  4.0676097E+02  0.0000000E+00  0.0000000E+00  1.0000000E+00
 39  2  1  2   0   0  2.7284841E-12 -1.4779289E-12  2.1278782E+02  1.0263098E+03  1.0040085E+03  0.0000000E+00  1.0000000E+00
 23  2  3  3   0   0  4.1989535E+02 -2.3789583E+02  2.1277851E+02  5.3506687E+02  9.0085117E+01  0.0000000E+00  1.0000000E+00
 23  2  3  3   0   0 -4.1989535E+02  2.3789583E+02  9.3068071E-03  4.9124288E+02  9.1722606E+01  0.0000000E+00  1.0000000E+00
-11  1  4  4   0   0  4.0925507E+02 -2.1718647E+02  1.8515739E+02  4.9894181E+02  2.8410853E-06  0.0000000E+00  1.0000000E+00
 11  1  4  4   0   0  1.0640278E+01 -2.0709367E+01  2.7621119E+01  3.6125055E+01  1.6627880E-05  0.0000000E+00  1.0000000E+00
-13  1  5  5   0   0 -3.9287876E+02  2.0703005E+02 -2.2110960E+01  4.4463924E+02  4.1706218E-06  0.0000000E+00  1.0000000E+00
 13  1  5  5   0   0 -2.7016585E+01  3.0865790E+01  2.2120267E+01  4.6603638E+01  2.0716366E-05  0.0000000E+00  1.0000000E+00
</event>
<event>
9 100 1.0000000E+00 1.0000000E+03 7.8125000E-03 0.0000000E+00
 21 -1  0  0 501 502  0.0000000E+00  0.0000000E+00  1.6769914E+02  1.6769914E+02  0.0000000E+00  0.0000000E+00  1.0000000E+00
 21 -1  0  0 502 501  0.0000000E+00  0.0000000E+00 -1.4502055E+03  1.4502055E+03  0.0000000E+00  0.0000000E+00  1.0000000E+00
 39  2  1  2   0   0  1.8900437E-12 -1.5063506E-12 -1.2825064E+03  1.6179047E+03  9.8630263E+02  0.0000000E+00  1.0000000E+00
 23  2  3  3   0   0  1.0850576E+02 -8.6739889E+01 -1.4032252E+03  1.4127755E+03  8.7156364E+01  0.0000000E+00  1.0000000E+00
 23  2  3  3   0   0 -1.0850576E+02  8.6739889E+01  1.2071884E+02  2.0512918E+02  9.0596006E+01  0.0000000E+00  1.0000000E+00
-11  1  4  4   0   0  7.6964688E+01 -9.1334581E+01 -8.1699142E+02  8.2567582E+02  7.6293945E-06  0.0000000E+00  1.0000000E+00
 11  1  4  4   0   0  3.1541070E+01  4.5946920E+00 -5.8623380E+02  5.8709967E+02  1.0789593E-05  0.0000000E+00  1.0000000E+00
-13  1  5  5   0   0 -1.5414717E+01 -1.6116589E+01  1.7408843E+00  2.2369368E+01  8.4226235E-06  0.0000000E+00  1.0000000E+00
 13  1  5  5   0   0 -9.3091041E+01  1.0285648E+02  1.1897795E+02  1.8275982E+02  2.8341209E-06  0.0000000E+00  1.0000000E+00
</event>
<event>
9 100 1.0000000E+00 1.0000000E+03 7.8125000E-03 0.0000000E+00
 21 -1  0  0 501 502  0.0000000E+00  0.0000000E+00  1.1334767E+02  1.1334767E+02  0.0000000E+00  0.0000000E+00  1.0000000E+00
 21 -1  0  0 502 501  0.0000000E+00  0.0000000E+00 -2.2013922E+03  2.2013922E+03  0.0000000E+00  0.0000000E+00  1.0000000E+00
 39  2  1  2   0   0 -1.5234036E-11  6.9917405E-12 -2.0880445E+03  2.3147399E+03  9.9904489E+02  0.0000000E+00  1.0000000E+00
 23  2  3  3   0   0  2.6144169E+02 -1.2077910E+02 -1.2245377E+02  3.2585133E+02  9.0800965E+01  0.0000000E+00  1.0000000E+00
 23  2  3  3   0   0 -2.6144169E+02  1.2077910E+02 -1.9655908E+03  1.9888885E+03  9.5870876E+01  0.0000000E+00  1.0000000E+00
-11  1  4  4   0   0  2.3734862E+01  1.3238584E+01 -1.0959225E+00  2.7199353E+01  1.9497917E-05  0.0000000E+00  1.0000000E+00
 11  1  4  4   0   0  2.3770683E+02 -1.3401768E+02 -1.2135785E+02  2.9865198E+02  3.9027674E-06  0.0000000E+00  1.0000000E+00
-13  1  5  5   0   0 -2.1948240E+02  1.2055602E+02 -1.4387383E+03  1.4603678E+03  1.5258789E-05  0.0000000E+00  1.0000000E+00
 13  1  5  5   0   0 -4.1959289E+01  2.2308414E-01 -5.2685244E+02  5.2852069E+02  3.0517578E-05  0.0000000E+00  1.0000000E+00
</event>
<event>
9 100 1.0000000E+00 1.0000000E+03 7.8125000E-03 0.0000000E+00
 21 -1  0  0 501 502  0.0000000E+00  0.0000000E+00  5.0676448E+02  5.0676448E+02  0.0000000E+00  0.0000000E+00  1.0000000E+00
 21 -1  0  0 502 501  0.0000000E+00  0.0000000E+00 -4.8322343E+02  4.8322343E+02  0.0000000E+00  0.0000000E+00  1.0000000E+00
 39  2  1  2   0   0  5.6843419E-14  1.7053026E-13  2.3541051E+01  9.8998791E+02  9.8970798E+02  0.0000000E+00  1.0000000E+00
 23  2  3  3   0   0 -1.0902693E+02 -2.9710339E+02  3.8175546E+02  5.0417266E+02  9.1079899E+01  0.0000000E+00  1.0000000E+00
 23  2  3  3   0   0  1.0902693E+02  2.9710339E+02 -3.5821441E+02  4.8581525E+02  8.6842361E+01  0.0000000E+00  1.0000000E+00
-11  1  4  4   0   0 -1.2320262E+02 -2.7540010E+02  3.3592807E+02  4.5152161E+02  2.1324806E-06  0.0000000E+00  1.0000000E+00
 11  1  4  4   0   0  1.4175695E+01 -2.1703291E+01  4.5827392E+01  5.2651049E+01  5.3947966E-06  0.0000000E+00  1.0000000E+00
-13  1  5  5   0   0  1.1178232E+02  1.9162413E+02 -2.2643981E+02  3.1700171E+02  4.6720309E-06  0.0000000E+00  1.0000000E+00
 13  1  5  5   0   0 -2.7553919E+00  1.0547926E+02 -1.3177460E+02  1.6881354E+02  4.6720309E-06  0.0000000E+00  1.0000000E+00
</event>
<event>
9 100 1.0000000E+00 1.0000000E+03 7.8125000E-03 0.0000000E+00
 21 -1  0  0 501 502  0.0000000E+00  0.0000000E+00  1.8525879E+03  1.8525879E+03  0.0000000E+00  0.0000000E+00  1.0000000E+00
 21 -1  0  0 502 501  0.0000000E+00  0.0000000E+00 -1.3407128E+02  1.3407128E+02  0.0000000E+00  0.0000000E+00  1.0000000E+00
 39  2  1  2   0   0 -2.2595259E-12 -3.2116532E-12  1.7185166E+03  1.9866592E+03  9.9675240E+02  0.0000000E+00  1.0000000E+00
 23  2  3  3   0   0 -1.2072820E+02 -1.7083800E+02 -2.1788067E+01  2.3206636E+02  9.8077290E+01  0.0000000E+00  1.0000000E+00
 23  2  3  3   0   0  1.2072820E+02  1.7083800E+02  1.7403047E+03  1.7545928E+03  7.8579082E+01  0.0000000E+00  1.0000000E+00
-11  1  4  4   0   0 -2.3747100E+01 -1.1833860E+02 -1.4118502E+01  1.2152070E+02  6.3729603E-06  0.0000000E+00  1.0000000E+00
 11  1  4  4   0   0 -9.6981097E+01 -5.2499404E+01 -7.6695656E+00  1.1054566E+02  7.2512180E-06  0.0000000E+00  1.0000000E+00
-13  1  5  5   0   0  6.4163332E+01  3.1065717E+01  4.7120755E+02  4.7656959E+02  3.7376247E-05  0.0000000E+00  1.0000000E+00
 13  1  5  5   0   0  5.6564865E+01  1.3977228E+02  1.2690971E+03  1.2780232E+03  1.0789593E-05  0.0000000E+00  1.0000000E+00
</event>
<event>
9 100 1.0000000E+00 1.0000000E+03 7.8125000E-03 0.0000000E+00
 21 -1  0  0 501 502  0.0000000E+00  0.0000000E+00  3.9548241E+02  3.9548241E+02  0.0000000E+00  0.0000000E+00  1.0000000E+00
 21 -1  0  0 502 501  0.0000000E+00  0.0000000E+00 -6.9518782E+02  6.9518782E+02  0.0000000E+00  0.0000000E+00  1.0000000E+00
 39  2  1  2   0   0 -1.2505552E-12  4.5474735E-13 -2.9970540E+02  1.0906702E+03  1.0486840E+03  0.0000000E+00  1.0000000E+00
 23  2  3  3   0   0 -3.6379380E+02  1.2733442E+02  2.0704604E+02  4.4750342E+02  9.3974831E+01  0.0000000E+00  1.0000000E+00
 23  2  3  3   0   0  3.6379380E+02 -1.2733442E+02 -5.0675144E+02  6.4316681E+02  9.1140226E+01  0.0000000E+00  1.0000000E+00
-11  1  4  4   0   0 -1.5412920E+02  7.1432522E+01  1.4075626E+02  2.2061446E+02  1.0619668E-05  0.0000000E+00  1.0000000E+00
 11  1  4  4   0   0 -2.0966460E+02  5.5901895E+01  6.6289777E+01  2.2688896E+02  1.1284027E-05  0.0000000E+00  1.0000000E+00
-13  1  5  5   0   0  2.6270716E+02 -5.2933934E+01 -3.0985644E+02  4.0966824E+02  1.0789593E-05  0.0000000E+00  1.0000000E+00
 13  1  5  5   0   0  1.0108663E+02 -7.4400483E+01 -1.9689500E+02  2.3349856E+02  1.7481139E-05  0.0000000E+00  1.0000000E+00
</event>
<event>
9 100 1.0000000E+00 1.0000000E+03 7.8125000E-03 0.0000000E+00
 21 -1  0  0 501 502  0.0000000E+00  0.0000000E+00  1.0796900E+03  1.0796900E+03  0.0000000E+00  0.0000000E+00  1.0000000E+00
 21 -1  0  0 502 501  0.0000000E+00  0.0000000E+00 -2.3334617E+02  2.3334617E+02  0.0000000E+00  0.0000000E+00  1.0000000E+00
 39  2  1  2   0   0 -1.1723955E-13 -5.0448534E-13  8.4634383E+02  1.3130362E+03  1.0038755E+03  0.0000000E+00  1.0000000E+00
 23  2  3  3   0   0  8.0047407E+00  3.5336119E+01 -2.2136871E+02  2.4079095E+02  8.7541178E+01  0.0000000E+00  1.0000000E+00
 23  2  3  3   0   0 -8.0047407E+00 -3.5336119E+01  1.0677125E+03  1.0722452E+03  9.1580710E+01  0.0000000E+00  1.0000000E+00
-11  1  4  4   0   0 -1.6896873E+01  2.8934639E+01 -2.2716038E+01  4.0481305E+01  0.0000000E+00  0.0000000E+00  1.0000000E+00
 11  1  4  4   0   0  2.4901614E+01  6.4014803E+00 -1.9865267E+02  2.0030964E+02  2.0784850E-06  0.0000000E+00  1.0000000E+00
-13  1  5  5   0   0 -3.4018236E+01 -5.3278368E+01  5.6143046E+02  5.6497786E+02  0.0000000E+00  0.0000000E+00  1.0000000E+00
 13  1  5  5   0   0  2.6013496E+01  1.7942249E+01  5.0628208E+02  5.0726736E+02  1.7059845E-05  0.0000000E+00  1.0000000E+00
</event>
<event>
9 100 1.0000000E+00 1.0000000E+03 7.8125000E-03 0.0000000E+00
 21 -1  0  0 501 502  0.0000000E+00  0.0000000E+00  3.1578960E+03  3.1578960E+03  0.0000000E+00  0.0000000E+00  1.0000000E+00
 21 -1  0  0 502 501  0.0000000E+00  0.0000000E+00 -8.1187147E+01  8.1187147E+01  0.0000000E+00  0.0000000E+00  1.0000000E+00
 39  2  1  2   0   0  4.0927262E-12 -5.0590643E-12  3.0767088E+03  3.2390831E+03  1.0126807E+03  0.0000000E+00  1.0000000E+00
 23  2  3  3   0   0 -2.9291798E+02  3.6647553E+02  2.0657794E+03  2.1209331E+03  1.0395893E+02  0.0000000E+00  1.0000000E+00
 23  2  3  3   0   0  2.9291798E+02 -3.6647553E+02  1.0109294E+03  1.1181500E+03  9.0420666E+01  0.0000000E+00  1.0000000E+00
-11  1  4  4   0   0 -1.2269504E+02  1.1307261E+02  5.5137692E+02  5.7606943E+02  0.0000000E+00  0.0000000E+00  1.0000000E+00
 11  1  4  4   0   0 -1.7022294E+02  2.5340292E+02  1.5144025E+03  1.5448637E+03  1.3214499E-05  0.0000000E+00  1.0000000E+00
-13  1  5  5   0   0  2.1917840E+02 -2.0803243E+02  6.7195834E+02  7.3677993E+02  1.2063132E-05  0.0000000E+00  1.0000000E+00
 13  1  5  5   0   0  7.3739577E+01 -1.5844309E+02  3.3897109E+02  3.8137008E+02  1.8688124E-05  0.0000000E+00  1.0000000E+00
</event>
<event>
9 100 1.0000000E+00 1.0000000E+03 7.8125000E-03 0.0000000E+00
 21 -1  0  0 501 502  0.0000000E+00  0.0000000E+00  2.8722451E+02  2.8722451E+02  0.0000000E+00  0.0000000E+00  1.0000000E+00
 21 -1  0  0 502 501  0.0000000E+00  0.0000000E+00 -8.9134087E+02  8.9134087E+02  0.0000000E+00  0.0000000E+00  1.0000000E+00
 39  2  1  2   0   0 -1.3642421E-12 -9.3791641E-13 -6.0411636E+02  1.1785654E+03  1.0119584E+03  0.0000000E+00  1.0000000E+00
 23  2  3  3   0   0 -3.0397347E+02 -2.0609813E+02 -6.9282955E+02  7.8913197E+02  8.8544701E+01  0.0000000E+00  1.0000000E+00
 23  2  3  3   0   0  3.0397347E+02  2.0609813E+02  8.8713198E+01  3.8943341E+02  9.4403604E+01  0.0000000E+00  1.0000000E+00
-11  1  4  4   0   0 -1.4290223E+02 -8.3722583E+01 -2.2449097E+02  2.7897440E+02  1.3214499E-05  0.0000000E+00  1.0000000E+00
 11  1  4  4   0   0 -1.6107124E+02 -1.2237554E+02 -4.6833859E+02  5.1015757E+02  4.6720309E-06  0.0000000E+00  1.0000000E+00
-13  1  5  5   0   0  6.5283889E+01  1.1928938E+01  4.1149247E+01  7.8086787E+01  1.2830376E-05  0.0000000E+00  1.0000000E+00
 13  1  5  5   0   0  2.3868959E+02  1.9416919E+02  4.7563950E+01  3.1134662E+02  3.5040232E-06  0.0000000E+00  1.0000000E+00
</event>
<event>
9 100 1.0000000E+00 1.0000000E+03 7.8125000E-03 0.0000000E+00
 21 -1  0  0 501 502  0.0000000E+00  0.0000000E+00  7.9460828E+02  7.9460828E+02  0.0000000E+00  0.0000000E+00  1.0000000E+00
 21 -1  0  0 502 501  0.0000000E+00  0.0000000E+00 -3.1593054E+02  3.1593054E+02  0.0000000E+00  0.0000000E+00  1.0000000E+00
 39  2  1  2   0   0 -1.4210855E-13 -6.3948846E-14  4.7867774E+02  1.1105388E+03  1.0020799E+03  0.0000000E+00  1.0000000E+00
 23  2  3  3   0   0 -8.1016728E+01 -4.4570604E+01 -2.9740239E+02  3.2476834E+02  9.2065446E+01  0.0000000E+00  1.0000000E+00
 23  2  3  3   0   0  8.1016728E+01  4.4570604E+01  7.7608013E+02  7.8577048E+02  8.1145717E+01  0.0000000E+00  1.0000000E+00
-11  1  4  4   0   0 -4.6524548E-01 -4.7586103E+01 -1.4102584E+02  1.4883864E+02  3.8146973E-06  0.0000000E+00  1.0000000E+00
 11  1  4  4   0   0 -8.0551482E+01  3.0154987E+00 -1.5637654E+02  1.7592970E+02  1.9073486E-06  0.0000000E+00  1.0000000E+00
-13  1  5  5   0   0  8.8272358E+01  5.9100985E+01  6.4525734E+02  6.5394340E+02  4.2649612E-06  0.0000000E+00  1.0000000E+00
 13  1  5  5   0   0 -7.2556308E+00 -1.4530381E+01  1.3082279E+02  1.3182707E+02  2.2888184E-05  0.0000000E+00  1.0000000E+00
</event>
<event>
9 100 1.0000000E+00 1.0000000E+03 7.8125000E-03 0.0000000E+00
 21 -1  0  0 501 502  0.0000000E+00  0.0000000E+00  7.1508746E+02  7.1508746E+02  0.0000000E+00  0.0000000E+00  1.0000000E+00
 21 -1  0  0 502 501  0.0000000E+00  0.0000000E+00 -3.5129534E+02  3.5129534E+02  0.0000000E+00  0.0000000E+00  1.0000000E+00
 39  2  1  2   0   0 -1.4210855E-13 -3.4106051E-13  3.6379212E+02  1.0663828E+03  1.0024109E+03  0.0000000E+00  1.0000000E+00
 23  2  3  3   0   0 -1.5704121E+02 -2.7480890E+02  5.8435309E+02  6.7075528E+02  9.0896810E+01  0.0000000E+00  1.0000000E+00
 23  2  3  3   0   0  1.5704121E+02  2.7480890E+02 -2.2056097E+02  3.9562752E+02  8.7704699E+01  0.0000000E+00  1.0000000E+00
-11  1  4  4   0   0 -1.1158477E+02 -2.5138932E+02  4.5510729E+02  5.3176160E+02  2.6973983E-06  0.0000000E+00  1.0000000E+00
 11  1  4  4   0   0 -4.5456449E+01 -2.3419578E+01  1.2924580E+02  1.3899368E+02  7.6293945E-06  0.0000000E+00  1.0000000E+00
-13  1  5  5   0   0  1.3263868E+02  2.1296875E+02 -2.1224548E+02  3.2862875E+02  1.5634152E-06  0.0000000E+00  1.0000000E+00
 13  1  5  5   0   0  2.4402533E+01  6.1840148E+01 -8.3154894E+00  6.6998768E+01  2.6973983E-06  0.0000000E+00  1.0000000E+00
</event>
<event>
9 100 1.0000000E+00 1.0000000E+03 7.8125000E-03 0.0000000E+00
 21 -1  0  0 501 502  0.0000000E+00  0.0000000E+00  1.4068907E+02  1.4068907E+02  0.0000000E+00  0.0000000E+00  1.0000000E+00
 21 -1  0  0 502 501  0.0000000E+00  0.0000000E+00 -1.7937662E+03  1.7937662E+03  0.0000000E+00  0.0000000E+00  1.0000000E+00
 39  2  1  2   0   0 -2.4158453E-13  9.0949470E-13 -1.6530771E+03  1.9344553E+03  1.0047155E+03  0.0000000E+00  1.0000000E+00
 23  2  3  3   0   0  1.0802713E+02 -3.8111813E+02 -1.3968497E+03  1.4548362E+03  9.1860823E+01  0.0000000E+00  1.0000000E+00
 23  2  3  3   0   0 -1.0802713E+02  3.8111813E+02 -2.5622740E+02  4.7961905E+02  8.6377421E+01  0.0000000E+00  1.0000000E+00
-11  1  4  4   0   0  6.0534896E+00 -1.8761699E+02 -6.6808812E+02  6.9395859E+02  1.8688124E-05  0.0000000E+00  1.0000000E+00
 11  1  4  4   0   0  1.0197364E+02 -1.9350113E+02 -7.2876158E+02  7.6087762E+02  1.7059845E-05  0.0000000E+00  1.0000000E+00
-13  1  5  5   0   0 -1.0515159E+02  2.4796212E+02 -1.4377813E+02  3.0531004E+02  1.0533677E-05  0.0000000E+00  1.0000000E+00
 13  1  5  5   0   0 -2.8755471E+00  1.3315600E+02 -1.1244927E+02  1.7430900E+02  1.8977879E-05  0.0000000E+00  1.0000000E+00
</event>
<event>
9 100 1.0000000E+00 1.0000000E+03 7.8125000E-03 0.0000000E+00
 21 -1  0  0 501 502  0.0000000E+00  0.0000000E+00  6.0331777E+02  6.0331777E+02  0.0000000E+00  0.0000000E+00  1.0000000E+00
 21 -1  0  0 502 501  0.0000000E+00  0.0000000E+00 -4.1124286E+02  4.1124286E+02  0.0000000E+00  0.0000000E+00  1.0000000E+00
 39  2  1  2   0   0 -4.5474735E-13 -4.5474735E-13  1.9207491E+02  1.0145606E+03  9.9621308E+02  0.0000000E+00  1.0000000E+00
 23  2  3  3   0   0 -3.1585914E+02 -3.6577491E+02  2.0276705E+01  4.9267024E+02  9.3565683E+01  0.0000000E+00  1.0000000E+00
 23  2  3  3   0   0  3.1585914E+02  3.6577491E+02  1.7179820E+02  5.2189039E+02  9.6419231E+01  0.0000000E+00  1.0000000E+00
-11  1  4  4   0   0 -2.8316856E+02 -2.8033203E+02  3.5063057E+01  3.9999987E+02  5.2722321E-06  0.0000000E+00  1.0000000E+00
 11  1  4  4   0   0 -3.2690578E+01 -8.5442887E+01 -1.4786353E+01  9.2670368E+01  1.7700874E-05  0.0000000E+00  1.0000000E+00
-13  1  5  5   0   0  2.3600936E+02  2.8864542E+02  8.8802540E+01  3.8327860E+02  7.3253114E-06  0.0000000E+00  1.0000000E+00
 13  1  5  5   0   0  7.9849782E+01  7.7129491E+01  8.2995661E+01  1.3861178E+02  1.6899152E-05  0.0000000E+00  1.0000000E+00
</event>
<event>
9 100 1.0000000E+00 1.0000000E+03 7.8125000E-03 0.0000000E+00
 21 -1  0  0 501 502  0.0000000E+00  0.0000000E+00  9.5541992E+02  9.5541992E+02  0.0000000E+00  0.0000000E+00  1.0000000E+00
 21 -1  0  0 502 501  0.0000000E+00  0.0000000E+00 -2.6292042E+02  2.6292042E+02  0.0000000E+00  0.0000000E+00  1.0000000E+00
 39  2  1  2   0   0  1.0231815E-12 -1.0231815E-12  6.9249950E+02  1.2183403E+03  1.0023959E+03  0.0000000E+00  1.0000000E+00
 23  2  3  3   0   0  2.5664822E+02 -2.8052683E+02  7.2886257E+02  8.2726189E+02  9.2509341E+01  0.0000000E+00  1.0000000E+00
 23  2  3  3   0   0 -2.5664822E+02  2.8052683E+02 -3.6363067E+01  3.9107845E+02  8.4002766E+01  0.0000000E+00  1.0000000E+00
-11  1  4  4   0   0  1.7555796E+02 -2.0023035E+02  5.9150106E+02  6.4868042E+02  3.3036247E-06  0.0000000E+00  1.0000000E+00
 11  1  4  4   0   0  8.1090265E+01 -8.0296479E+01  1.3736151E+02  1.7858147E+02  1.3214499E-05  0.0000000E+00  1.0000000E+00
-13  1  5  5   0   0 -1.9495846E+02  1.7392748E+02 -5.3625326E+01  2.6671192E+02  7.5620420E-06  0.0000000E+00  1.0000000E+00
 13  1  5  5   0   0 -6.1689761E+01  1.0659935E+02  1.7262259E+01  1.2436653E+02  1.5169119E-05  0.0000000E+00  1.0000000E+00
</event>
<event>
9 100 1.0000000E+00 1.0000000E+03 7.8125000E-03 0.0000000E+00
 21 -1  0  0 501 502  0.0000000E+00  0.0000000E+00  2.0247920E+02  2.0247920E+02  0.0000000E+00  0.0000000E+00  1.0000000E+00
 21 -1  0  0 502 501  0.0000000E+00  0.0000000E+00 -1.2624505E+03  1.2624505E+03  0.0000000E+00  0.0000000E+00  1.0000000E+00
 39  2  1  2   0   0  9.6633812E-13 -4.6895821E-13 -1.0599713E+03  1.4649297E+03  1.0111775E+03  0.0000000E+00  1.0000000E+00
 23  2  3  3   0   0 -2.0452429E+02  9.8506068E+01  1.1094055E+02  2.6862300E+02  9.1196930E+01  0.0000000E+00  1.0000000E+00
 23  2  3  3   0   0  2.0452429E+02 -9.8506068E+01 -1.1709119E+03  1.1963067E+03  9.2636689E+01  0.0000000E+00  1.0000000E+00
-11  1  4  4   0   0 -5.2438635E+01 -1.4150465E+01  1.4569927E+01  5.6234588E+01  6.8770433E-06  0.0000000E+00  1.0000000E+00
 11  1  4  4   0   0 -1.5208565E+02  1.1265653E+02  9.6370621E+01  2.1238841E+02  2.9004872E-06  0.0000000E+00  1.0000000E+00
-13  1  5  5   0   0  1.2208830E+02 -8.2313747E+01 -9.1987775E+02  9.3158799E+02  1.1121658E-05  0.0000000E+00  1.0000000E+00
 13  1  5  5   0   0  8.2435981E+01 -1.6192321E+01 -2.5103412E+02  2.6471874E+02  3.0517578E-05  0.0000000E+00  1.0000000E+00
</event>
<event>
9 100 1.0000000E+00 1.0000000E+03 7.8125000E-03 0.0000000E+00
 21 -1  0  0 501 502  0.0000000E+00  0.0000000E+00  4.5277496E+02  4.5277496E+02  0.0000000E+00  0.0000000E+00  1.0000000E+00
 21 -1  0  0 502 501  0.0000000E+00  0.0000000E+00 -5.4342181E+02  5.4342181E+02  0.0000000E+00  0.0000000E+00  1.0000000E+00
 39  2  1  2   0   0  3.2684966E-13  1.1368684E-12 -9.0646852E+01  9.9619678E+02  9.9206409E+02  0.0000000E+00  1.0000000E+00
 23  2  3  3   0   0  1.0899832E+02  3.8858585E+02  2.2962153E+02  4.7311342E+02  9.0722968E+01  0.0000000E+00  1.0000000E+00
 23  2  3  3   0   0 -1.0899832E+02 -3.8858585E+02 -3.2026838E+02  5.2308336E+02  9.0359100E+01  0.0000000E+00  1.0000000E+00
-11  1  4  4   0   0  6.6652402E+01  3.3757338E+02  1.6932172E+02  3.8349468E+02  2.6973983E-06  0.0000000E+00  1.0000000E+00
 11  1  4  4   0   0  4.2345919E+01  5.1012474E+01  6.0299814E+01  8.9618730E+01  1.5018478E-05  0.0000000E+00  1.0000000E+00
-13  1  5  5   0   0 -1.1221812E+02 -3.7364083E+02 -2.8056502E+02  4.8053835E+02  1.5814899E-06  0.0000000E+00  1.0000000E+00
 13  1  5  5   0   0  3.2197951E+00 -1.4945020E+01 -3.9703366E+01  4.2545011E+01  3.8146973E-06  0.0000000E+00  1.0000000E+00
</event>
<event>
9 100 1.0000000E+00 1.0000000E+03 7.8125000E-03 0.0000000E+00
 21 -1  0  0 501 502  0.0000000E+00  0.0000000E+00  1.9547156E+03  1.9547156E+03  0.0000000E+00  0.0000000E+00  1.0000000E+00
 21 -1  0  0 502 501  0.0000000E+00  0.0000000E+00 -1.2995144E+02  1.2995144E+02  0.0000000E+00  0.0000000E+00  1.0000000E+00
 39  2  1  2   0   0 -6.6791017E-13  3.1263880E-12  1.8247642E+03  2.0846671E+03  1.0080042E+03  0.0000000E+00  1.0000000E+00
 23  2  3  3   0   0  1.0004813E+02 -4.7562878E+02  1.1126684E+03  1.2176419E+03  9.1589175E+01  0.0000000E+00  1.0000000E+00
 23  2  3  3   0   0 -1.0004813E+02  4.7562878E+02  7.1209580E+02  8.6702513E+02  9.1759377E+01  0.0000000E+00  1.0000000E+00
-11  1  4  4   0   0  5.7302753E+00 -1.3009454E+02  3.8838497E+02  4.0963436E+02  2.1579186E-05  0.0000000E+00  1.0000000E+00
 11  1  4  4   0   0  9.4317857E+01 -3.4553424E+02  7.2428341E+02  8.0800757E+02  1.3214499E-05  0.0000000E+00  1.0000000E+00
-13  1  5  5   0   0 -1.3305834E+01  8.6039125E+01  7.3401127E+01  1.1387494E+02  2.4126264E-05  0.0000000E+00  1.0000000E+00
 13  1  5  5   0   0 -8.6742298E+01  3.8958966E+02  6.3869468E+02  7.5315020E+02  7.4484345E-06  0.0000000E+00  1.0000000E+00
</event>
<event>
9 100 1.0000000E+00 1.0000000E+03 7.8125000E-03 0.0000000E+00
 21 -1  0  0 501 502  0.0000000E+00  0.0000000E+00  5.3430362E+02  5.3430362E+02  0.0000000E+00  0.0000000E+00  1.0000000E+00
 21 -1  0  0 502 501  0.0000000E+00  0.0000000E+00 -4.6381041E+02  4.6381041E+02  0.0000000E+00  0.0000000E+00  1.0000000E+00
 39  2  1  2   0   0 -1.8758328E-12  4.8316906E-13  7.0493211E+01  9.9811403E+02  9.9562158E+02  0.0000000E+00  1.0000000E+00
 23  2  3  3   0   0 -4.3021665E+02  1.1413161E+02 -1.6815032E+02  4.8497656E+02  9.3890065E+01  0.0000000E+00  1.0000000E+00
 23  2  3  3   0   0  4.3021665E+02 -1.1413161E+02  2.3864353E+02  5.1313746E+02  9.0812603E+01  0.0000000E+00  1.0000000E+00
-11  1  4  4   0   0 -1.7595987E+02  3.9517717E+01 -1.1737934E+02  2.1517768E+02  6.4681339E-06  0.0000000E+00  1.0000000E+00
 11  1  4  4   0   0 -2.5425678E+02  7.4613890E+01 -5.0770986E+01  2.6979888E+02  4.2649612E-06  0.0000000E+00  1.0000000E+00
-13  1  5  5   0   0  3.5180328E+02 -6.6315595E+01  2.1750620E+02  4.1889408E+02  1.9221920E-06  0.0000000E+00  1.0000000E+00
 13  1  5  5   0   0  7.8413371E+01 -4.7816013E+01  2.1137336E+01  9.4243381E+01  1.0446979E-05  0.0000000E+00  1.0000000E+00
</event>
<event>
9 100 1.0000000E+00 1.0000000E+03 7.8125000E-03 0.0000000E+00
 21 -1  0  0 501 502  0.0000000E+00  0.0000000E+00  4.5796450E+02  4.5796450E+02  0.0000000E+00  0.0000000E+00  1.0000000E+00
 21 -1  0  0 502 501  0.0000000E+00  0.0000000E+00 -5.8320929E+02  5.8320929E+02  0.0000000E+00  0.0000000E+00  1.0000000E+00
 39  2  1  2   0   0  7.1054274E-15  2.8421709E-13 -1.2524479E+02  1.0411738E+03  1.0336134E+03  0.0000000E+00  1.0000000E+00
 23  2  3  3   0   0  1.8612970E+01  4.1606644E+02 -3.5726446E+02  5.5651809E+02  9.2826486E+01  0.0000000E+00  1.0000000E+00
 23  2  3  3   0   0 -1.8612970E+01 -4.1606644E+02  2.3201968E+02  4.8465570E+02  8.7179658E+01  0.0000000E+00  1.0000000E+00
-11  1  4  4   0   0  9.1201737E+00  1.4383715E+02 -6.8588498E+01  1.5961418E+02  3.8146973E-06  0.0000000E+00  1.0000000E+00
 11  1  4  4   0   0  9.4927965E+00  2.7222929E+02 -2.8867597E+02  3.9690391E+02  4.7683716E-06  0.0000000E+00  1.0000000E+00
-13  1  5  5   0   0 -2.5997259E+01 -3.1988094E+01  1.8869029E+01  4.5333607E+01  1.7059845E-05  0.0000000E+00  1.0000000E+00
 13  1  5  5   0   0  7.3842891E+00 -3.8407835E+02  2.1315065E+02  4.3932209E+02  3.1085979E-06  0.0000000E+00  1.0000000E+00
</event>
<event>
9 100 1.0000000E+00 1.0000000E+03 7.8125000E-03 0.0000000E+00
 21 -1  0  0 501 502  0.0000000E+00  0.0000000E+00  8.2061354E+02  8.2061354E+02  0.0000000E+00  0.0000000E+00  1.0000000E+00
 21 -1  0  0 502 501  0.0000000E+00  0.0000000E+00 -2.8267856E+02  2.8267856E+02  0.0000000E+00  0.0000000E+00  1.0000000E+00
 39  2  1  2   0   0  2.8421709E-14  4.2632564E-14  5.3793498E+02  1.1032921E+03  9.6326497E+02  0.0000000E+00  1.0000000E+00
 23  2  3  3   0   0  2.2716381E+02  8.8706732E+01  7.3246309E+02  7.7765590E+02  9.3670883E+01  0.0000000E+00  1.0000000E+00
 23  2  3  3   0   0 -2.2716381E+02 -8.8706732E+01 -1.9452811E+02  3.2563620E+02  9.3410222E+01  0.0000000E+00  1.0000000E+00
-11  1  4  4   0   0  2.0028711E+01 -1.5393133E+01  3.8964055E+01  4.6435928E+01  2.5303839E-05  0.0000000E+00  1.0000000E+00
 11  1  4  4   0   0  2.0713510E+02  1.0409987E+02  6.9349904E+02  7.3121997E+02  2.4314020E-06  0.0000000E+00  1.0000000E+00
-13  1  5  5   0   0 -1.2026323E+02 -9.4037480E+01 -9.7296860E+01  1.8103306E+02  6.6072495E-06  0.0000000E+00  1.0000000E+00
 13  1  5  5   0   0 -1.0690058E+02  5.3307474E+00 -9.7231250E+01  1.4460314E+02  8.0921949E-06  0.0000000E+00  1.0000000E+00
</event>
<event>
9 100 1.0000000E+00 1.0000000E+03 7.8125000E-03 0.0000000E+00
 21 -1  0  0 501 502  0.0000000E+00  0.0000000E+00  1.0859364E+03  1.0859364E+03  0.0000000E+00  0.0000000E+00  1.0000000E+00
 21 -1  0  0 502 501  0.0000000E+00  0.0000000E+00 -2.2636477E+02  2.2636477E+02  0.0000000E+00  0.0000000E+00  1.0000000E+00
 39  2  1  2   0   0  1.8758328E-12  2.1032065E-12  8.5957159E+02  1.3123011E+03  9.9160019E+02  0.0000000E+00  1.0000000E+00
 23  2  3  3   0   0  1.9347479E+02  2.2108841E+02  9.4466234E+02  9.9343530E+02  9.0632119E+01  0.0000000E+00  1.0000000E+00
 23  2  3  3   0   0 -1.9347479E+02 -2.2108841E+02 -8.5090747E+01  3.1886583E+02  9.0124389E+01  0.0000000E+00  1.0000000E+00
-11  1  4  4   0   0  3.9493661E+01  2.1353724E+00  1.0940431E+02  1.1633406E+02  1.8688124E-05  0.0000000E+00  1.0000000E+00
 11  1  4  4   0   0  1.5398113E+02  2.1895304E+02  8.3525802E+02  8.7710124E+02  5.5608291E-06  0.0000000E+00  1.0000000E+00
-13  1  5  5   0   0 -9.1462138E+01 -1.3353413E+02 -8.8341122E+01  1.8439317E+02  7.6063094E-06  0.0000000E+00  1.0000000E+00
 13  1  5  5   0   0 -1.0201265E+02 -8.7554279E+01  3.2503742E+00  1.3447267E+02  1.0271387E-05  0.0000000E+00  1.0000000E+00
</event>
<event>
9 100 1.0000000E+00 1.0000000E+03 7.8125000E-03 0.0000000E+00
 21 -1  0  0 501 502  0.0000000E+00  0.0000000E+00  6.5407618E+02  6.5407618E+02  0.0000000E+00  0.0000000E+00  1.0000000E+00
 21 -1  0  0 502 501  0.0000000E+00  0.0000000E+00 -3.7541310E+02  3.7541310E+02  0.0000000E+00  0.0000000E+00  1.0000000E+00
 39  2  1  2   0   0 -5.1159077E-13 -4.5474735E-13  2.7866308E+02  1.0294893E+03  9.9105755E+02  0.0000000E+00  1.0000000E+00
 23  2  3  3   0   0 -3.2535495E+02 -3.5517685E+02  6.4221902E+01  4.9448704E+02  9.1578087E+01  0.0000000E+00  1.0000000E+00
 23  2  3  3   0   0  3.2535495E+02  3.5517685E+02  2.1444117E+02  5.3500224E+02  9.0752096E+01  0.0000000E+00  1.0000000E+00
-11  1  4  4   0   0 -3.1722501E+02 -3.0739428E+02  5.4843844E+01  4.4511885E+02  1.1619084E-06  0.0000000E+00  1.0000000E+00
 11  1  4  4   0   0 -8.1299410E+00 -4.7782571E+01  9.3780574E+00  4.9368188E+01  1.5228958E-05  0.0000000E+00  1.0000000E+00
-13  1  5  5   0   0  1.6032557E+02  1.0954659E+02  8.1315274E+01  2.1051584E+02  1.0956884E-05  0.0000000E+00  1.0000000E+00
 13  1  5  5   0   0  1.6502937E+02  2.4563026E+02  1.3312590E+02  3.2448640E+02  7.2000832E-06  0.0000000E+00  1.0000000E+00
</event>
<event>
9 100 1.0000000E+00 1.0000000E+03 7.8125000E-03 0.0000000E+00
 21 -1  0  0 501 502  0.0000000E+00  0.0000000E+00  3.0136593E+02  3.0136593E+02  0.0000000E+00  0.0000000E+00  1.0000000E+00
 21 -1  0  0 502 501  0.0000000E+00  0.0000000E+00 -8.2949521E+02  8.2949521E+02  0.0000000E+00  0.0000000E+00  1.0000000E+00
 39  2  1  2   0   0 -3.6948222E-13 -1.0658141E-14 -5.2812929E+02  1.1308611E+03  9.9996318E+02  0.0000000E+00  1.0000000E+00
 23  2  3  3   0   0 -1.4959864E+02 -3.9968282E+00 -7.9357984E+02  8.1273120E+02  9.1473029E+01  0.0000000E+00  1.0000000E+00
 23  2  3  3   0   0  1.4959864E+02  3.9968282E+00  2.6545055E+02  3.1812994E+02  9.1361549E+01  0.0000000E+00  1.0000000E+00
-11  1  4  4   0   0 -3.3406066E+01  6.8327751E+00 -5.3050802E+01  6.3063775E+01  0.0000000E+00  0.0000000E+00  1.0000000E+00
 11  1  4  4   0   0 -1.1619258E+02 -1.0829603E+01 -7.4052904E+02  7.4966743E+02  6.7434958E-07  0.0000000E+00  1.0000000E+00
-13  1  5  5   0   0  3.9952145E+01  1.0020291E+01  1.3593992E+01  4.3374840E+01  1.2651920E-05  0.0000000E+00  1.0000000E+00
 13  1  5  5   0   0  1.0964650E+02 -6.0234630E+00  2.5185656E+02  2.7475510E+02  3.7697287E-06  0.0000000E+00  1.0000000E+00
</event>
<event>
9 100 1.0000000E+00 1.0000000E+03 7.8125000E-03 0.0000000E+00
 21 -1  0  0 501 502  0.0000000E+00  0.0000000E+00  1.4038960E+02  1.4038960E+02  0.0000000E+00  0.0000000E+00  1.0000000E+00
 21 -1  0  0 502 501  0.0000000E+00  0.0000000E+00 -1.7436401E+03  1.7436401E+03  0.0000000E+00  0.0000000E+00  1.0000000E+00
 39  2  1  2   0   0 -3.2969183E-12 -4.2632564E-14 -1.6032505E+03  1.8840297E+03  9.8952298E+02  0.0000000E+00  1.0000000E+00
 23  2  3  3   0   0 -4.8614289E+02 -6.6845139E+00 -7.9948150E+02  9.4020812E+02  9.1875267E+01  0.0000000E+00  1.0000000E+00
 23  2  3  3   0   0  4.8614289E+02  6.6845139E+00 -8.0376897E+02  9.4382154E+02  9.1514764E+01  0.0000000E+00  1.0000000E+00
-11  1  4  4   0   0 -2.5108031E+02 -2.3685127E+01 -4.9121456E+02  5.5217212E+02  5.3947966E-06  0.0000000E+00  1.0000000E+00
 11  1  4  4   0   0 -2.3506257E+02  1.7000613E+01 -3.0826693E+02  3.8803600E+02  1.0789593E-05  0.0000000E+00  1.0000000E+00
-13  1  5  5   0   0  1.8887577E+02 -4.1840268E+01 -3.0658945E+02  3.6252138E+02  2.0185481E-05  0.0000000E+00  1.0000000E+00
 13  1  5  5   0   0  2.9726712E+02  4.8524782E+01 -4.9717952E+02  5.8130016E+02  1.9073486E-05  0.0000000E+00  1.0000000E+00
</event>
<event>
9 100 1.0000000E+00 1.0000000E+03 7.8125000E-03 0.0000000E+00
 21 -1  0  0 501 502  0.0000000E+00  0.0000000E+00  4.3966276E+02  4.3966276E+02  0.0000000E+00  0.0000000E+00  1.0000000E+00
 21 -1  0  0 502 501  0.0000000E+00  0.0000000E+00 -5.6472161E+02  5.6472161E+02  0.0000000E+00  0.0000000E+00  1.0000000E+00
 39  2  1  2   0   0 -8.5265128E-14 -5.6843419E-14 -1.2505885E+02  1.0043844E+03  9.9656823E+02  0.0000000E+00  1.0000000E+00
 23  2  3  3   0   0  1.9877560E+02  1.9093005E+02 -4.6670573E+02  5.4976141E+02  9.1963867E+01  0.0000000E+00  1.0000000E+00
 23  2  3  3   0   0 -1.9877560E+02 -1.9093005E+02  3.4164688E+02  4.5462295E+02  1.1829377E+02  0.0000000E+00  1.0000000E+00
-11  1  4  4   0   0  2.1229753E+01  2.3078622E+01 -1.3011785E+02  1.3384312E+02  1.3214499E-05  0.0000000E+00  1.0000000E+00
 11  1  4  4   0   0  1.7754585E+02  1.6785143E+02 -3.3658788E+02  4.1591829E+02  4.2649612E-06  0.0000000E+00  1.0000000E+00
-13  1  5  5   0   0 -1.3304700E+02 -6.9982066E+01  2.4121890E+02  2.8422799E+02  6.1805160E-06  0.0000000E+00  1.0000000E+00
 13  1  5  5   0   0 -6.5728599E+01 -1.2094798E+02  1.0042798E+02  1.7039496E+02  8.5299224E-06  0.0000000E+00  1.0000000E+00
</event>
<event>
9 100 1.0000000E+00 1.0000000E+03 7.8125000E-03 0.0000000E+00
 21 -1  0  0 501 502  0.0000000E+00  0.0000000E+00  6.5593908E+02  6.5593908E+02  0.0000000E+00  0.0000000E+00  1.0000000E+00
 21 -1  0  0 502 501  0.0000000E+00  0.0000000E+00 -3.7862485E+02  3.7862485E+02  0.0000000E+00  0.0000000E+00  1.0000000E+00
 39  2  1  2   0   0  1.4210855E-14 -7.1054274E-15  2.7731424E+02  1.0345639E+03  9.9670424E+02  0.0000000E+00  1.0000000E+00
 23  2  3  3   0   0 -3.2484151E+01  3.0085408E+01 -3.6792473E+02  3.8144743E+02  9.0405685E+01  0.0000000E+00  1.0000000E+00
 23  2  3  3   0   0  3.2484151E+01 -3.0085408E+01  6.4523897E+02  6.5311650E+02  9.0925690E+01  0.0000000E+00  1.0000000E+00
-11  1  4  4   0   0 -2.1518483E+01  1.5679105E+01 -3.6112900E+02  3.6210915E+02  2.8535626E-06  0.0000000E+00  1.0000000E+00
 11  1  4  4   0   0 -1.0965668E+01  1.4406303E+01 -6.7957275E+00  1.9338287E+01  2.0893957E-05  0.0000000E+00  1.0000000E+00
-13  1  5  5   0   0  1.5135778E+01 -2.6074236E+01  5.5928072E+01  6.3536657E+01  2.6428998E-05  0.0000000E+00  1.0000000E+00
 13  1  5  5   0   0  1.7348373E+01 -4.0111722E+00  5.8931089E+02  5.8957984E+02  4.6231078E-06  0.0000000E+00  1.0000000E+00
</event>
<event>
9 100 1.0000000E+00 1.0000000E+03 7.8125000E-03 0.0000000E+00
 21 -1  0  0 501 502  0.0000000E+00  0.0000000E+00  2.9668890E+02  2.9668890E+02  0.0000000E+00  0.0000000E+00  1.0000000E+00
 21 -1  0  0 502 501  0.0000000E+00  0.0000000E+00 -8.3498579E+02  8.3498579E+02  0.0000000E+00  0.0000000E+00  1.0000000E+00
 39  2  1  2   0   0  1.7053026E-13  7.1054274E-14 -5.3829689E+02  1.1316747E+03  9.9545169E+02  0.0000000E+00  1.0000000E+00
 23  2  3  3   0   0 -2.4920567E+02 -8.2722550E+01  2.0019852E+02  3.4246433E+02  9.0861895E+01  0.0000000E+00  1.0000000E+00
 23  2  3  3   0   0  2.4920567E+02  8.2722550E+01 -7.3849542E+02  7.8921036E+02  9.2363583E+01  0.0000000E+00  1.0000000E+00
-11  1  4  4   0   0 -1.9508921E+02 -2.1859031E+01  1.4565232E+02  2.4444267E+02  5.5197892E-06  0.0000000E+00  1.0000000E+00
 11  1  4  4   0   0 -5.4116457E+01 -6.0863520E+01  5.4546197E+01  9.8021664E+01  1.1757687E-05  0.0000000E+00  1.0000000E+00
-13  1  5  5   0   0  6.0762360E+01 -1.7116237E+01 -2.1089292E+02  2.2013826E+02  7.6293945E-06  0.0000000E+00  1.0000000E+00
 13  1  5  5   0   0  1.8844331E+02  9.9838787E+01 -5.2760250E+02  5.6907210E+02  5.3947966E-06  0.0000000E+00  1.0000000E+00
</event>
<event>
9 100 1.0000000E+00 1.0000000E+03 7.8125000E-03 0.0000000E+00
 21 -1  0  0 501 502  0.0000000E+00  0.0000000E+00  3.5610421E+02  3.5610421E+02  0.0000000E+00  0.0000000E+00  1.0000000E+00
 21 -1  0  0 502 501  0.0000000E+00  0.0000000E+00 -6.7939937E+02  6.7939937E+02  0.0000000E+00  0.0000000E+00  1.0000000E+00
 39  2  1  2   0   0  3.6948222E-13  4.2632564E-13 -3.2329516E+02  1.0355036E+03  9.8374180E+02  0.0000000E+00  1.0000000E+00
 23  2  3  3   0   0  1.2784043E+02  1.3866802E+02  3.0694899E+02  3.7124125E+02  8.9612410E+01  0.0000000E+00  1.0000000E+00
 23  2  3  3   0   0 -1.2784043E+02 -1.3866802E+02 -6.3024415E+02  6.6426234E+02  9.2004170E+01  0.0000000E+00  1.0000000E+00
-11  1  4  4   0   0 -9.0461080E+00  1.4989449E+01  6.3011183E+01  6.5398202E+01  7.1366451E-06  0.0000000E+00  1.0000000E+00
 11  1  4  4   0   0  1.3688654E+02  1.2367857E+02  2.4393781E+02  3.0584305E+02  1.6518124E-06  0.0000000E+00  1.0000000E+00
-13  1  5  5   0   0 -1.0613700E+02 -4.7871471E+01 -3.5776162E+02  3.7623146E+02  0.0000000E+00  0.0000000E+00  1.0000000E+00
 13  1  5  5   0   0 -2.1703431E+01 -9.0796550E+01 -2.7248254E+02  2.8803088E+02  6.6072495E-06  0.0000000E+00  1.0000000E+00
</event>
<event>
9 100 1.0000000E+00 1.0000000E+03 7.8125000E-03 0.0000000E+00
 21 -1  0  0 501 502  0.0000000E+00  0.0000000E+00  5.7646314E+02  5.7646314E+02  0.0000000E+00  0.0000000E+00  1.0000000E+00
 21 -1  0  0 502 501  0.0000000E+00  0.0000000E+00 -4.2447594E+02  4.2447594E+02  0.0000000E+00  0.0000000E+00  1.0000000E+00
 39  2  1  2   0   0 -2.8421709E-13 -7.1054274E-14  1.5198720E+02  1.0009391E+03  9.8933258E+02  0.0000000E+00  1.0000000E+00
 23  2  3  3   0   0 -2.5362562E+02 -4.6047784E+01 -3.4120864E+02  4.3701385E+02  9.0063384E+01  0.0000000E+00  1.0000000E+00
 23  2  3  3   0   0  2.5362562E+02  4.6047784E+01  4.9319584E+02  5.6392523E+02  9.1231453E+01  0.0000000E+00  1.0000000E+00
-11  1  4  4   0   0 -1.0025294E+02  1.8593805E+01 -9.1980535E+01  1.3732007E+02  6.0315660E-06  0.0000000E+00  1.0000000E+00
 11  1  4  4   0   0 -1.5337268E+02 -6.4641588E+01 -2.4922811E+02  2.9969378E+02  0.0000000E+00  0.0000000E+00  1.0000000E+00
-13  1  5  5   0   0  1.9972353E+01 -7.3459230E+00  1.0931205E+02  1.1136419E+02  1.0789593E-05  0.0000000E+00  1.0000000E+00
 13  1  5  5   0   0  2.3365327E+02  5.3393707E+01  3.8388379E+02  4.5256105E+02  6.1805160E-06  0.0000000E+00  1.0000000E+00
</event>
<event>
9 100 1.0000000E+00 1.0000000E+03 7.8125000E-03 0.0000000E+00
 21 -1  0  0 501 502  0.0000000E+00  0.0000000E+00  8.3110828E+02  8.3110828E+02  0.0000000E+00  0.0000000E+00  1.0000000E+00
 21 -1  0  0 502 501  0.0000000E+00  0.0000000E+00 -3.0168383E+02  3.0168383E+02  0.0000000E+00  0.0000000E+00  1.0000000E+00
 39  2  1  2   0   0  0.0000000E+00  2.8421709E-14  5.2942445E+02  1.1327921E+03  1.0014628E+03  0.0000000E+00  1.0000000E+00
 23  2  3  3   0   0 -4.5934902E+02  1.7640609E+02  2.3943966E+02  5.5460848E+02  9.0214150E+01  0.0000000E+00  1.0000000E+00
 23  2  3  3   0   0  4.5934902E+02 -1.7640609E+02  2.8998479E+02  5.7818363E+02  8.9913841E+01  0.0000000E+00  1.0000000E+00
-11  1  4  4   0   0 -1.4886682E+02  1.3144124E+01  7.3978122E+01  1.6675389E+02  2.1913767E-05  0.0000000E+00  1.0000000E+00
 11  1  4  4   0   0 -3.1048219E+02  1.6326197E+02  1.6546153E+02  3.8785459E+02  1.1562687E-05  0.0000000E+00  1.0000000E+00
-13  1  5  5   0   0  3.9426165E+02 -1.7203135E+02  2.7711207E+02  5.1169144E+02  6.2513879E-06  0.0000000E+00  1.0000000E+00
 13  1  5  5   0   0  6.5087367E+01 -4.3747419E+00  1.2872725E+01  6.6492186E+01  3.0036956E-05  0.0000000E+00  1.0000000E+00
</event>
<event>
9 100 1.0000000E+00 1.0000000E+03 7.8125000E-03 0.0000000E+00
 21 -1  0  0 501 502  0.0000000E+00  0.0000000E+00  5.5495824E+02  5.5495824E+02  0.0000000E+00  0.0000000E+00  1.0000000E+00
 21 -1  0  0 502 501  0.0000000E+00  0.0000000E+00 -4.5616559E+02  4.5616559E+02  0.0000000E+00  0.0000000E+00  1.0000000E+00
 39  2  1  2   0   0  4.5474735E-13  2.7000624E-13  9.8792647E+01  1.0111238E+03  1.0062859E+03  0.0000000E+00  1.0000000E+00
 23  2  3  3   0   0  1.3404506E+02  7.8700860E+01 -4.2287833E+02  4.5889991E+02  8.7184572E+01  0.0000000E+00  1.0000000E+00
 23  2  3  3   0   0 -1.3404506E+02 -7.8700860E+01  5.2167097E+02  5.5222391E+02  9.2998615E+01  0.0000000E+00  1.0000000E+00
-11  1  4  4   0   0 -3.5411497E+00  2.3777628E+01 -1.1169669E+02  1.1425439E+02  1.0092740E-05  0.0000000E+00  1.0000000E+00
 11  1  4  4   0   0  1.3758621E+02  5.4923232E+01 -3.1118163E+02  3.4464552E+02  1.9073486E-06  0.0000000E+00  1.0000000E+00
-13  1  5  5   0   0 -9.3972309E+00 -5.0957608E+01  1.8602593E+02  1.9310783E+02  7.6293945E-06  0.0000000E+00  1.0000000E+00
 13  1  5  5   0   0 -1.2464783E+02 -2.7743253E+01  3.3564504E+02  3.5911608E+02  0.0000000E+00  0.0000000E+00  1.0000000E+00
</event>
<event>
9 100 1.0000000E+00 1.0000000E+03 7.8125000E-03 0.0000000E+00
 21 -1  0  0 501 502  0.0000000E+00  0.0000000E+00  2.4855621E+02  2.4855621E+02  0.0000000E+00  0.0000000E+00  1.0000000E+00
 21 -1  0  0 502 501  0.0000000E+00  0.0000000E+00 -9.9873006E+02  9.9873006E+02  0.0000000E+00  0.0000000E+00  1.0000000E+00
 39  2  1  2   0   0 -5.9685590E-13 -5.8264504E-13 -7.5017385E+02  1.2472863E+03  9.9647490E+02  0.0000000E+00  1.0000000E+00
 23  2  3  3   0   0  1.0879724E+02  1.0098011E+02  2.0982782E+02  2.7170715E+02  8.8109241E+01  0.0000000E+00  1.0000000E+00
 23  2  3  3   0   0 -1.0879724E+02 -1.0098011E+02 -9.6000166E+02  9.7557912E+02  9.0097704E+01  0.0000000E+00  1.0000000E+00
-11  1  4  4   0   0  5.8915366E+01  1.0612161E+02  1.6183890E+02  2.0229841E+02  2.0230487E-06  0.0000000E+00  1.0000000E+00
 11  1  4  4   0   0  4.9881878E+01 -5.1415014E+00  4.7988916E+01  6.9408738E+01  5.7220459E-06  0.0000000E+00  1.0000000E+00
-13  1  5  5   0   0 -1.8941744E+01 -5.8794088E+01 -2.0571537E+02  2.1478908E+02  1.0789593E-05  0.0000000E+00  1.0000000E+00
 13  1  5  5   0   0 -8.9855500E+01 -4.2186024E+01 -7.5428629E+02  7.6079004E+02  2.6973983E-06  0.0000000E+00  1.0000000E+00
</event>
<event>
9 100 1.0000000E+00 1.0000000E+03 7.8125000E-03 0.0000000E+00
 21 -1  0  0 501 502  0.0000000E+00  0.0000000E+00  2.6086235E+02  2.6086235E+02  0.0000000E+00  0.0000000E+00  1.0000000E+00
 21 -1  0  0 502 501  0.0000000E+00  0.0000000E+00 -9.9459728E+02  9.9459728E+02  0.0000000E+00  0.0000000E+00  1.0000000E+00
 39  2  1  2   0   0 -1.3642421E-12 -1.7053026E-12 -7.3373493E+02  1.2554596E+03  1.0187306E+03  0.0000000E+00  1.0000000E+00
 23  2  3  3   0   0  2.9940372E+02  3.7293370E+02 -1.8421512E+02  5.2052394E+02  9.1037527E+01  0.0000000E+00  1.0000000E+00
 23  2  3  3   0   0 -2.9940372E+02 -3.7293370E+02 -5.4951981E+02  7.3493569E+02  9.7140743E+01  0.0000000E+00  1.0000000E+00
-11  1  4  4   0   0  2.6738842E+02  2.7832741E+02 -1.3260897E+02  4.0810275E+02  2.5231851E-06  0.0000000E+00  1.0000000E+00
 11  1  4  4   0   0  3.2015296E+01  9.4606291E+01 -5.1606153E+01  1.1242119E+02  1.0092740E-05  0.0000000E+00  1.0000000E+00
-13  1  5  5   0   0 -1.2782407E+01  1.5227001E+00 -3.3579311E+01  3.5962184E+01  1.5258789E-05  0.0000000E+00  1.0000000E+00
 13  1  5  5   0   0 -2.8662131E+02 -3.7445640E+02 -5.1594050E+02  6.9897351E+02  1.6518124E-06  0.0000000E+00  1.0000000E+00
</event>
<event>
9 100 1.0000000E+00 1.0000000E+03 7.8125000E-03 0.0000000E+00
 21 -1  0  0 501 502  0.0000000E+00  0.0000000E+00  1.8975921E+02  1.8975921E+02  0.0000000E+00  0.0000000E+00  1.0000000E+00
 21 -1  0  0 502 501  0.0000000E+00  0.0000000E+00 -1.3198191E+03  1.3198191E+03  0.0000000E+00  0.0000000E+00  1.0000000E+00
 39  2  1  2   0   0  1.7941204E-13  9.3791641E-13 -1.1300599E+03  1.5095783E+03  1.0008953E+03  0.0000000E+00  1.0000000E+00
 23  2  3  3   0   0 -1.3054470E+01 -6.9316397E+01 -1.2997611E+03  1.3048378E+03  9.0817205E+01  0.0000000E+00  1.0000000E+00
 23  2  3  3   0   0  1.3054470E+01  6.9316397E+01  1.6970121E+02  2.0474045E+02  9.0249502E+01  0.0000000E+00  1.0000000E+00
-11  1  4  4   0   0 -1.6095127E+01 -2.5432056E+01 -1.0946026E+03  1.0950163E+03  7.1366451E-06  0.0000000E+00  1.0000000E+00
 11  1  4  4   0   0  3.0406565E+00 -4.3884342E+01 -2.0515848E+02  2.0982155E+02  3.0517578E-05  0.0000000E+00  1.0000000E+00
-13  1  5  5   0   0  1.8711957E+01  8.6287782E+01  1.6348114E+02  1.8580044E+02  4.2214230E-06  0.0000000E+00  1.0000000E+00
 13  1  5  5   0   0 -5.6574872E+00 -1.6971384E+01  6.2200615E+00  1.8940016E+01  1.5018478E-05  0.0000000E+00  1.0000000E+00
</event>
<event>
9 100 1.0000000E+00 1.0000000E+03 7.8125000E-03 0.0000000E+00
 21 -1  0  0 501 502  0.0000000E+00  0.0000000E+00  7.7524780E+02  7.7524780E+02  0.0000000E+00  0.0000000E+00  1.0000000E+00
 21 -1  0  0 502 501  0.0000000E+00  0.0000000E+00 -3.1864579E+02  3.1864579E+02  0.0000000E+00  0.0000000E+00  1.0000000E+00
 39  2  1  2   0   0  1.0231815E-12 -1.7053026E-13  4.5660202E+02  1.0938936E+03  9.9404114E+02  0.0000000E+00  1.0000000E+00
 23  2  3  3   0   0  2.8112178E+02 -5.3954669E+01 -2.0702685E+02  3.6532774E+02  9.3078903E+01  0.0000000E+00  1.0000000E+00
 23  2  3  3   0   0 -2.8112178E+02  5.3954669E+01  6.6362886E+02  7.2856585E+02  9.2002042E+01  0.0000000E+00  1.0000000E+00
-11  1  4  4   0   0  2.7325175E+02 -6.7124586E+01 -1.7932481E+02  3.3366093E+02  3.8146973E-06  0.0000000E+00  1.0000000E+00
 11  1  4  4   0   0  7.8700283E+00  1.3169917E+01 -2.7702035E+01  3.1666809E+01  1.8094698E-05  0.0000000E+00  1.0000000E+00
-13  1  5  5   0   0 -5.3244637E+01  4.8910978E+01  1.7719531E+02  1.9137778E+02  0.0000000E+00  0.0000000E+00  1.0000000E+00
 13  1  5  5   0   0 -2.2787714E+02  5.0436907E+00  4.8643355E+02  5.3718808E+02  0.0000000E+00  0.0000000E+00  1.0000000E+00
</event>
<event>
9 100 1.0000000E+00 1.0000000E+03 7.8125000E-03 0.0000000E+00
 21 -1  0  0 501 502  0.0000000E+00  0.0000000E+00  2.9301213E+02  2.9301213E+02  0.0000000E+00  0.0000000E+00  1.0000000E+00
 21 -1  0  0 502 501  0.0000000E+00  0.0000000E+00 -8.4893531E+02  8.4893531E+02  0.0000000E+00  0.0000000E+00  1.0000000E+00
 39  2  1  2   0   0  8.5265128E-14 -5.1159077E-13 -5.5592318E+02  1.1419474E+03  9.9749354E+02  0.0000000E+00  1.0000000E+00
 23  2  3  3   0   0 -6.7129357E+01  4.8168587E+02 -2.0831955E+02  5.3722685E+02  9.3209531E+01  0.0000000E+00  1.0000000E+00
 23  2  3  3   0   0  6.7129357E+01 -4.8168587E+02 -3.4760363E+02  6.0472059E+02  9.1274740E+01  0.0000000E+00  1.0000000E+00
-11  1  4  4   0   0 -5.6204817E+01  4.6295692E+02 -2.1636115E+02  5.1410139E+02  1.4841437E-06  0.0000000E+00  1.0000000E+00
 11  1  4  4   0   0 -1.0924540E+01  1.8728955E+01  8.0416027E+00  2.3125456E+01  9.3440618E-06  0.0000000E+00  1.0000000E+00
-13  1  5  5   0   0  3.4490907E+01 -9.4597505E+01 -1.1105126E+02  1.4990228E+02  1.2936268E-05  0.0000000E+00  1.0000000E+00
 13  1  5  5   0   0  3.2638450E+01 -3.8708837E+02 -2.3655237E+02  4.5481831E+02  4.4731290E-06  0.0000000E+00  1.0000000E+00
</event>
<event>
9 100 1.0000000E+00 1.0000000E+03 7.8125000E-03 0.0000000E+00
 21 -1  0  0 501 502  0.0000000E+00  0.0000000E+00  3.5185838E+02  3.5185838E+02  0.0000000E+00  0.0000000E+00  1.0000000E+00
 21 -1  0  0 502 501  0.0000000E+00  0.0000000E+00 -7.0774909E+02  7.0774909E+02  0.0000000E+00  0.0000000E+00  1.0000000E+00
 39  2  1  2   0   0  1.9895197E-13  1.7621460E-12 -3.5589070E+02  1.0596075E+03  9.9805300E+02  0.0000000E+00  1.0000000E+00
 23  2  3  3   0   0  3.3695970E+01  3.2350313E+02  2.1160717E+02  3.9931343E+02  9.4254607E+01  0.0000000E+00  1.0000000E+00
 23  2  3  3   0   0 -3.3695970E+01 -3.2350313E+02 -5.6749787E+02  6.6029404E+02  9.0247954E+01  0.0000000E+00  1.0000000E+00
-11  1  4  4   0   0  3.6545675E+01  9.5508493E+01  2.6544777E+01  1.0565076E+02  5.3947966E-06  0.0000000E+00  1.0000000E+00
 11  1  4  4   0   0 -2.8497044E+00  2.2799463E+02  1.8506239E+02  2.9366267E+02  1.3902073E-06  0.0000000E+00  1.0000000E+00
-13  1  5  5   0   0  1.8616010E+01 -5.2467115E+01 -5.5416713E+01  7.8551678E+01  1.0789593E-05  0.0000000E+00  1.0000000E+00
 13  1  5  5   0   0 -5.2311980E+01 -2.7103601E+02 -5.1208116E+02  5.8174236E+02  2.2365645E-06  0.0000000E+00  1.0000000E+00
</event>
<event>
9 100 1.0000000E+00 1.0000000E+03 7.8125000E-03 0.0000000E+00
 21 -1  0  0 501 502  0.0000000E+00  0.0000000E+00  1.0784835E+03  1.0784835E+03  0.0000000E+00  0.0000000E+00  1.0000000E+00
 21 -1  0  0 502 501  0.0000000E+00  0.0000000E+00 -2.3288350E+02  2.3288350E+02  0.0000000E+00  0.0000000E+00  1.0000000E+00
 39  2  1  2   0   0  4.3769433E-12 -2.7711167E-13  8.4560003E+02  1.3113670E+03  1.0023193E+03  0.0000000E+00  1.0000000E+00
 23  2  3  3   0   0  4.2603820E+02 -2.7541405E+01  7.4679768E+02  8.6336922E+02  7.3705895E+01  0.0000000E+00  1.0000000E+00
 23  2  3  3   0   0 -4.2603820E+02  2.7541405E+01  9.8802355E+01  4.4799780E+02  9.3129197E+01  0.0000000E+00  1.0000000E+00
-11  1  4  4   0   0  4.0317193E+02 -1.2566985E+01  7.1878162E+02  8.2422846E+02  8.2590618E-07  0.0000000E+00  1.0000000E+00
 11  1  4  4   0   0  2.2866277E+01 -1.4974419E+01  2.8016056E+01  3.9140762E+01  2.2888184E-05  0.0000000E+00  1.0000000E+00
-13  1  5  5   0   0 -2.7356822E+02 -1.2257647E+01  2.8087422E+01  2.7527936E+02  7.3253114E-06  0.0000000E+00  1.0000000E+00
 13  1  5  5   0   0 -1.5246998E+02  3.9799052E+01  7.0714933E+01  1.7271845E+02  1.1503542E-05  0.0000000E+00  1.0000000E+00
</event>
<event>
9 100 1.0000000E+00 1.0000000E+03 7.8125000E-03 0.0000000E+00
 21 -1  0  0 501 502  0.0000000E+00  0.0000000E+00  5.8218356E+02  5.8218356E+02  0.0000000E+00  0.0000000E+00  1.0000000E+00
 21 -1  0  0 502 501  0.0000000E+00  0.0000000E+00 -4.2969916E+02  4.2969916E+02  0.0000000E+00  0.0000000E+00  1.0000000E+00
 39  2  1  2   0   0  4.8316906E-13  2.0605739E-13  1.5248440E+02  1.0118827E+03  1.0003275E+03  0.0000000E+00  1.0000000E+00
 23  2  3  3   0   0  8.5380516E+01  3.5163807E+01 -4.1261031E+02  4.3205571E+02  8.8873733E+01  0.0000000E+00  1.0000000E+00
 23  2  3  3   0   0 -8.5380516E+01 -3.5163807E+01  5.6509471E+02  5.7982700E+02  9.1329043E+01  0.0000000E+00  1.0000000E+00
-11  1  4  4   0   0  7.3681565E+01  5.3903008E+01 -3.8961651E+02  4.0016938E+02  4.7683716E-07  0.0000000E+00  1.0000000E+00
 11  1  4  4   0   0  1.1698952E+01 -1.8739200E+01 -2.2993801E+01  3.1886330E+01  1.6184390E-05  0.0000000E+00  1.0000000E+00
-13  1  5  5   0   0 -5.0978798E+01 -2.6174592E+01  1.1656111E+02  1.2988626E+02  1.5258789E-05  0.0000000E+00  1.0000000E+00
 13  1  5  5   0   0 -3.4401719E+01 -8.9892155E+00  4.4853360E+02  4.4994074E+02  6.0315660E-06  0.0000000E+00  1.0000000E+00
</event>
<event>
9 100 1.0000000E+00 1.0000000E+03 7.8125000E-03 0.0000000E+00
 21 -1  0  0 501 502  0.0000000E+00  0.0000000E+00  2.2291311E+02  2.2291311E+02  0.0000000E+00  0.0000000E+00  1.0000000E+00
 21 -1  0  0 502 501  0.0000000E+00  0.0000000E+00 -1.1309500E+03  1.1309500E+03  0.0000000E+00  0.0000000E+00  1.0000000E+00
 39  2  1  2   0   0  6.2527761E-13  1.2789769E-13 -9.0803692E+02  1.3538631E+03  1.0041984E+03  0.0000000E+00  1.0000000E+00
 23  2  3  3   0   0 -3.0991253E+02 -5.7440009E+01 -9.6707971E+02  1.0207355E+03  8.5513894E+01  0.0000000E+00  1.0000000E+00
 23  2  3  3   0   0  3.0991253E+02  5.7440009E+01  5.9042792E+01  3.3312766E+02  9.0237761E+01  0.0000000E+00  1.0000000E+00
-11  1  4  4   0   0 -2.1271163E+02  1.7929414E+00 -6.2243154E+02  6.5777691E+02  5.3947966E-06  0.0000000E+00  1.0000000E+00
 11  1  4  4   0   0 -9.7200902E+01 -5.9232951E+01 -3.4464818E+02  3.6295857E+02  1.5258789E-05  0.0000000E+00  1.0000000E+00
-13  1  5  5   0   0  2.9173914E+00  5.7217297E+00 -1.2174472E+01  1.3764706E+01  1.6764065E-05  0.0000000E+00  1.0000000E+00
 13  1  5  5   0   0  3.0699514E+02  5.1718280E+01  7.1217264E+01  3.1936295E+02  2.5005552E-06  0.0000000E+00  1.0000000E+00
</event>
<event>
9 100 1.0000000E+00 1.0000000E+03 7.8125000E-03 0.0000000E+00
 21 -1  0  0 501 502  0.0000000E+00  0.0000000E+00  9.8322013E+02  9.8322013E+02  0.0000000E+00  0.0000000E+00  1.0000000E+00
 21 -1  0  0 502 501  0.0000000E+00  0.0000000E+00 -2.5490721E+02  2.5490721E+02  0.0000000E+00  0.0000000E+00  1.0000000E+00
 39  2  1  2   0   0  5.6843419E-13 -1.3642421E-12  7.2831293E+02  1.2381273E+03  1.0012590E+03  0.0000000E+00  1.0000000E+00
 23  2  3  3   0   0 -1.4263678E+02  3.4517723E+02  7.6044597E+02  8.5208958E+02  9.1027481E+01  0.0000000E+00  1.0000000E+00
 23  2  3  3   0   0  1.4263678E+02 -3.4517723E+02 -3.2133047E+01  3.8603776E+02  9.2195705E+01  0.0000000E+00  1.0000000E+00
-11  1  4  4   0   0 -1.0864033E+02  1.4456869E+02  3.4759152E+02  3.9181972E+02  1.0789593E-05  0.0000000E+00  1.0000000E+00
 11  1  4  4   0   0 -3.3996451E+01  2.0060854E+02  4.1285445E+02  4.6026986E+02  1.3754087E-05  0.0000000E+00  1.0000000E+00
-13  1  5  5   0   0  9.3006650E+01 -1.3314222E+02 -4.2982520E+01  1.6800174E+02  2.8808227E-06  0.0000000E+00  1.0000000E+00
 13  1  5  5   0   0  4.9630134E+01 -2.1203501E+02  1.0849473E+01  2.1803602E+02  1.0662403E-06  0.0000000E+00  1.0000000E+00
</event>
<event>
9 100 1.0000000E+00 1.0000000E+03 7.8125000E-03 0.0000000E+00
 21 -1  0  0 501 502  0.0000000E+00  0.0000000E+00  2.7979758E+02  2.7979758E+02  0.0000000E+00  0.0000000E+00  1.0000000E+00
 21 -1  0  0 502 501  0.0000000E+00  0.0000000E+00 -9.2544490E+02  9.2544490E+02  0.0000000E+00  0.0000000E+00  1.0000000E+00
 39  2  1  2   0   0  7.1054274E-14  4.5474735E-13 -6.4564732E+02  1.2052425E+03  1.0177175E+03  0.0000000E+00  1.0000000E+00
 23  2  3  3   0   0  8.5750001E+01  4.5812884E+02 -1.0840900E+02  4.8715625E+02  9.1288582E+01  0.0000000E+00  1.0000000E+00
 23  2  3  3   0   0 -8.5750001E+01 -4.5812884E+02 -5.3723832E+02  7.1808623E+02  9.8932968E+01  0.0000000E+00  1.0000000E+00
-11  1  4  4   0   0  1.0307969E+02  4.2655688E+02 -1.0268567E+02  4.5068896E+02  1.4130198E-06  0.0000000E+00  1.0000000E+00
 11  1  4  4   0   0 -1.7329687E+01  3.1571962E+01 -5.7233334E+00  3.6467292E+01  1.0271387E-05  0.0000000E+00  1.0000000E+00
-13  1  5  5   0   0 -2.2503795E+01 -5.2207406E+01 -2.6771077E+01  6.2838879E+01  2.0893957E-05  0.0000000E+00  1.0000000E+00
 13  1  5  5   0   0 -6.3246205E+01 -4.0592143E+02 -5.1046724E+02  6.5524735E+02  2.9394217E-06  0.0000000E+00  1.0000000E+00
</event>
<event>
9 100 1.0000000E+00 1.0000000E+03 7.8125000E-03 0.0000000E+00
 21 -1  0  0 501 502  0.0000000E+00  0.0000000E+00  3.3029881E+02  3.3029881E+02  0.0000000E+00  0.0000000E+00  1.0000000E+00
 21 -1  0  0 502 501  0.0000000E+00  0.0000000E+00 -7.6091246E+02  7.6091246E+02  0.0000000E+00  0.0000000E+00  1.0000000E+00
 39  2  1  2   0   0 -1.0516032E-12  2.1032065E-12 -4.3061365E+02  1.0912113E+03  1.0026534E+03  0.0000000E+00  1.0000000E+00
 23  2  3  3   0   0 -1.8868788E+02  3.8797490E+02  4.3844762E+01  4.4315810E+02  9.1318661E+01  0.0000000E+00  1.0000000E+00
 23  2  3  3   0   0  1.8868788E+02 -3.8797490E+02 -4.7445841E+02  6.4805318E+02  9.3458559E+01  0.0000000E+00  1.0000000E+00
-11  1  4  4   0   0 -1.0420741E+01  2.9154148E+01  2.8686732E+01  4.2207639E+01  1.2841447E-05  0.0000000E+00  1.0000000E+00
 11  1  4  4   0   0 -1.7826714E+02  3.5882075E+02  1.5158030E+01  4.0095046E+02  1.9660500E-06  0.0000000E+00  1.0000000E+00
-13  1  5  5   0   0  1.9277872E+02 -3.9124858E+02 -4.6799959E+02  6.3973643E+02  6.3079627E-07  0.0000000E+00  1.0000000E+00
 13  1  5  5   0   0 -4.0908394E+00  3.2736800E+00 -6.4588165E+00  8.3167456E+00  1.4273290E-05  0.0000000E+00  1.0000000E+00
</event>
<event>
9 100 1.0000000E+00 1.0000000E+03 7.8125000E-03 0.0000000E+00
 21 -1  0  0 501 502  0.0000000E+00  0.0000000E+00  2.2927674E+02  2.2927674E+02  0.0000000E+00  0.0000000E+00  1.0000000E+00
 21 -1  0  0 502 501  0.0000000E+00  0.0000000E+00 -1.0940145E+03  1.0940145E+03  0.0000000E+00  0.0000000E+00  1.0000000E+00
 39  2  1  2   0   0 -5.4001248E-12  2.3590019E-12 -8.6473774E+02  1.3232912E+03  1.0016628E+03  0.0000000E+00  1.0000000E+00
 23  2  3  3   0   0  3.3274945E+02 -1.4630690E+02  6.2582559E+00  3.7501670E+02  9.2035088E+01  0.0000000E+00  1.0000000E+00
 23  2  3  3   0   0 -3.3274945E+02  1.4630690E+02 -8.7099600E+02  9.4827452E+02  9.1992564E+01  0.0000000E+00  1.0000000E+00
-11  1  4  4   0   0  1.2585574E+02 -8.7230996E+00  9.6882046E+00  1.2652913E+02  1.0030330E-05  0.0000000E+00  1.0000000E+00
 11  1  4  4   0   0  2.0689371E+02 -1.3758380E+02 -3.4299488E+00  2.4848757E+02  4.3425573E-06  0.0000000E+00  1.0000000E+00
-13  1  5  5   0   0 -2.8478660E+02  1.1350655E+02 -7.9873505E+02  8.5554942E+02  4.8628039E-06  0.0000000E+00  1.0000000E+00
 13  1  5  5   0   0 -4.7962853E+01  3.2800353E+01 -7.2260952E+01  9.2725097E+01  3.5785032E-05  0.0000000E+00  1.0000000E+00
</event>
<event>
9 100 1.0000000E+00 1.0000000E+03 7.8125000E-03 0.0000000E+00
 21 -1  0  0 501 502  0.0000000E+00  0.0000000E+00  3.9386443E+02  3.9386443E+02  0.0000000E+00  0.0000000E+00  1.0000000E+00
 21 -1  0  0 502 501  0.0000000E+00  0.0000000E+00 -8.2823010E+02  8.2823010E+02  0.0000000E+00  0.0000000E+00  1.0000000E+00
 39  2  1  2   0   0 -8.5265128E-13  1.1368684E-12 -4.3436567E+02  1.2220945E+03  1.1422966E+03  0.0000000E+00  1.0000000E+00
 23  2  3  3   0   0 -2.9218199E+02  3.8223839E+02  9.8837754E+01  4.9947711E+02  9.0730222E+01  0.0000000E+00  1.0000000E+00
 23  2  3  3   0   0  2.9218199E+02 -3.8223839E+02 -5.3320343E+02  7.2261742E+02  7.9959572E+01  0.0000000E+00  1.0000000E+00
-11  1  4  4   0   0 -2.0452895E+02  2.1746289E+02  2.7985463E+01  2.9984227E+02  4.2649612E-06  0.0000000E+00  1.0000000E+00
 11  1  4  4   0   0 -8.7653047E+01  1.6477550E+02  7.0852291E+01  1.9963484E+02  5.8885045E-06  0.0000000E+00  1.0000000E+00
-13  1  5  5   0   0  9.3110577E+01 -1.5679563E+02 -2.5054842E+02  3.0988540E+02  3.8146973E-06  0.0000000E+00  1.0000000E+00
 13  1  5  5   0   0  1.9907142E+02 -2.2544276E+02 -2.8265501E+02  4.1273202E+02  2.6973983E-06  0.0000000E+00  1.0000000E+00
</event>
<event>
9 100 1.0000000E+00 1.0000000E+03 7.8125000E-03 0.0000000E+00
 21 -1  0  0 501 502  0.0000000E+00  0.0000000E+00  9.3497662E+02  9.3497662E+02  0.0000000E+00  0.0000000E+00  1.0000000E+00
 21 -1  0  0 502 501  0.0000000E+00  0.0000000E+00 -2.7108706E+02  2.7108706E+02  0.0000000E+00  0.0000000E+00  1.0000000E+00
 39  2  1  2   0   0  8.5265128E-13 -1.9895197E-12  6.6388956E+02  1.2060637E+03  1.0068963E+03  0.0000000E+00  1.0000000E+00
 23  2  3  3   0   0  1.2879345E+02 -2.9869827E+02  7.7896579E+02  8.4909491E+02  9.1466103E+01  0.0000000E+00  1.0000000E+00
 23  2  3  3   0   0 -1.2879345E+02  2.9869827E+02 -1.1507623E+02  3.5696877E+02  9.1519154E+01  0.0000000E+00  1.0000000E+00
-11  1  4  4   0   0  5.2919448E+01 -5.0750371E+01  1.1605716E+02  1.3727831E+02  2.5303839E-05  0.0000000E+00  1.0000000E+00
 11  1  4  4   0   0  7.5874001E+01 -2.4794790E+02  6.6290863E+02  7.1181660E+02  4.8628039E-06  0.0000000E+00  1.0000000E+00
-13  1  5  5   0   0 -1.0986957E+02  2.3633232E+02 -5.0988366E+01  2.6556374E+02  5.7220459E-06  0.0000000E+00  1.0000000E+00
 13  1  5  5   0   0 -1.8923883E+01  6.2365952E+01 -6.4087866E+01  9.1405032E+01  1.0024927E-05  0.0000000E+00  1.0000000E+00
</event>
<event>
9 100 1.0000000E+00 1.0000000E+03 7.8125000E-03 0.0000000E+00
 21 -1  0  0 501 502  0.0000000E+00  0.0000000E+00  1.3689453E+02  1.3689453E+02  0.0000000E+00  0.0000000E+00  1.0000000E+00
 21 -1  0  0 502 501  0.0000000E+00  0.0000000E+00 -1.8246754E+03  1.8246754E+03  0.0000000E+00  0.0000000E+00  1.0000000E+00
 39  2  1  2   0   0 -3.9790393E-13 -9.6633812E-13 -1.6877808E+03  1.9615699E+03  9.9957605E+02  0.0000000E+00  1.0000000E+00
 23  2  3  3   0   0 -1.4993966E+02 -4.0058685E+02 -1.3175562E+03  1.3883154E+03  9.2269558E+01  0.0000000E+00  1.0000000E+00
 23  2  3  3   0   0  1.4993966E+02  4.0058685E+02 -3.7022464E+02  5.7325446E+02  9.2750537E+01  0.0000000E+00  1.0000000E+00
-11  1  4  4   0   0 -9.6227557E+01 -2.4677441E+02 -9.5072569E+02  9.8693297E+02  1.0789593E-05  0.0000000E+00  1.0000000E+00
 11  1  4  4   0   0 -5.3712104E+01 -1.5381244E+02 -3.6683052E+02  4.0138247E+02  2.6428998E-05  0.0000000E+00  1.0000000E+00
-13  1  5  5   0   0 -1.4667748E+00 -4.3098691E+00 -7.9518600E-01  4.6215496E+00  9.3440618E-06  0.0000000E+00  1.0000000E+00
 13  1  5  5   0   0  1.5140644E+02  4.0489672E+02 -3.6942945E+02  5.6863291E+02  1.3780553E-06  0.0000000E+00  1.0000000E+00
</event>
<event>
9 100 1.0000000E+00 1.0000000E+03 7.8125000E-03 0.0000000E+00
 21 -1  0  0 501 502  0.0000000E+00  0.0000000E+00  8.7957233E+02  8.7957233E+02  0.0000000E+00  0.0000000E+00  1.0000000E+00
 21 -1  0  0 502 501  0.0000000E+00  0.0000000E+00 -2.8532705E+02  2.8532705E+02  0.0000000E+00  0.0000000E+00  1.0000000E+00
 39  2  1  2   0   0  9.9475983E-13 -1.3926638E-12  5.9424528E+02  1.1648994E+03  1.0019297E+03  0.0000000E+00  1.0000000E+00
 23  2  3  3   0   0  9.4218076E+01 -1.3317839E+02  8.3716530E+02  8.5788647E+02  9.2249272E+01  0.0000000E+00  1.0000000E+00
 23  2  3  3   0   0 -9.4218076E+01  1.3317839E+02 -2.4292002E+02  3.0701291E+02  9.2915355E+01  0.0000000E+00  1.0000000E+00
-11  1  4  4   0   0  9.8954128E+01 -1.4265002E+02  8.1545380E+02  8.3373008E+02  3.1809006E-06  0.0000000E+00  1.0000000E+00
 11  1  4  4   0   0 -4.7360512E+00  9.4716302E+00  2.1711501E+01  2.4156391E+01  1.8688124E-05  0.0000000E+00  1.0000000E+00
-13  1  5  5   0   0 -4.3538346E+01  4.9018536E+01 -2.9152160E+01  7.1751326E+01  6.0315660E-06  0.0000000E+00  1.0000000E+00
 13  1  5  5   0   0 -5.0679731E+01  8.4159856E+01 -2.1376786E+02  2.3526159E+02  2.3841858E-06  0.0000000E+00  1.0000000E+00
</event>
<event>
9 100 1.0000000E+00 1.0000000E+03 7.8125000E-03 0.0000000E+00
 21 -1  0  0 501 502  0.0000000E+00  0.0000000E+00  2.3921179E+02  2.3921179E+02  0.0000000E+00  0.0000000E+00  1.0000000E+00
 21 -1  0  0 502 501  0.0000000E+00  0.0000000E+00 -1.0454363E+03  1.0454363E+03  0.0000000E+00  0.0000000E+00  1.0000000E+00
 39  2  1  2   0   0  2.8421709E-13 -2.8421709E-13 -8.0622451E+02  1.2846481E+03  1.0001614E+03  0.0000000E+00  1.0000000E+00
 23  2  3  3   0   0 -3.7109056E+02  2.5480901E+02 -1.4880092E+02  4.8269869E+02  9.0666875E+01  0.0000000E+00  1.0000000E+00
 23  2  3  3   0   0  3.7109056E+02 -2.5480901E+02 -6.5742360E+02  8.0194940E+02  9.1001267E+01  0.0000000E+00  1.0000000E+00
-11  1  4  4   0   0 -3.6109944E+01  6.1700396E+01 -1.1619592E+01  7.2428460E+01  1.5728400E-05  0.0000000E+00  1.0000000E+00
 11  1  4  4   0   0 -3.3498061E+02  1.9310861E+02 -1.3718133E+02  4.1027023E+02  3.9537248E-06  0.0000000E+00  1.0000000E+00
-13  1  5  5   0   0  1.1079331E+02 -3.4609761E+01 -2.0303955E+02  2.3387614E+02  1.7892516E-05  0.0000000E+00  1.0000000E+00
 13  1  5  5   0   0  2.6029724E+02 -2.2019925E+02 -4.5438405E+02  5.6807326E+02  5.3947966E-06  0.0000000E+00  1.0000000E+00
</event>
<event>
9 100 1.0000000E+00 1.0000000E+03 7.8125000E-03 0.0000000E+00
 21 -1  0  0 501 502  0.0000000E+00  0.0000000E+00  6.3460346E+02  6.3460346E+02  0.0000000E+00  0.0000000E+00  1.0000000E+00
 21 -1  0  0 502 501  0.0000000E+00  0.0000000E+00 -4.0144689E+02  4.0144689E+02  0.0000000E+00  0.0000000E+00  1.0000000E+00
 39  2  1  2   0   0  3.4106051E-13  4.5474735E-13  2.3315658E+02  1.0360504E+03  1.0094743E+03  0.0000000E+00  1.0000000E+00
 23  2  3  3   0   0  2.7812348E+02  4.0587040E+02  1.8354544E+02  5.3312264E+02  9.1909532E+01  0.0000000E+00  1.0000000E+00
 23  2  3  3   0   0 -2.7812348E+02 -4.0587040E+02  4.9611131E+01  5.0292771E+02  9.1605498E+01  0.0000000E+00  1.0000000E+00
-11  1  4  4   0   0  2.1556256E+02  3.0238871E+02  9.5200772E+01  3.8336580E+02  6.7434958E-06  0.0000000E+00  1.0000000E+00
 11  1  4  4   0   0  6.2560928E+01  1.0348169E+02  8.8344672E+01  1.4975684E+02  1.6407633E-05  0.0000000E+00  1.0000000E+00
-13  1  5  5   0   0 -1.7673176E+00 -9.1034345E+00  1.5675328E+01  1.8212958E+01  1.5742849E-05  0.0000000E+00  1.0000000E+00
 13  1  5  5   0   0 -2.7635617E+02 -3.9676696E+02  3.3935803E+01  4.8471476E+02  1.6170335E-06  0.0000000E+00  1.0000000E+00
</event>
<event>
9 100 1.0000000E+00 1.0000000E+03 7.8125000E-03 0.0000000E+00
 21 -1  0  0 501 502  0.0000000E+00  0.0000000E+00  1.6860491E+02  1.6860491E+02  0.0000000E+00  0.0000000E+00  1.0000000E+00
 21 -1  0  0 502 501  0.0000000E+00  0.0000000E+00 -1.4864919E+03  1.4864919E+03  0.0000000E+00  0.0000000E+00  1.0000000E+00
 39  2  1  2   0   0  4.8316906E-13 -6.2527761E-13 -1.3178870E+03  1.6550968E+03  1.0012589E+03  0.0000000E+00  1.0000000E+00
 23  2  3  3   0   0 -1.0750899E+02  1.3831524E+02 -1.4233381E+03  1.4344277E+03  3.1657257E+01  0.0000000E+00  1.0000000E+00
 23  2  3  3   0   0  1.0750899E+02 -1.3831524E+02  1.0545107E+02  2.2066916E+02  8.2979886E+01  0.0000000E+00  1.0000000E+00
-11  1  4  4   0   0 -1.1891584E+01  3.5126798E+01 -3.2946682E+02  3.3154742E+02  3.4119690E-05  0.0000000E+00  1.0000000E+00
 11  1  4  4   0   0 -9.5617402E+01  1.0318845E+02 -1.0938713E+03  1.1028803E+03  1.0092740E-05  0.0000000E+00  1.0000000E+00
-13  1  5  5   0   0 -5.1397071E+00 -5.5626407E+00 -9.4166957E+00  1.2084441E+01  1.1523291E-05  0.0000000E+00  1.0000000E+00
 13  1  5  5   0   0  1.1264869E+02 -1.3275260E+02  1.1486776E+02  2.0858472E+02  1.9147847E-06  0.0000000E+00  1.0000000E+00
</event>
<event>
9 100 1.0000000E+00 1.0000000E+03 7.8125000E-03 0.0000000E+00
 21 -1  0  0 501 502  0.0000000E+00  0.0000000E+00  4.6657336E+02  4.6657336E+02  0.0000000E+00  0.0000000E+00  1.0000000E+00
 21 -1  0  0 502 501  0.0000000E+00  0.0000000E+00 -5.4154784E+02  5.4154784E+02  0.0000000E+00  0.0000000E+00  1.0000000E+00
 39  2  1  2   0   0 -5.9685590E-13  1.8758328E-12 -7.4974479E+01  1.0081212E+03  1.0053294E+03  0.0000000E+00  1.0000000E+00
 23  2  3  3   0   0  1.3250824E+02 -4.3962018E+02 -2.2110024E+02  5.1771622E+02  9.1216423E+01  0.0000000E+00  1.0000000E+00
 23  2  3  3   0   0 -1.3250824E+02  4.3962018E+02  1.4612576E+02  4.9040497E+02  9.1213839E+01  0.0000000E+00  1.0000000E+00
-11  1  4  4   0   0  8.0828358E+01 -3.5851854E+02 -1.4502598E+02  3.9509657E+02  1.6518124E-06  0.0000000E+00  1.0000000E+00
 11  1  4  4   0   0  5.1679882E+01 -8.1101641E+01 -7.6074252E+01  1.2261965E+02  1.0271387E-05  0.0000000E+00  1.0000000E+00
-13  1  5  5   0   0  6.9061745E+00  1.0968274E+02  3.7214702E+01  1.1602988E+02  9.6316385E-06  0.0000000E+00  1.0000000E+00
 13  1  5  5   0   0 -1.3941442E+02  3.2993744E+02  1.0891106E+02  3.7437509E+02  2.4314020E-06  0.0000000E+00  1.0000000E+00
</event>
<event>
9 100 1.0000000E+00 1.0000000E+03 7.8125000E-03 0.0000000E+00
 21 -1  0  0 501 502  0.0000000E+00  0.0000000E+00  8.5227661E+02  8.5227661E+02  0.0000000E+00  0.0000000E+00  1.0000000E+00
 21 -1  0  0 502 501  0.0000000E+00  0.0000000E+00 -3.0648680E+02  3.0648680E+02  0.0000000E+00  0.0000000E+00  1.0000000E+00
 39  2  1  2   0   0 -1.1368684E-13  8.5265128E-14  5.4578981E+02  1.1587634E+03  1.0221771E+03  0.0000000E+00  1.0000000E+00
 23  2  3  3   0   0  3.4551226E+02 -1.7086006E+02 -9.3778211E+01  4.0641703E+02  8.8366104E+01  0.0000000E+00  1.0000000E+00
 23  2  3  3   0   0 -3.4551226E+02  1.7086006E+02  6.3956802E+02  7.5234637E+02  9.1683846E+01  0.0000000E+00  1.0000000E+00
-11  1  4  4   0   0  2.6388533E+02 -1.3710492E+02 -3.3014637E+01  2.9920426E+02  3.7546195E-06  0.0000000E+00  1.0000000E+00
 11  1  4  4   0   0  8.1626933E+01 -3.3755140E+01 -6.0763574E+01  1.0721277E+02  7.3871295E-06  0.0000000E+00  1.0000000E+00
-13  1  5  5   0   0 -1.7360967E+02  4.8218992E+01  3.5361757E+02  3.9687627E+02  5.3947966E-06  0.0000000E+00  1.0000000E+00
 13  1  5  5   0   0 -1.7190259E+02  1.2264106E+02  2.8595045E+02  3.5547010E+02  1.4273290E-05  0.0000000E+00  1.0000000E+00
</event>
<event>
9 100 1.0000000E+00 1.0000000E+03 7.8125000E-03 0.0000000E+00
 21 -1  0  0 501 502  0.0000000E+00  0.0000000E+00  8.7764110E+02  8.7764110E+02  0.0000000E+00  0.0000000E+00  1.0000000E+00
 21 -1  0  0 502 501  0.0000000E+00  0.0000000E+00 -2.8877958E+02  2.8877958E+02  0.0000000E+00  0.0000000E+00  1.0000000E+00
 39  2  1  2   0   0  1.1652901E-12 -3.2400749E-12  5.8886152E+02  1.1664207E+03  1.0068661E+03  0.0000000E+00  1.0000000E+00
 23  2  3  3   0   0 -1.5247412E+02  4.2707167E+02  5.2671430E+02  7.0097308E+02  9.1086424E+01  0.0000000E+00  1.0000000E+00
 23  2  3  3   0   0  1.5247412E+02 -4.2707167E+02  6.2147225E+01  4.6544759E+02  8.4502153E+01  0.0000000E+00  1.0000000E+00
-11  1  4  4   0   0 -1.4763233E+02  4.2972744E+02  5.0846883E+02  6.8191021E+02  5.8400386E-07  0.0000000E+00  1.0000000E+00
 11  1  4  4   0   0 -4.8417906E+00 -2.6557692E+00  1.8245468E+01  1.9062873E+01  5.3947966E-06  0.0000000E+00  1.0000000E+00
-13  1  5  5   0   0  1.3364000E+02 -4.1978964E+02  5.4727845E+01  4.4393482E+02  1.2587733E-06  0.0000000E+00  1.0000000E+00
 13  1  5  5   0   0  1.8834120E+01 -7.2820344E+00  7.4193798E+00  2.1512770E+01  1.6435326E-05  0.0000000E+00  1.0000000E+00
</event>
<event>
9 100 1.0000000E+00 1.0000000E+03 7.8125000E-03 0.0000000E+00
 21 -1  0  0 501 502  0.0000000E+00  0.0000000E+00  9.5227858E+02  9.5227858E+02  0.0000000E+00  0.0000000E+00  1.0000000E+00
 21 -1  0  0 502 501  0.0000000E+00  0.0000000E+00 -2.6129120E+02  2.6129120E+02  0.0000000E+00  0.0000000E+00  1.0000000E+00
 39  2  1  2   0   0 -3.4106051E-13  3.4106051E-13  6.9098738E+02  1.2135698E+03  9.9764124E+02  0.0000000E+00  1.0000000E+00
 23  2  3  3   0   0  3.7554818E+02 -2.5905130E+02  5.5019662E+02  7.2747596E+02  1.3550258E+02  0.0000000E+00  1.0000000E+00
 23  2  3  3   0   0 -3.7554818E+02  2.5905130E+02  1.4079077E+02  4.8609382E+02  9.1220321E+01  0.0000000E+00  1.0000000E+00
-11  1  4  4   0   0  2.9260748E+02 -2.0243176E+02  5.0399271E+02  6.1693307E+02  4.2649612E-06  0.0000000E+00  1.0000000E+00
 11  1  4  4   0   0  8.2940692E+01 -5.6619538E+01  4.6203906E+01  1.1054289E+02  1.0789593E-05  0.0000000E+00  1.0000000E+00
-13  1  5  5   0   0 -1.8416472E+02  1.4903634E+02  2.9097267E+01  2.3869463E+02  2.3360155E-06  0.0000000E+00  1.0000000E+00
 13  1  5  5   0   0 -1.9138345E+02  1.1001496E+02  1.1169350E+02  2.4739918E+02  8.0358026E-06  0.0000000E+00  1.0000000E+00
</event>
<event>
9 100 1.0000000E+00 1.0000000E+03 7.8125000E-03 0.0000000E+00
 21 -1  0  0 501 502  0.0000000E+00  0.0000000E+00  6.4842194E+02  6.4842194E+02  0.0000000E+00  0.0000000E+00  1.0000000E+00
 21 -1  0  0 502 501  0.0000000E+00  0.0000000E+00 -3.8627123E+02  3.8627123E+02  0.0000000E+00  0.0000000E+00  1.0000000E+00
 39  2  1  2   0   0 -1.2221335E-12  1.3500312E-13  2.6215071E+02  1.0346932E+03  1.0009330E+03  0.0000000E+00  1.0000000E+00
 23  2  3  3   0   0  2.3068121E+02 -2.3481468E+01 -3.1758667E+02  4.0363062E+02  9.1055973E+01  0.0000000E+00  1.0000000E+00
 23  2  3  3   0   0 -2.3068121E+02  2.3481468E+01  5.7973738E+02  6.3106255E+02  9.1538583E+01  0.0000000E+00  1.0000000E+00
-11  1  4  4   0   0  1.5755285E+02 -5.2975434E+01 -2.4747588E+02  2.9811677E+02  4.4731290E-06  0.0000000E+00  1.0000000E+00
 11  1  4  4   0   0  7.3128361E+01  2.9493966E+01 -7.0110787E+01  1.0551386E+02  4.6720309E-06  0.0000000E+00  1.0000000E+00
-13  1  5  5   0   0 -9.0509006E+00 -1.6146760E+01  9.2333196E+01  9.4170355E+01  1.0789593E-05  0.0000000E+00  1.0000000E+00
 13  1  5  5   0   0 -2.2163031E+02  3.9628229E+01  4.8740418E+02  5.3689219E+02  1.3486992E-06  0.0000000E+00  1.0000000E+00
</event>
<event>
9 100 1.0000000E+00 1.0000000E+03 7.8125000E-03 0.0000000E+00
 21 -1  0  0 501 502  0.0000000E+00  0.0000000E+00  4.2944776E+02  4.2944776E+02  0.0000000E+00  0.0000000E+00  1.0000000E+00
 21 -1  0  0 502 501  0.0000000E+00  0.0000000E+00 -5.6895243E+02  5.6895243E+02  0.0000000E+00  0.0000000E+00  1.0000000E+00
 39  2  1  2   0   0  3.9790393E-13  1.9895197E-13 -1.3950467E+02  9.9840019E+02  9.8860578E+02  0.0000000E+00  1.0000000E+00
 23  2  3  3   0   0 -3.8630456E+02 -1.7593938E+02  1.6780993E+02  4.6563201E+02  9.2016940E+01  0.0000000E+00  1.0000000E+00
 23  2  3  3   0   0  3.8630456E+02  1.7593938E+02 -3.0731460E+02  5.3276818E+02  9.5988533E+01  0.0000000E+00  1.0000000E+00
-11  1  4  4   0   0 -5.7940615E+01 -4.9227856E+00  5.1187000E+01  7.7469075E+01  9.4408941E-06  0.0000000E+00  1.0000000E+00
 11  1  4  4   0   0 -3.2836394E+02 -1.7101659E+02  1.1662293E+02  3.8816293E+02  3.4385216E-06  0.0000000E+00  1.0000000E+00
-13  1  5  5   0   0  8.9182167E+01  7.9462598E+01 -1.1567203E+02  1.6627622E+02  1.4016093E-05  0.0000000E+00  1.0000000E+00
 13  1  5  5   0   0  2.9712239E+02  9.6476779E+01 -1.9164258E+02  3.6649196E+02  5.3947966E-06  0.0000000E+00  1.0000000E+00
</event>
<event>
9 100 1.0000000E+00 1.0000000E+03 7.8125000E-03 0.0000000E+00
 21 -1  0  0 501 502  0.0000000E+00  0.0000000E+00  6.1696185E+02  6.1696185E+02  0.0000000E+00  0.0000000E+00  1.0000000E+00
 21 -1  0  0 502 501  0.0000000E+00  0.0000000E+00 -4.0412342E+02  4.0412342E+02  0.0000000E+00  0.0000000E+00  1.0000000E+00
 39  2  1  2   0   0 -2.2737368E-13  2.8421709E-14  2.1283843E+02  1.0210853E+03  9.9865657E+02  0.0000000E+00  1.0000000E+00
 23  2  3  3   0   0 -2.2116130E+02  3.7890477E+01  5.5312960E+02  6.0335030E+02  8.7927407E+01  0.0000000E+00  1.0000000E+00
 23  2  3  3   0   0  2.2116130E+02 -3.7890477E+01 -3.4029117E+02  4.1773497E+02  9.1413457E+01  0.0000000E+00  1.0000000E+00
-11  1  4  4   0   0 -9.2786767E+01  5.9705847E+01  2.7205197E+02  2.9357528E+02  7.6293945E-06  0.0000000E+00  1.0000000E+00
 11  1  4  4   0   0 -1.2837453E+02 -2.1815370E+01  2.8107763E+02  3.0977502E+02  5.3947966E-06  0.0000000E+00  1.0000000E+00
-13  1  5  5   0   0  1.4012900E+01 -1.8200108E+01 -5.6153992E+00  2.3646100E+01  1.0789593E-05  0.0000000E+00  1.0000000E+00
 13  1  5  5   0   0  2.0714840E+02 -1.9690368E+01 -3.3467577E+02  3.9408887E+02  1.7520116E-06  0.0000000E+00  1.0000000E+00
</event>
<event>
9 100 1.0000000E+00 1.0000000E+03 7.8125000E-03 0.0000000E+00
 21 -1  0  0 501 502  0.0000000E+00  0.0000000E+00  3.5171442E+02  3.5171442E+02  0.0000000E+00  0.0000000E+00  1.0000000E+00
 21 -1  0  0 502 501  0.0000000E+00  0.0000000E+00 -7.1268256E+02  7.1268256E+02  0.0000000E+00  0.0000000E+00  1.0000000E+00
 39  2  1  2   0   0  2.8421709E-13  3.4106051E-13 -3.6096813E+02  1.0643970E+03  1.0013206E+03  0.0000000E+00  1.0000000E+00
 23  2  3  3   0   0 -2.8010330E+02 -4.0403971E+02 -1.9530598E+02  5.3686558E+02  9.1511058E+01  0.0000000E+00  1.0000000E+00
 23  2  3  3   0   0  2.8010330E+02  4.0403971E+02 -1.6566215E+02  5.2753140E+02  9.5600657E+01  0.0000000E+00  1.0000000E+00
-11  1  4  4   0   0 -8.7106530E+01 -8.7842579E+01 -8.5886954E+01  1.5060025E+02  5.3947966E-06  0.0000000E+00  1.0000000E+00
 11  1  4  4   0   0 -1.9299677E+02 -3.1619713E+02 -1.0941903E+02  3.8626533E+02  2.8610229E-06  0.0000000E+00  1.0000000E+00
-13  1  5  5   0   0  1.3415565E+02  2.7011314E+02 -1.1752039E+02  3.2368177E+02  6.9428538E-06  0.0000000E+00  1.0000000E+00
 13  1  5  5   0   0  1.4594765E+02  1.3392657E+02 -4.8141758E+01  2.0384963E+02  1.1444092E-05  0.0000000E+00  1.0000000E+00
</event>
<event>
9 100 1.0000000E+00 1.0000000E+03 7.8125000E-03 0.0000000E+00
 21 -1  0  0 501 502  0.0000000E+00  0.0000000E+00  8.0348066E+02  8.0348066E+02  0.0000000E+00  0.0000000E+00  1.0000000E+00
 21 -1  0  0 502 501  0.0000000E+00  0.0000000E+00 -3.0665904E+02  3.0665904E+02  0.0000000E+00  0.0000000E+00  1.0000000E+00
 39  2  1  2   0   0 -6.8212103E-13  1.1368684E-13  4.9682162E+02  1.1101397E+03  9.9276302E+02  0.0000000E+00  1.0000000E+00
 23  2  3  3   0   0  3.7587337E+02 -6.2172461E+01 -9.2327244E+01  4.0253683E+02  9.1462420E+01  0.0000000E+00  1.0000000E+00
 23  2  3  3   0   0 -3.7587337E+02  6.2172461E+01  5.8914886E+02  7.0760286E+02  9.1974039E+01  0.0000000E+00  1.0000000E+00
-11  1  4  4   0   0  1.2011837E+02 -3.1216646E+01  1.1798662E+01  1.2466800E+02  6.8770433E-06  0.0000000E+00  1.0000000E+00
 11  1  4  4   0   0  2.5575500E+02 -3.0955815E+01 -1.0412591E+02  2.7786883E+02  8.2590618E-07  0.0000000E+00  1.0000000E+00
-13  1  5  5   0   0 -6.3036385E+01  1.4814573E+00  4.6658389E+01  7.8439695E+01  1.0789593E-05  0.0000000E+00  1.0000000E+00
 13  1  5  5   0   0 -3.1283699E+02  6.0691003E+01  5.4249047E+02  6.2916317E+02  3.4385216E-06  0.0000000E+00  1.0000000E+00
</event>
<event>
9 100 1.0000000E+00 1.0000000E+03 7.8125000E-03 0.0000000E+00
 21 -1  0  0 501 502  0.0000000E+00  0.0000000E+00  1.9578366E+03  1.9578366E+03  0.0000000E+00  0.0000000E+00  1.0000000E+00
 21 -1  0  0 502 501  0.0000000E+00  0.0000000E+00 -1.2741442E+02  1.2741442E+02  0.0000000E+00  0.0000000E+00  1.0000000E+00
 39  2  1  2   0   0 -4.1211479E-13  1.3642421E-12  1.8304221E+03  2.0852510E+03  9.9891262E+02  0.0000000E+00  1.0000000E+00
 23  2  3  3   0   0  1.1714077E+02 -3.5018221E+02  2.3926762E+02  4.4933638E+02  9.1129822E+01  0.0000000E+00  1.0000000E+00
 23  2  3  3   0   0 -1.1714077E+02  3.5018221E+02  1.5911545E+03  1.6359146E+03  8.9968457E+01  0.0000000E+00  1.0000000E+00
-11  1  4  4   0   0  1.1784809E+01 -1.4466858E+02  1.2554319E+02  1.9190876E+02  1.8833559E-05  0.0000000E+00  1.0000000E+00
 11  1  4  4   0   0  1.0535597E+02 -2.0551364E+02  1.1372443E+02  2.5742762E+02  1.4400166E-05  0.0000000E+00  1.0000000E+00
-13  1  5  5   0   0 -3.4520528E+01  3.2201586E+01  1.3074985E+02  1.3901127E+02  6.1035156E-05  0.0000000E+00  1.0000000E+00
 13  1  5  5   0   0 -8.2620246E+01  3.1798063E+02  1.4604047E+03  1.4969033E+03  8.0921949E-06  0.0000000E+00  1.0000000E+00
</event>
<event>
9 100 1.0000000E+00 1.0000000E+03 7.8125000E-03 0.0000000E+00
 21 -1  0  0 501 502  0.0000000E+00  0.0000000E+00  2.1640724E+02  2.1640724E+02  0.0000000E+00  0.0000000E+00  1.0000000E+00
 21 -1  0  0 502 501  0.0000000E+00  0.0000000E+00 -1.1373240E+03  1.1373240E+03  0.0000000E+00  0.0000000E+00  1.0000000E+00
 39  2  1  2   0   0 -2.4442670E-12  1.3926638E-12 -9.2091679E+02  1.3537313E+03  9.9222004E+02  0.0000000E+00  1.0000000E+00
 23  2  3  3   0   0 -4.2475742E+02  2.3874945E+02 -4.3251408E+02  6.5785635E+02  9.1029562E+01  0.0000000E+00  1.0000000E+00
 23  2  3  3   0   0  4.2475742E+02 -2.3874945E+02 -4.8840271E+02  6.9587492E+02  9.1019355E+01  0.0000000E+00  1.0000000E+00
-11  1  4  4   0   0 -3.3614128E+01  1.1242636E+01 -5.8419069E+00  3.5922616E+01  1.4273290E-05  0.0000000E+00  1.0000000E+00
 11  1  4  4   0   0 -3.9114329E+02  2.2750682E+02 -4.2667217E+02  6.2193373E+02  2.8096494E-06  0.0000000E+00  1.0000000E+00
-13  1  5  5   0   0  7.4284182E+01 -3.8765092E+01 -1.3803180E+02  1.6147337E+02  2.1239335E-05  0.0000000E+00  1.0000000E+00
 13  1  5  5   0   0  3.5047324E+02 -1.9998436E+02 -3.5037091E+02  5.3440155E+02  6.6072495E-06  0.0000000E+00  1.0000000E+00
</event>
<event>
9 100 1.0000000E+00 1.0000000E+03 7.8125000E-03 0.0000000E+00
 21 -1  0  0 501 502  0.0000000E+00  0.0000000E+00  1.9182824E+03  1.9182824E+03  0.0000000E+00  0.0000000E+00  1.0000000E+00
 21 -1  0  0 502 501  0.0000000E+00  0.0000000E+00 -1.2965411E+02  1.2965411E+02  0.0000000E+00  0.0000000E+00  1.0000000E+00
 39  2  1  2   0   0 -2.2168933E-12  3.0127012E-12  1.7886283E+03  2.0479365E+03  9.9742309E+02  0.0000000E+00  1.0000000E+00
 23  2  3  3   0   0 -5.9390328E+01  8.0824927E+01  1.8795451E+03  1.8846913E+03  9.6496003E+01  0.0000000E+00  1.0000000E+00
 23  2  3  3   0   0  5.9390328E+01 -8.0824927E+01 -9.0916831E+01  1.6324524E+02  9.1231888E+01  0.0000000E+00  1.0000000E+00
-11  1  4  4   0   0 -8.3735927E+01  7.5403548E+01  1.4164984E+03  1.4209733E+03  1.3214499E-05  0.0000000E+00  1.0000000E+00
 11  1  4  4   0   0  2.4345599E+01  5.4213794E+00  4.6304673E+02  4.6371799E+02  0.0000000E+00  0.0000000E+00  1.0000000E+00
-13  1  5  5   0   0  1.6025046E+01 -8.5769399E+01 -7.9713867E+01  1.1818415E+02  4.2981521E-06  0.0000000E+00  1.0000000E+00
 13  1  5  5   0   0  4.3365282E+01  4.9444714E+00 -1.1202964E+01  4.5061091E+01  6.3974418E-06  0.0000000E+00  1.0000000E+00
</event>
<event>
9 100 1.0000000E+00 1.0000000E+03 7.8125000E-03 0.0000000E+00
 21 -1  0  0 501 502  0.0000000E+00  0.0000000E+00  1.4249654E+02  1.4249654E+02  0.0000000E+00  0.0000000E+00  1.0000000E+00
 21 -1  0  0 502 501  0.0000000E+00  0.0000000E+00 -1.8349367E+03  1.8349367E+03  0.0000000E+00  0.0000000E+00  1.0000000E+00
 39  2  1  2   0   0  1.1084467E-12 -3.5242920E-12 -1.6924402E+03  1.9774333E+03  1.0226869E+03  0.0000000E+00  1.0000000E+00
 23  2  3  3   0   0 -9.0719079E+01  2.8846647E+02 -6.9082856E+01  3.2353608E+02  9.1979893E+01  0.0000000E+00  1.0000000E+00
 23  2  3  3   0   0  9.0719079E+01 -2.8846647E+02 -1.6233573E+03  1.6538972E+03  9.2973335E+01  0.0000000E+00  1.0000000E+00
-11  1  4  4   0   0 -9.1760437E+01  1.9732576E+02 -7.9743468E+01  2.3176811E+02  2.6815467E-06  0.0000000E+00  1.0000000E+00
 11  1  4  4   0   0  1.0413585E+00  9.1140706E+01  1.0660612E+01  9.1767976E+01  7.6887681E-06  0.0000000E+00  1.0000000E+00
-13  1  5  5   0   0  8.1140403E+01 -1.4594921E+02 -7.0558742E+02  7.2507831E+02  3.0517578E-05  0.0000000E+00  1.0000000E+00
 13  1  5  5   0   0  9.5786757E+00 -1.4251726E+02 -9.1776991E+02  9.2881889E+02  1.5258789E-05  0.0000000E+00  1.0000000E+00
</event>
<event>
9 100 1.0000000E+00 1.0000000E+03 7.8125000E-03 0.0000000E+00
 21 -1  0  0 501 502  0.0000000E+00  0.0000000E+00  9.0058561E+01  9.0058561E+01  0.0000000E+00  0.0000000E+00  1.0000000E+00
 21 -1  0  0 502 501  0.0000000E+00  0.0000000E+00 -2.7693313E+03  2.7693313E+03  0.0000000E+00  0.0000000E+00  1.0000000E+00
 39  2  1  2   0   0  1.1972645E-12 -5.7696070E-12 -2.6792727E+03  2.8593898E+03  9.9880326E+02  0.0000000E+00  1.0000000E+00
 23  2  3  3   0   0 -2.7214342E+01  1.3101262E+02 -2.6904775E+03  2.6953497E+03  9.1300013E+01  0.0000000E+00  1.0000000E+00
 23  2  3  3   0   0  2.7214342E+01 -1.3101262E+02  1.1204788E+01  1.6404017E+02  9.4226870E+01  0.0000000E+00  1.0000000E+00
-11  1  4  4   0   0 -2.9398391E+01  1.7947659E+00 -7.4667521E+02  7.4725588E+02  3.7376247E-05  0.0000000E+00  1.0000000E+00
 11  1  4  4   0   0  2.1840490E+00  1.2921786E+02 -1.9438023E+03  1.9480938E+03  2.1579186E-05  0.0000000E+00  1.0000000E+00
-13  1  5  5   0   0  3.4689313E+01 -3.7515077E+01 -3.2506469E+01  6.0559062E+01  6.2536607E-06  0.0000000E+00  1.0000000E+00
 13  1  5  5   0   0 -7.4749716E+00 -9.3497546E+01  4.3711256E+01  1.0348111E+02  4.4220059E-06  0.0000000E+00  1.0000000E+00
</event>
<event>
9 100 1.0000000E+00 1.0000000E+03 7.8125000E-03 0.0000000E+00
 21 -1  0  0 501 502  0.0000000E+00  0.0000000E+00  6.8002673E+02  6.8002673E+02  0.0000000E+00  0.0000000E+00  1.0000000E+00
 21 -1  0  0 502 501  0.0000000E+00  0.0000000E+00 -3.6640139E+02  3.6640139E+02  0.0000000E+00  0.0000000E+00  1.0000000E+00
 39  2  1  2   0   0  1.5987212E-14  6.2527761E-13  3.1362534E+02  1.0464281E+03  9.9832407E+02  0.0000000E+00  1.0000000E+00
 23  2  3  3   0   0 -6.1320269E+00 -4.8177559E+02  2.5425763E+02  5.5245850E+02  9.1750373E+01  0.0000000E+00  1.0000000E+00
 23  2  3  3   0   0  6.1320269E+00  4.8177559E+02  5.9367710E+01  4.9396961E+02  9.1302384E+01  0.0000000E+00  1.0000000E+00
-11  1  4  4   0   0  3.6112220E+01 -1.1795937E+02  7.8391660E+01  1.4616346E+02  6.8770433E-06  0.0000000E+00  1.0000000E+00
 11  1  4  4   0   0 -4.2244247E+01 -3.6381622E+02  1.7586597E+02  4.0629504E+02  4.5736613E-06  0.0000000E+00  1.0000000E+00
-13  1  5  5   0   0 -4.6721889E+00  2.9101382E+02 -8.5857932E+00  2.9117793E+02  3.6935647E-06  0.0000000E+00  1.0000000E+00
 13  1  5  5   0   0  1.0804216E+01  1.9076177E+02  6.7953503E+01  2.0279168E+02  7.0886940E-06  0.0000000E+00  1.0000000E+00
</event>
<event>
9 100 1.0000000E+00 1.0000000E+03 7.8125000E-03 0.0000000E+00
 21 -1  0  0 501 502  0.0000000E+00  0.0000000E+00  5.8514006E+02  5.8514006E+02  0.0000000E+00  0.0000000E+00  1.0000000E+00
 21 -1  0  0 502 501  0.0000000E+00  0.0000000E+00 -4.1154747E+02  4.1154747E+02  0.0000000E+00  0.0000000E+00  1.0000000E+00
 39  2  1  2   0   0 -2.7000624E-13  1.1937118E-12  1.7359259E+02  9.9668753E+02  9.8145384E+02  0.0000000E+00  1.0000000E+00
 23  2  3  3   0   0  9.2631497E+01 -4.1703514E+02 -1.4006251E+02  4.5892192E+02  9.2157031E+01  0.0000000E+00  1.0000000E+00
 23  2  3  3   0   0 -9.2631497E+01  4.1703514E+02  3.1365510E+02  5.3776561E+02  9.1177958E+01  0.0000000E+00  1.0000000E+00
-11  1  4  4   0   0  9.4331431E+00 -1.2722243E+02 -8.2596797E+01  1.5197619E+02  1.0182455E-05  0.0000000E+00  1.0000000E+00
 11  1  4  4   0   0  8.3198354E+01 -2.8981272E+02 -5.7465712E+01  3.0694573E+02  7.5092391E-06  0.0000000E+00  1.0000000E+00
-13  1  5  5   0   0 -6.4843861E+01  2.7398649E+02  2.5765396E+02  3.8165283E+02  6.3259598E-06  0.0000000E+00  1.0000000E+00
 13  1  5  5   0   0 -2.7787636E+01  1.4304865E+02  5.6001142E+01  1.5611277E+02  1.0092740E-05  0.0000000E+00  1.0000000E+00
</event>
<event>
9 100 1.0000000E+00 1.0000000E+03 7.8125000E-03 0.0000000E+00
 21 -1  0  0 501 502  0.0000000E+00  0.0000000E+00  7.8300057E+02  7.8300057E+02  0.0000000E+00  0.0000000E+00  1.0000000E+00
 21 -1  0  0 502 501  0.0000000E+00  0.0000000E+00 -2.0584371E+02  2.0584371E+02  0.0000000E+00  0.0000000E+00  1.0000000E+00
 39  2  1  2   0   0 -6.8212103E-13  1.2789769E-13  5.7715686E+02  9.8884428E+02  8.0293398E+02  0.0000000E+00  1.0000000E+00
 23  2  3  3   0   0 -3.3906879E+02  6.1550329E+01  5.4228381E+01  3.6073891E+02  9.1846365E+01  0.0000000E+00  1.0000000E+00
 23  2  3  3   0   0  3.3906879E+02 -6.1550329E+01  5.2292848E+02  6.2810537E+02  4.8021596E+01  0.0000000E+00  1.0000000E+00
-11  1  4  4   0   0 -1.3275929E+02  1.4738197E+01  6.5732821E+01  1.4887259E+02  1.2346077E-05  0.0000000E+00  1.0000000E+00
 11  1  4  4   0   0 -2.0630950E+02  4.6812131E+01 -1.1504440E+01  2.1186632E+02  6.7434958E-06  0.0000000E+00  1.0000000E+00
-13  1  5  5   0   0  2.1456623E+02 -5.1750300E+01  3.6790147E+02  4.2903177E+02  6.6072495E-06  0.0000000E+00  1.0000000E+00
 13  1  5  5   0   0  1.2450256E+02 -9.8000283E+00  1.5502701E+02  1.9907361E+02  1.7059845E-05  0.0000000E+00  1.0000000E+00
</event>
<event>
9 100 1.0000000E+00 1.0000000E+03 7.8125000E-03 0.0000000E+00
 21 -1  0  0 501 502  0.0000000E+00  0.0000000E+00  2.9220926E+02  2.9220926E+02  0.0000000E+00  0.0000000E+00  1.0000000E+00
 21 -1  0  0 502 501  0.0000000E+00  0.0000000E+00 -8.5389085E+02  8.5389085E+02  0.0000000E+00  0.0000000E+00  1.0000000E+00
 39  2  1  2   0   0 -5.7553962E-13  3.5242920E-12 -5.6168160E+02  1.1461001E+03  9.9902915E+02  0.0000000E+00  1.0000000E+00
 23  2  3  3   0   0  5.8139976E+01 -3.5438170E+02  1.0364099E+02  3.8450781E+02  9.0211719E+01  0.0000000E+00  1.0000000E+00
 23  2  3  3   0   0 -5.8139976E+01  3.5438170E+02 -6.6532259E+02  7.6159230E+02  9.1662676E+01  0.0000000E+00  1.0000000E+00
-11  1  4  4   0   0  4.1461310E+01 -3.3667126E+02  7.5884427E+01  3.4759894E+02  2.5005552E-06  0.0000000E+00  1.0000000E+00
 11  1  4  4   0   0  1.6678666E+01 -1.7710435E+01  2.7756563E+01  3.6908863E+01  1.3486992E-05  0.0000000E+00  1.0000000E+00
-13  1  5  5   0   0 -7.8422404E+01  2.7588657E+02 -5.5442611E+02  6.2422094E+02  4.2649612E-06  0.0000000E+00  1.0000000E+00
 13  1  5  5   0   0  2.0282428E+01  7.8495132E+01 -1.1089648E+02  1.3737136E+02  1.0789593E-05  0.0000000E+00  1.0000000E+00
</event>
<event>
9 100 1.0000000E+00 1.0000000E+03 7.8125000E-03 0.0000000E+00
 21 -1  0  0 501 502  0.0000000E+00  0.0000000E+00  4.9055454E+02  4.9055454E+02  0.0000000E+00  0.0000000E+00  1.0000000E+00
 21 -1  0  0 502 501  0.0000000E+00  0.0000000E+00 -5.0923340E+02  5.0923340E+02  0.0000000E+00  0.0000000E+00  1.0000000E+00
 39  2  1  2   0   0 -2.8421709E-14  0.0000000E+00 -1.8678866E+01  9.9978794E+02  9.9961343E+02  0.0000000E+00  1.0000000E+00
 23  2  3  3   0   0 -1.1330815E+02 -2.3468438E+02  4.0691642E+02  4.9203279E+02  9.2735118E+01  0.0000000E+00  1.0000000E+00
 23  2  3  3   0   0  1.1330815E+02  2.3468438E+02 -4.2559529E+02  5.0775514E+02  9.3639972E+01  0.0000000E+00  1.0000000E+00
-11  1  4  4   0   0 -1.0847658E+01 -9.6414056E+01  9.4985904E+01  1.3577800E+02  1.2063132E-05  0.0000000E+00  1.0000000E+00
 11  1  4  4   0   0 -1.0246049E+02 -1.3827032E+02  3.1193052E+02  3.5625480E+02  8.0921949E-06  0.0000000E+00  1.0000000E+00
-13  1  5  5   0   0  1.2030493E+02  1.5299023E+02 -2.8847436E+02  3.4798957E+02  8.7405695E-06  0.0000000E+00  1.0000000E+00
 13  1  5  5   0   0 -6.9967835E+00  8.1694148E+01 -1.3712093E+02  1.5976557E+02  1.3214499E-05  0.0000000E+00  1.0000000E+00
</event>
<event>
9 100 1.0000000E+00 1.0000000E+03 7.8125000E-03 0.0000000E+00
 21 -1  0  0 501 502  0.0000000E+00  0.0000000E+00  8.9450233E+02  8.9450233E+02  0.0000000E+00  0.0000000E+00  1.0000000E+00
 21 -1  0  0 502 501  0.0000000E+00  0.0000000E+00 -2.8093531E+02  2.8093531E+02  0.0000000E+00  0.0000000E+00  1.0000000E+00
 39  2  1  2   0   0 -2.8421709E-13  1.4779289E-12  6.1356702E+02  1.1754376E+03  1.0025912E+03  0.0000000E+00  1.0000000E+00
 23  2  3  3   0   0  4.7053084E+01 -2.6193234E+02 -1.7962186E+02  3.3390815E+02  9.1695688E+01  0.0000000E+00  1.0000000E+00
 23  2  3  3   0   0 -4.7053084E+01  2.6193234E+02  7.9318887E+02  8.4152949E+02  9.0558034E+01  0.0000000E+00  1.0000000E+00
-11  1  4  4   0   0  6.4778329E+01 -2.5052996E+02 -1.5558837E+02  3.0194243E+02  2.1851424E-06  0.0000000E+00  1.0000000E+00
 11  1  4  4   0   0 -1.7725245E+01 -1.1402379E+01 -2.4033489E+01  3.1965718E+01  1.0446979E-05  0.0000000E+00  1.0000000E+00
-13  1  5  5   0   0 -7.0351666E+00 -6.0263226E+00  4.1046256E+01  4.2078561E+01  2.4126264E-05  0.0000000E+00  1.0000000E+00
 13  1  5  5   0   0 -4.0017917E+01  2.6795866E+02  7.5214262E+02  7.9945093E+02  1.8467824E-06  0.0000000E+00  1.0000000E+00
</event>
<event>
9 100 1.0000000E+00 1.0000000E+03 7.8125000E-03 0.0000000E+00
 21 -1  0  0 501 502  0.0000000E+00  0.0000000E+00  2.4197091E+03  2.4197091E+03  0.0000000E+00  0.0000000E+00  1.0000000E+00
 21 -1  0  0 502 501  0.0000000E+00  0.0000000E+00 -1.0411896E+02  1.0411896E+02  0.0000000E+00  0.0000000E+00  1.0000000E+00
 39  2  1  2   0   0  3.0127012E-12 -3.2400749E-12  2.3155901E+03  2.5238280E+03  1.0038677E+03  0.0000000E+00  1.0000000E+00
 23  2  3  3   0   0  2.8309174E+02 -2.9775462E+02  4.6224146E+02  6.2333772E+02  7.7999952E+01  0.0000000E+00  1.0000000E+00
 23  2  3  3   0   0 -2.8309174E+02  2.9775462E+02  1.8533487E+03  1.9004903E+03  9.0351863E+01  0.0000000E+00  1.0000000E+00
-11  1  4  4   0   0  1.1655028E+01 -1.6350481E+01  3.1591078E+00  2.0326285E+01  7.6293945E-06  0.0000000E+00  1.0000000E+00
 11  1  4  4   0   0  2.7143672E+02 -2.8140414E+02  4.5908236E+02  6.0301143E+02  1.4404113E-06  0.0000000E+00  1.0000000E+00
-13  1  5  5   0   0 -3.8412353E+01  1.2910793E+01  2.8203137E+02  2.8492787E+02  3.0517578E-05  0.0000000E+00  1.0000000E+00
 13  1  5  5   0   0 -2.4467939E+02  2.8484383E+02  1.5713173E+03  1.6155625E+03  7.6293945E-06  0.0000000E+00  1.0000000E+00
</event>
<event>
9 100 1.0000000E+00 1.0000000E+03 7.8125000E-03 0.0000000E+00
 21 -1  0  0 501 502  0.0000000E+00  0.0000000E+00  8.0404854E+02  8.0404854E+02  0.0000000E+00  0.0000000E+00  1.0000000E+00
 21 -1  0  0 502 501  0.0000000E+00  0.0000000E+00 -3.1674032E+02  3.1674032E+02  0.0000000E+00  0.0000000E+00  1.0000000E+00
 39  2  1  2   0   0 -9.3791641E-13  9.6633812E-13  4.8730822E+02  1.1207889E+03  1.0093059E+03  0.0000000E+00  1.0000000E+00
 23  2  3  3   0   0 -2.4964554E+02  2.4523190E+02  6.3421086E+02  7.2958703E+02  8.7248126E+01  0.0000000E+00  1.0000000E+00
 23  2  3  3   0   0  2.4964554E+02 -2.4523190E+02 -1.4690264E+02  3.9120183E+02  9.4852003E+01  0.0000000E+00  1.0000000E+00
-11  1  4  4   0   0 -2.2751948E+02  2.4648622E+02  6.1369563E+02  6.9938752E+02  2.2743683E-06  0.0000000E+00  1.0000000E+00
 11  1  4  4   0   0 -2.2126061E+01 -1.2543210E+00  2.0515232E+01  3.0199514E+01  7.6293945E-06  0.0000000E+00  1.0000000E+00
-13  1  5  5   0   0  8.3446977E+00 -8.1629444E+00 -3.1813934E+01  3.3887963E+01  2.4463187E-05  0.0000000E+00  1.0000000E+00
 13  1  5  5   0   0  2.4130084E+02 -2.3706896E+02 -1.1508871E+02  3.5731386E+02  5.3312015E-06  0.0000000E+00  1.0000000E+00
</event>
<event>
9 100 1.0000000E+00 1.0000000E+03 7.8125000E-03 0.0000000E+00
 21 -1  0  0 501 502  0.0000000E+00  0.0000000E+00  9.9338161E+02  9.9338161E+02  0.0000000E+00  0.0000000E+00  1.0000000E+00
 21 -1  0  0 502 501  0.0000000E+00  0.0000000E+00 -2.4914390E+02  2.4914390E+02  0.0000000E+00  0.0000000E+00  1.0000000E+00
 39  2  1  2   0   0  2.2737368E-13  4.5474735E-13  7.4423771E+02  1.2425255E+03  9.9497733E+02  0.0000000E+00  1.0000000E+00
 23  2  3  3   0   0  2.0946890E+02  3.9891609E+02  1.3435575E+02  4.7887066E+02  9.0853587E+01  0.0000000E+00  1.0000000E+00
 23  2  3  3   0   0 -2.0946890E+02 -3.9891609E+02  6.0988196E+02  7.6365485E+02  9.0561942E+01  0.0000000E+00  1.0000000E+00
-11  1  4  4   0   0  1.5010883E+02  2.7144700E+02  1.3491269E+02  3.3825667E+02  2.9719226E-06  0.0000000E+00  1.0000000E+00
 11  1  4  4   0   0  5.9360067E+01  1.2746908E+02 -5.5693775E-01  1.4061399E+02  4.6720309E-06  0.0000000E+00  1.0000000E+00
-13  1  5  5   0   0 -3.1998436E+01 -1.3261686E+02  1.4311249E+02  1.9771777E+02  7.6293945E-06  0.0000000E+00  1.0000000E+00
 13  1  5  5   0   0 -1.7747046E+02 -2.6629922E+02  4.6676947E+02  5.6593708E+02  4.2649612E-06  0.0000000E+00  1.0000000E+00
</event>
<event>
9 100 1.0000000E+00 1.0000000E+03 7.8125000E-03 0.0000000E+00
 21 -1  0  0 501 502  0.0000000E+00  0.0000000E+00  3.5829855E+02  3.5829855E+02  0.0000000E+00  0.0000000E+00  1.0000000E+00
 21 -1  0  0 502 501  0.0000000E+00  0.0000000E+00 -6.9728152E+02  6.9728152E+02  0.0000000E+00  0.0000000E+00  1.0000000E+00
 39  2  1  2   0   0 -1.5347723E-12  4.5297099E-14 -3.3898296E+02  1.0555801E+03  9.9966986E+02  0.0000000E+00  1.0000000E+00
 23  2  3  3   0   0 -2.7105362E+02  7.6542429E+00  2.6314669E+02  3.8905711E+02  9.2685500E+01  0.0000000E+00  1.0000000E+00
 23  2  3  3   0   0  2.7105362E+02 -7.6542429E+00 -6.0212965E+02  6.6652296E+02  9.0355346E+01  0.0000000E+00  1.0000000E+00
-11  1  4  4   0   0 -2.4369540E+00  4.8016135E+00 -6.4969048E+00  8.4382468E+00  9.3440618E-06  0.0000000E+00  1.0000000E+00
 11  1  4  4   0   0 -2.6861667E+02  2.8526294E+00  2.6964359E+02  3.8061886E+02  1.1246182E-06  0.0000000E+00  1.0000000E+00
-13  1  5  5   0   0  2.7452005E+02 -1.1316709E+01 -6.0169966E+02  6.6146187E+02  8.8208393E-07  0.0000000E+00  1.0000000E+00
 13  1  5  5   0   0 -3.4664271E+00  3.6624659E+00 -4.2999356E-01  5.0610936E+00  1.3214499E-05  0.0000000E+00  1.0000000E+00
</event>
<event>
9 100 1.0000000E+00 1.0000000E+03 7.8125000E-03 0.0000000E+00
 21 -1  0  0 501 502  0.0000000E+00  0.0000000E+00  1.0968131E+03  1.0968131E+03  0.0000000E+00  0.0000000E+00  1.0000000E+00
 21 -1  0  0 502 501  0.0000000E+00  0.0000000E+00 -2.2341443E+02  2.2341443E+02  0.0000000E+00  0.0000000E+00  1.0000000E+00
 39  2  1  2   0   0  3.4106051E-13  1.1368684E-13  8.7339864E+02  1.3202275E+03  9.9003811E+02  0.0000000E+00  1.0000000E+00
 23  2  3  3   0   0 -1.3455484E+02 -4.3781043E+01  1.0581941E+03  1.0715574E+03  9.1861754E+01  0.0000000E+00  1.0000000E+00
 23  2  3  3   0   0  1.3455484E+02  4.3781043E+01 -1.8479548E+02  2.4867015E+02  8.7553920E+01  0.0000000E+00  1.0000000E+00
-11  1  4  4   0   0 -6.2359026E+01 -5.9770689E+00  2.0193281E+02  2.1142666E+02  2.6428998E-05  0.0000000E+00  1.0000000E+00
 11  1  4  4   0   0 -7.2195811E+01 -3.7803974E+01  8.5626131E+02  8.6013069E+02  3.8146973E-06  0.0000000E+00  1.0000000E+00
-13  1  5  5   0   0  6.7383762E+01  2.8265384E+01 -2.9577420E+01  7.8831003E+01  4.6720309E-06  0.0000000E+00  1.0000000E+00
 13  1  5  5   0   0  6.7171076E+01  1.5515660E+01 -1.5521806E+02  1.6983914E+02  2.7392209E-06  0.0000000E+00  1.0000000E+00
</event>
<event>
9 100 1.0000000E+00 1.0000000E+03 7.8125000E-03 0.0000000E+00
 21 -1  0  0 501 502  0.0000000E+00  0.0000000E+00  4.1949581E+02  4.1949581E+02  0.0000000E+00  0.0000000E+00  1.0000000E+00
 21 -1  0  0 502 501  0.0000000E+00  0.0000000E+00 -5.9883499E+02  5.9883499E+02  0.0000000E+00  0.0000000E+00  1.0000000E+00
 39  2  1  2   0   0  4.5474735E-13 -9.2370556E-14 -1.7933917E+02  1.0183308E+03  1.0024146E+03  0.0000000E+00  1.0000000E+00
 23  2  3  3   0   0 -1.5369010E+02  3.3869737E+01  3.8502466E+02  4.2521465E+02  8.8293291E+01  0.0000000E+00  1.0000000E+00
 23  2  3  3   0   0  1.5369010E+02 -3.3869737E+01 -5.6436383E+02  5.9311615E+02  9.2262848E+01  0.0000000E+00  1.0000000E+00
-11  1  4  4   0   0 -2.7250060E+01  3.9198564E+01  6.1752691E+01  7.8054391E+01  1.1444092E-05  0.0000000E+00  1.0000000E+00
 11  1  4  4   0   0 -1.2644004E+02 -5.3288276E+00  3.2327197E+02  3.4716026E+02  3.9320999E-06  0.0000000E+00  1.0000000E+00
-13  1  5  5   0   0 -3.2817531E+00 -2.2074365E+01 -1.1044546E+02  1.1267763E+02  1.0789593E-05  0.0000000E+00  1.0000000E+00
 13  1  5  5   0   0  1.5697185E+02 -1.1795372E+01 -4.5391837E+02  4.8043853E+02  3.3036247E-06  0.0000000E+00  1.0000000E+00
</event>
<event>
9 100 1.0000000E+00 1.0000000E+03 7.8125000E-03 0.0000000E+00
 21 -1  0  0 501 502  0.0000000E+00  0.0000000E+00  3.3300372E+03  3.3300372E+03  0.0000000E+00  0.0000000E+00  1.0000000E+00
 21 -1  0  0 502 501  0.0000000E+00  0.0000000E+00 -7.4873169E+01  7.4873169E+01  0.0000000E+00  0.0000000E+00  1.0000000E+00
 39  2  1  2   0   0  4.0927262E-12  1.2789769E-12  3.2551641E+03  3.4049104E+03  9.9865998E+02  0.0000000E+00  1.0000000E+00
 23  2  3  3   0   0  2.6988389E+02  8.4782645E+01  2.9965603E+03  3.0114139E+03  9.5992516E+01  0.0000000E+00  1.0000000E+00
 23  2  3  3   0   0 -2.6988389E+02 -8.4782645E+01  2.5860372E+02  3.9349647E+02  8.9096434E+01  0.0000000E+00  1.0000000E+00
-11  1  4  4   0   0  5.6111631E+01  3.0670411E+01  3.5893845E+02  3.6459018E+02  6.1035156E-05  0.0000000E+00  1.0000000E+00
 11  1  4  4   0   0  2.1377226E+02  5.4112234E+01  2.6376219E+03  2.6468238E+03  1.2063132E-05  0.0000000E+00  1.0000000E+00
-13  1  5  5   0   0 -1.3216727E+02  3.1574765E+00  9.9836469E+01  1.6566677E+02  1.0789593E-05  0.0000000E+00  1.0000000E+00
 13  1  5  5   0   0 -1.3771662E+02 -8.7940122E+01  1.5876725E+02  2.2782970E+02  6.8770433E-06  0.0000000E+00  1.0000000E+00
</event>
<event>
9 100 1.0000000E+00 1.0000000E+03 7.8125000E-03 0.0000000E+00
 21 -1  0  0 501 502  0.0000000E+00  0.0000000E+00  8.8878002E+02  8.8878002E+02  0.0000000E+00  0.0000000E+00  1.0000000E+00
 21 -1  0  0 502 501  0.0000000E+00  0.0000000E+00 -2.8624965E+02  2.8624965E+02  0.0000000E+00  0.0000000E+00  1.0000000E+00
 39  2  1  2   0   0 -2.2026825E-13  5.9685590E-13  6.0253038E+02  1.1750297E+03  1.0087873E+03  0.0000000E+00  1.0000000E+00
 23  2  3  3   0   0 -4.6582175E+01  1.3508804E+02  8.5464573E+02  8.7140061E+02  9.2201017E+01  0.0000000E+00  1.0000000E+00
 23  2  3  3   0   0  4.6582175E+01 -1.3508804E+02 -2.5211535E+02  3.0362906E+02  9.0607835E+01  0.0000000E+00  1.0000000E+00
-11  1  4  4   0   0 -2.6904252E+01  1.7729804E+01  4.0485784E+02  4.0613798E+02  2.1579186E-05  0.0000000E+00  1.0000000E+00
 11  1  4  4   0   0 -1.9677923E+01  1.1735823E+02  4.4978789E+02  4.6526263E+02  1.6184390E-05  0.0000000E+00  1.0000000E+00
-13  1  5  5   0   0  1.8308143E+01 -7.0316317E+01 -4.6645966E+01  8.6344767E+01  1.2063132E-05  0.0000000E+00  1.0000000E+00
 13  1  5  5   0   0  2.8274032E+01 -6.4771719E+01 -2.0546938E+02  2.1728429E+02  5.7616453E-06  0.0000000E+00  1.0000000E+00
</event>
<event>
9 100 1.0000000E+00 1.0000000E+03 7.8125000E-03 0.0000000E+00
 21 -1  0  0 501 502  0.0000000E+00  0.0000000E+00  7.0609558E+02  7.0609558E+02  0.0000000E+00  0.0000000E+00  1.0000000E+00
 21 -1  0  0 502 501  0.0000000E+00  0.0000000E+00 -3.5160911E+02  3.5160911E+02  0.0000000E+00  0.0000000E+00  1.0000000E+00
 39  2  1  2   0   0  1.5631940E-13 -1.4210855E-13  3.5448646E+02  1.0577047E+03  9.9653327E+02  0.0000000E+00  1.0000000E+00
 23  2  3  3   0   0 -1.0615537E+02  1.0508037E+02 -3.1887043E+02  3.6323610E+02  8.9169870E+01  0.0000000E+00  1.0000000E+00
 23  2  3  3   0   0  1.0615537E+02 -1.0508037E+02  6.7335690E+02  6.9446859E+02  8.1032454E+01  0.0000000E+00  1.0000000E+00
-11  1  4  4   0   0 -6.4298753E+01  9.5866587E+01 -1.5149897E+02  1.9046436E+02  2.6973983E-06  0.0000000E+00  1.0000000E+00
 11  1  4  4   0   0 -4.1856614E+01  9.2137804E+00 -1.6737146E+02  1.7277174E+02  0.0000000E+00  0.0000000E+00  1.0000000E+00
-13  1  5  5   0   0  3.7230396E+01  7.2691782E+00  1.6466788E+02  1.6898063E+02  1.7059845E-05  0.0000000E+00  1.0000000E+00
 13  1  5  5   0   0  6.8924971E+01 -1.1234955E+02  5.0868902E+02  5.2548796E+02  4.2649612E-06  0.0000000E+00  1.0000000E+00
</event>
<event>
9 100 1.0000000E+00 1.0000000E+03 7.8125000E-03 0.0000000E+00
 21 -1  0  0 501 502  0.0000000E+00  0.0000000E+00  1.2143722E+03  1.2143722E+03  0.0000000E+00  0.0000000E+00  1.0000000E+00
 21 -1  0  0 502 501  0.0000000E+00  0.0000000E+00 -2.0806483E+02  2.0806483E+02  0.0000000E+00  0.0000000E+00  1.0000000E+00
 39  2  1  2   0   0 -1.4210855E-12  1.3642421E-12  1.0063073E+03  1.4224370E+03  1.0053221E+03  0.0000000E+00  1.0000000E+00
 23  2  3  3   0   0  3.5861934E+02 -3.4014665E+02  5.1714215E+02  7.2118356E+02  9.1444828E+01  0.0000000E+00  1.0000000E+00
 23  2  3  3   0   0 -3.5861934E+02  3.4014665E+02  4.8916519E+02  7.0125344E+02  9.0367186E+01  0.0000000E+00  1.0000000E+00
-11  1  4  4   0   0  3.3791061E+02 -3.2706656E+02  4.5485988E+02  6.5425807E+02  2.7804145E-06  0.0000000E+00  1.0000000E+00
 11  1  4  4   0   0  2.0708724E+01 -1.3080094E+01  6.2282274E+01  6.6925494E+01  2.0893957E-05  0.0000000E+00  1.0000000E+00
-13  1  5  5   0   0 -7.6973021E+01  3.0235497E+01  9.7737942E+01  1.2803022E+02  2.3515373E-05  0.0000000E+00  1.0000000E+00
 13  1  5  5   0   0 -2.8164632E+02  3.0991115E+02  3.9142725E+02  5.7322322E+02  2.3360155E-06  0.0000000E+00  1.0000000E+00
</event>
<event>
9 100 1.0000000E+00 1.0000000E+03 7.8125000E-03 0.0000000E+00
 21 -1  0  0 501 502  0.0000000E+00  0.0000000E+00  3.5817892E+02  3.5817892E+02  0.0000000E+00  0.0000000E+00  1.0000000E+00
 21 -1  0  0 502 501  0.0000000E+00  0.0000000E+00 -7.1173479E+02  7.1173479E+02  0.0000000E+00  0.0000000E+00  1.0000000E+00
 39  2  1  2   0   0  1.7763568E-14  5.1159077E-13 -3.5355587E+02  1.0699137E+03  1.0098087E+03  0.0000000E+00  1.0000000E+00
 23  2  3  3   0   0  8.9561726E+00  2.9760902E+02  2.4726305E+02  3.9338833E+02  7.0455810E+01  0.0000000E+00  1.0000000E+00
 23  2  3  3   0   0 -8.9561726E+00 -2.9760902E+02 -6.0081892E+02  6.7652537E+02  8.9732158E+01  0.0000000E+00  1.0000000E+00
-11  1  4  4   0   0 -2.4647826E+01  2.1537144E+02  1.6671608E+02  2.7347143E+02  9.5367432E-07  0.0000000E+00  1.0000000E+00
 11  1  4  4   0   0  3.3603998E+01  8.2237579E+01  8.0546972E+01  1.1991690E+02  3.3036247E-06  0.0000000E+00  1.0000000E+00
-13  1  5  5   0   0  5.5648410E+00 -2.7934896E+02 -5.8511336E+02  6.4840146E+02  2.7444039E-06  0.0000000E+00  1.0000000E+00
 13  1  5  5   0   0 -1.4521014E+01 -1.8260066E+01 -1.5705559E+01  2.8123912E+01  1.8688124E-05  0.0000000E+00  1.0000000E+00
</event>
<event>
9 100 1.0000000E+00 1.0000000E+03 7.8125000E-03 0.0000000E+00
 21 -1  0  0 501 502  0.0000000E+00  0.0000000E+00  2.3748102E+02  2.3748102E+02  0.0000000E+00  0.0000000E+00  1.0000000E+00
 21 -1  0  0 502 501  0.0000000E+00  0.0000000E+00 -1.0575171E+03  1.0575171E+03  0.0000000E+00  0.0000000E+00  1.0000000E+00
 39  2  1  2   0   0 -2.8421709E-14  8.5265128E-14 -8.2003603E+02  1.2949981E+03  1.0022779E+03  0.0000000E+00  1.0000000E+00
 23  2  3  3   0   0  2.7145090E+01 -5.9308838E+01  2.2088500E+02  2.4799013E+02  9.1948507E+01  0.0000000E+00  1.0000000E+00
 23  2  3  3   0   0 -2.7145090E+01  5.9308838E+01 -1.0409210E+03  1.0470079E+03  9.1949239E+01  0.0000000E+00  1.0000000E+00
-11  1  4  4   0   0  1.6571975E+01 -5.6897129E+01  2.2763091E+02  2.3521850E+02  2.1948758E-06  0.0000000E+00  1.0000000E+00
 11  1  4  4   0   0  1.0573115E+01 -2.4117087E+00 -6.7459118E+00  1.2771625E+01  1.2063132E-05  0.0000000E+00  1.0000000E+00
-13  1  5  5   0   0 -2.8427778E+01 -8.1980656E+00 -1.1918701E+02  1.2280427E+02  2.1579186E-05  0.0000000E+00  1.0000000E+00
 13  1  5  5   0   0  1.2826878E+00  6.7506904E+01 -9.2173402E+02  9.2420368E+02  2.3360155E-06  0.0000000E+00  1.0000000E+00
</event>
<event>
9 100 1.0000000E+00 1.0000000E+03 7.8125000E-03 0.0000000E+00
 21 -1  0  0 501 502  0.0000000E+00  0.0000000E+00  5.8052129E+02  5.8052129E+02  0.0000000E+00  0.0000000E+00  1.0000000E+00
 21 -1  0  0 502 501  0.0000000E+00  0.0000000E+00 -4.3766722E+02  4.3766722E+02  0.0000000E+00  0.0000000E+00  1.0000000E+00
 39  2  1  2   0   0 -1.1937118E-12  1.0231815E-12  1.4285407E+02  1.0181885E+03  1.0081173E+03  0.0000000E+00  1.0000000E+00
 23  2  3  3   0   0  3.6805229E+02 -2.8776078E+02  2.3817582E+02  5.3267518E+02  9.3522038E+01  0.0000000E+00  1.0000000E+00
 23  2  3  3   0   0 -3.6805229E+02  2.8776078E+02 -9.5321753E+01  4.8551333E+02  9.1477912E+01  0.0000000E+00  1.0000000E+00
-11  1  4  4   0   0  3.4936223E+02 -2.9202989E+02  2.1797488E+02  5.0482519E+02  2.7804145E-06  0.0000000E+00  1.0000000E+00
 11  1  4  4   0   0  1.8690060E+01  4.2691155E+00  2.0200946E+01  2.7849990E+01  2.1913767E-05  0.0000000E+00  1.0000000E+00
-13  1  5  5   0   0 -3.5860794E+02  2.5002556E+02 -8.7286709E+01  4.4579301E+02  1.9947529E-06  0.0000000E+00  1.0000000E+00
 13  1  5  5   0   0 -9.4443432E+00  3.7735212E+01 -8.0350440E+00  3.9720320E+01  1.3076123E-05  0.0000000E+00  1.0000000E+00
</event>
<event>
9 100 1.0000000E+00 1.0000000E+03 7.8125000E-03 0.0000000E+00
 21 -1  0  0 501 502  0.0000000E+00  0.0000000E+00  1.0598378E+03  1.0598378E+03  0.0000000E+00  0.0000000E+00  1.0000000E+00
 21 -1  0  0 502 501  0.0000000E+00  0.0000000E+00 -2.3315430E+02  2.3315430E+02  0.0000000E+00  0.0000000E+00  1.0000000E+00
 39  2  1  2   0   0 -4.5474735E-12  1.9610980E-12  8.2668352E+02  1.2929921E+03  9.9419463E+02  0.0000000E+00  1.0000000E+00
 23  2  3  3   0   0 -4.3568474E+02  1.9362014E+02  5.4592816E+02  7.3063153E+02  9.2059330E+01  0.0000000E+00  1.0000000E+00
 23  2  3  3   0   0  4.3568474E+02 -1.9362014E+02  2.8075536E+02  5.6236059E+02  1.0057786E+02  0.0000000E+00  1.0000000E+00
-11  1  4  4   0   0 -1.2259357E+02  3.0562512E+01  1.9874356E+02  2.3550425E+02  1.2063132E-05  0.0000000E+00  1.0000000E+00
 11  1  4  4   0   0 -3.1309117E+02  1.6305763E+02  3.4718460E+02  4.9512727E+02  4.6720309E-06  0.0000000E+00  1.0000000E+00
-13  1  5  5   0   0  6.0707769E+01 -6.9476332E+01  5.1895735E+01  1.0585632E+02  1.6184390E-05  0.0000000E+00  1.0000000E+00
 13  1  5  5   0   0  3.7497697E+02 -1.2414381E+02  2.2885963E+02  4.5650426E+02  6.6757202E-06  0.0000000E+00  1.0000000E+00
</event>
<event>
9 100 1.0000000E+00 1.0000000E+03 7.8125000E-03 0.0000000E+00
 21 -1  0  0 501 502  0.0000000E+00  0.0000000E+00  1.2644036E+03  1.2644036E+03  0.0000000E+00  0.0000000E+00  1.0000000E+00
 21 -1  0  0 502 501  0.0000000E+00  0.0000000E+00 -2.0198999E+02  2.0198999E+02  0.0000000E+00  0.0000000E+00  1.0000000E+00
 39  2  1  2   0   0 -3.4106051E-13 -3.6948222E-13  1.0624136E+03  1.4663936E+03  1.0107361E+03  0.0000000E+00  1.0000000E+00
 23  2  3  3   0   0 -2.8060129E+02 -2.1909026E+02  2.7782469E+01  3.6836018E+02  9.0441895E+01  0.0000000E+00  1.0000000E+00
 23  2  3  3   0   0  2.8060129E+02  2.1909026E+02  1.0346312E+03  1.0980334E+03  9.2076924E+01  0.0000000E+00  1.0000000E+00
-11  1  4  4   0   0 -2.5555791E+02 -1.9305189E+02  5.2545261E+01  3.2456106E+02  1.9660500E-06  0.0000000E+00  1.0000000E+00
 11  1  4  4   0   0 -2.5043377E+01 -2.6038370E+01 -2.4762792E+01  4.3799125E+01  3.3717479E-06  0.0000000E+00  1.0000000E+00
-13  1  5  5   0   0  2.6665794E+02  2.0034312E+02  8.6981702E+02  9.3157150E+02  0.0000000E+00  0.0000000E+00  1.0000000E+00
 13  1  5  5   0   0  1.3943346E+01  1.8747134E+01  1.6481415E+02  1.6646193E+02  2.1579186E-05  0.0000000E+00  1.0000000E+00
</event>
<event>
9 100 1.0000000E+00 1.0000000E+03 7.8125000E-03 0.0000000E+00
 21 -1  0  0 501 502  0.0000000E+00  0.0000000E+00  5.3437129E+02  5.3437129E+02  0.0000000E+00  0.0000000E+00  1.0000000E+00
 21 -1  0  0 502 501  0.0000000E+00  0.0000000E+00 -4.7531296E+02  4.7531296E+02  0.0000000E+00  0.0000000E+00  1.0000000E+00
 39  2  1  2   0   0 -1.1368684E-13 -1.4210855E-14  5.9058326E+01  1.0096843E+03  1.0079556E+03  0.0000000E+00  1.0000000E+00
 23  2  3  3   0   0 -2.7538214E+02 -1.0993837E+02 -3.6875023E+02  4.8166418E+02  9.0010453E+01  0.0000000E+00  1.0000000E+00
 23  2  3  3   0   0  2.7538214E+02  1.0993837E+02  4.2780855E+02  5.2802008E+02  8.8675112E+01  0.0000000E+00  1.0000000E+00
-11  1  4  4   0   0 -7.7798059E+01  5.7517516E+00 -1.2412971E+02  1.4660766E+02  6.0315660E-06  0.0000000E+00  1.0000000E+00
 11  1  4  4   0   0 -1.9758408E+02 -1.1569012E+02 -2.4462051E+02  3.3505651E+02  1.3486992E-06  0.0000000E+00  1.0000000E+00
-13  1  5  5   0   0  2.0450974E+02  1.2085435E+02  3.1978283E+02  3.9836047E+02  6.4681339E-06  0.0000000E+00  1.0000000E+00
 13  1  5  5   0   0  7.0872400E+01 -1.0915985E+01  1.0802572E+02  1.2965960E+02  1.4273290E-05  0.0000000E+00  1.0000000E+00
</event>
<event>
9 100 1.0000000E+00 1.0000000E+03 7.8125000E-03 0.0000000E+00
 21 -1  0  0 501 502  0.0000000E+00  0.0000000E+00  5.9382807E+02  5.9382807E+02  0.0000000E+00  0.0000000E+00  1.0000000E+00
 21 -1  0  0 502 501  0.0000000E+00  0.0000000E+00 -4.1537774E+02  4.1537774E+02  0.0000000E+00  0.0000000E+00  1.0000000E+00
 39  2  1  2   0   0 -4.2632564E-14 -1.1368684E-13  1.7845033E+02  1.0092058E+03  9.9330350E+02  0.0000000E+00  1.0000000E+00
 23  2  3  3   0   0  5.1002559E+01  3.8341798E+02  3.9204196E+02  5.5814871E+02  9.0677866E+01  0.0000000E+00  1.0000000E+00
 23  2  3  3   0   0 -5.1002559E+01 -3.8341798E+02 -2.1359163E+02  4.5105710E+02  9.0667058E+01  0.0000000E+00  1.0000000E+00
-11  1  4  4   0   0  1.1987478E+01  3.3323004E+02  3.2157376E+02  4.6324469E+02  1.6518124E-06  0.0000000E+00  1.0000000E+00
 11  1  4  4   0   0  3.9015081E+01  5.0187941E+01  7.0468204E+01  9.4904024E+01  1.3214499E-05  0.0000000E+00  1.0000000E+00
-13  1  5  5   0   0 -7.7432325E+01 -2.7968094E+02 -1.5834773E+02  3.3059219E+02  4.2113118E-06  0.0000000E+00  1.0000000E+00
 13  1  5  5   0   0  2.6429766E+01 -1.0373704E+02 -5.5243905E+01  1.2046491E+02  1.1284027E-05  0.0000000E+00  1.0000000E+00
</event>
<event>
9 100 1.0000000E+00 1.0000000E+03 7.8125000E-03 0.0000000E+00
 21 -1  0  0 501 502  0.0000000E+00  0.0000000E+00  8.1703560E+02  8.1703560E+02  0.0000000E+00  0.0000000E+00  1.0000000E+00
 21 -1  0  0 502 501  0.0000000E+00  0.0000000E+00 -3.0830036E+02  3.0830036E+02  0.0000000E+00  0.0000000E+00  1.0000000E+00
 39  2  1  2   0   0 -1.2505552E-12  6.8212103E-13  5.0873524E+02  1.1253360E+03  1.0037776E+03  0.0000000E+00  1.0000000E+00
 23  2  3  3   0   0 -2.0066317E+02  1.0528965E+02  7.4612689E+02  7.8504064E+02  9.0729630E+01  0.0000000E+00  1.0000000E+00
 23  2  3  3   0   0  2.0066317E+02 -1.0528965E+02 -2.3739165E+02  3.4029531E+02  8.9969347E+01  0.0000000E+00  1.0000000E+00
-11  1  4  4   0   0 -7.1652025E+01  1.1009012E+01  1.3344127E+02  1.5186107E+02  7.6293945E-06  0.0000000E+00  1.0000000E+00
 11  1  4  4   0   0 -1.2901115E+02  9.4280635E+01  6.1268562E+02  6.3317958E+02  0.0000000E+00  0.0000000E+00  1.0000000E+00
-13  1  5  5   0   0  1.1404221E+02 -2.8568312E+01 -7.0080534E+01  1.3686875E+02  3.8146973E-06  0.0000000E+00  1.0000000E+00
 13  1  5  5   0   0  8.6620960E+01 -7.6721335E+01 -1.6731111E+02  2.0342655E+02  2.6973983E-06  0.0000000E+00  1.0000000E+00
</event>
<event>
9 100 1.0000000E+00 1.0000000E+03 7.8125000E-03 0.0000000E+00
 21 -1  0  0 501 502  0.0000000E+00  0.0000000E+00  4.9744564E+02  4.9744564E+02  0.0000000E+00  0.0000000E+00  1.0000000E+00
 21 -1  0  0 502 501  0.0000000E+00  0.0000000E+00 -5.0400650E+02  5.0400650E+02  0.0000000E+00  0.0000000E+00  1.0000000E+00
 39  2  1  2   0   0  8.5265128E-14 -1.1368684E-12 -6.5608563E+00  1.0014521E+03  1.0014307E+03  0.0000000E+00  1.0000000E+00
 23  2  3  3   0   0 -3.2035873E+01  4.1486593E+02 -2.6474342E+02  5.0483937E+02  1.0785949E+02  0.0000000E+00  1.0000000E+00
 23  2  3  3   0   0  3.2035873E+01 -4.1486593E+02  2.5818257E+02  4.9661277E+02  8.2619421E+01  0.0000000E+00  1.0000000E+00
-11  1  4  4   0   0  1.5440827E+01  3.0825437E+02 -1.5823617E+02  3.4683982E+02  8.0921949E-06  0.0000000E+00  1.0000000E+00
 11  1  4  4   0   0 -4.7476700E+01  1.0661157E+02 -1.0650725E+02  1.5799955E+02  1.1444092E-05  0.0000000E+00  1.0000000E+00
-13  1  5  5   0   0  2.3174566E+00 -2.8380418E+02  1.3489947E+02  3.1424202E+02  4.2649612E-06  0.0000000E+00  1.0000000E+00
 13  1  5  5   0   0  2.9718416E+01 -1.3106175E+02  1.2328310E+02  1.8237075E+02  8.0921949E-06  0.0000000E+00  1.0000000E+00
</event>
<event>
9 100 1.0000000E+00 1.0000000E+03 7.8125000E-03 0.0000000E+00
 21 -1  0  0 501 502  0.0000000E+00  0.0000000E+00  3.3913766E+02  3.3913766E+02  0.0000000E+00  0.0000000E+00  1.0000000E+00
 21 -1  0  0 502 501  0.0000000E+00  0.0000000E+00 -7.3682300E+02  7.3682300E+02  0.0000000E+00  0.0000000E+00  1.0000000E+00
 39  2  1  2   0   0  0.0000000E+00  0.0000000E+00 -3.9768534E+02  1.0759607E+03  9.9976883E+02  0.0000000E+00  1.0000000E+00
 23  2  3  3   0   0  2.7272556E+02 -7.3669246E+01 -6.3362509E+02  6.9989759E+02  9.2571513E+01  0.0000000E+00  1.0000000E+00
 23  2  3  3   0   0 -2.7272556E+02  7.3669246E+01  2.3593976E+02  3.7606308E+02  7.7132867E+01  0.0000000E+00  1.0000000E+00
-11  1  4  4   0   0  1.1182973E+02  1.5963138E+01 -2.5137220E+02  2.7558791E+02  1.0789593E-05  0.0000000E+00  1.0000000E+00
 11  1  4  4   0   0  1.6089583E+02 -8.9632384E+01 -3.8225289E+02  4.2430968E+02  6.6072495E-06  0.0000000E+00  1.0000000E+00
-13  1  5  5   0   0 -1.8559664E+02  4.4647458E+01  1.1039272E+02  2.2051317E+02  1.3486992E-06  0.0000000E+00  1.0000000E+00
 13  1  5  5   0   0 -8.7128923E+01  2.9021788E+01  1.2554704E+02  1.5554990E+02  2.6973983E-06  0.0000000E+00  1.0000000E+00
</event>
<event>
9 100 1.0000000E+00 1.0000000E+03 7.8125000E-03 0.0000000E+00
 21 -1  0  0 501 502  0.0000000E+00  0.0000000E+00  1.9130480E+02  1.9130480E+02  0.0000000E+00  0.0000000E+00  1.0000000E+00
 21 -1  0  0 502 501  0.0000000E+00  0.0000000E+00 -1.3230876E+03  1.3230876E+03  0.0000000E+00  0.0000000E+00  1.0000000E+00
 39  2  1  2   0   0 -4.8316906E-13 -1.0231815E-12 -1.1317828E+03  1.5143924E+03  1.0062068E+03  0.0000000E+00  1.0000000E+00
 23  2  3  3   0   0  2.0113101E+02  4.5087236E+02 -6.1042133E+02  7.9088956E+02  9.5668838E+01  0.0000000E+00  1.0000000E+00
 23  2  3  3   0   0 -2.0113101E+02 -4.5087236E+02 -5.2136149E+02  7.2350287E+02  8.8876461E+01  0.0000000E+00  1.0000000E+00
-11  1  4  4   0   0  9.9648758E+01  2.9776816E+02 -3.2869632E+02  4.5457345E+02  1.0092740E-05  0.0000000E+00  1.0000000E+00
 11  1  4  4   0   0  1.0148225E+02  1.5310421E+02 -2.8172502E+02  3.3631612E+02  5.3947966E-06  0.0000000E+00  1.0000000E+00
-13  1  5  5   0   0 -1.2671202E+02 -2.4888151E+02 -2.3336323E+02  3.6394552E+02  1.7059845E-05  0.0000000E+00  1.0000000E+00
 13  1  5  5   0   0 -7.4418991E+01 -2.0199085E+02 -2.8799826E+02  3.5955735E+02  1.0092740E-05  0.0000000E+00  1.0000000E+00
</event>
<event>
9 100 1.0000000E+00 1.0000000E+03 7.8125000E-03 0.0000000E+00
 21 -1  0  0 501 502  0.0000000E+00  0.0000000E+00  9.1773125E+02  9.1773125E+02  0.0000000E+00  0.0000000E+00  1.0000000E+00
 21 -1  0  0 502 501  0.0000000E+00  0.0000000E+00 -2.6917271E+02  2.6917271E+02  0.0000000E+00  0.0000000E+00  1.0000000E+00
 39  2  1  2   0   0 -2.7853275E-12  4.6895821E-13  6.4855854E+02  1.1869040E+03  9.9403865E+02  0.0000000E+00  1.0000000E+00
 23  2  3  3   0   0  4.2061246E+02 -6.9614847E+01  3.8868981E+01  4.3745904E+02  8.9991939E+01  0.0000000E+00  1.0000000E+00
 23  2  3  3   0   0 -4.2061246E+02  6.9614847E+01  6.0968956E+02  7.4944492E+02  9.0472419E+01  0.0000000E+00  1.0000000E+00
-11  1  4  4   0   0  3.6991170E+01 -3.2212193E+01  1.4945023E+01  5.1276952E+01  1.1444092E-05  0.0000000E+00  1.0000000E+00
 11  1  4  4   0   0  3.8362129E+02 -3.7402654E+01  2.3923958E+01  3.8618209E+02  9.6846085E-07  0.0000000E+00  1.0000000E+00
-13  1  5  5   0   0 -1.6919595E+02  3.5450285E+01  3.2487037E+02  3.6800101E+02  9.3440618E-06  0.0000000E+00  1.0000000E+00
 13  1  5  5   0   0 -2.5141651E+02  3.4164562E+01  2.8481920E+02  3.8144391E+02  3.8146973E-06  0.0000000E+00  1.0000000E+00
</event>
<event>
9 100 1.0000000E+00 1.0000000E+03 7.8125000E-03 0.0000000E+00
 21 -1  0  0 501 502  0.0000000E+00  0.0000000E+00  2.1884794E+02  2.1884794E+02  0.0000000E+00  0.0000000E+00  1.0000000E+00
 21 -1  0  0 502 501  0.0000000E+00  0.0000000E+00 -1.1646352E+03  1.1646352E+03  0.0000000E+00  0.0000000E+00  1.0000000E+00
 39  2  1  2   0   0  9.2370556E-13 -1.3358203E-12 -9.4578725E+02  1.3834831E+03  1.0097089E+03  0.0000000E+00  1.0000000E+00
 23  2  3  3   0   0 -9.9365744E+01  1.4130146E+02  1.6448271E+02  2.5598131E+02  9.2909738E+01  0.0000000E+00  1.0000000E+00
 23  2  3  3   0   0  9.9365744E+01 -1.4130146E+02 -1.1102700E+03  1.1275018E+03  9.3387995E+01  0.0000000E+00  1.0000000E+00
-11  1  4  4   0   0 -5.2518062E+00  8.6305207E+01  8.3345936E+01  1.2009461E+02  7.3253114E-06  0.0000000E+00  1.0000000E+00
 11  1  4  4   0   0 -9.4113938E+01  5.4996249E+01  8.1136773E+01  1.3588671E+02  6.6072495E-06  0.0000000E+00  1.0000000E+00
-13  1  5  5   0   0  3.8976627E+01 -3.2111929E+00 -3.6887144E+02  3.7093885E+02  1.8688124E-05  0.0000000E+00  1.0000000E+00
 13  1  5  5   0   0  6.0389117E+01 -1.3809026E+02 -7.4139852E+02  7.5656297E+02  1.3214499E-05  0.0000000E+00  1.0000000E+00
</event>
<event>
9 100 1.0000000E+00 1.0000000E+03 7.8125000E-03 0.0000000E+00
 21 -1  0  0 501 502  0.0000000E+00  0.0000000E+00  2.9847459E+02  2.9847459E+02  0.0000000E+00  0.0000000E+00  1.0000000E+00
 21 -1  0  0 502 501  0.0000000E+00  0.0000000E+00 -8.5123963E+02  8.5123963E+02  0.0000000E+00  0.0000000E+00  1.0000000E+00
 39  2  1  2   0   0  1.9042545E-12  2.7569058E-12 -5.5276504E+02  1.1497142E+03  1.0081139E+03  0.0000000E+00  1.0000000E+00
 23  2  3  3   0   0 -1.7265312E+02 -2.5118638E+02 -7.2242656E+02  7.8931204E+02  9.0607151E+01  0.0000000E+00  1.0000000E+00
 23  2  3  3   0   0  1.7265312E+02  2.5118638E+02  1.6966152E+02  3.6040219E+02  9.0559444E+01  0.0000000E+00  1.0000000E+00
-11  1  4  4   0   0 -9.9477374E+01 -2.1348816E+02 -5.2488705E+02  5.7530805E+02  4.6720309E-06  0.0000000E+00  1.0000000E+00
 11  1  4  4   0   0 -7.3175741E+01 -3.7698219E+01 -1.9753952E+02  2.1400399E+02  1.0789593E-05  0.0000000E+00  1.0000000E+00
-13  1  5  5   0   0  1.1624371E+02  1.5829809E+02  1.5611932E+02  2.5088669E+02  1.8621086E-06  0.0000000E+00  1.0000000E+00
 13  1  5  5   0   0  5.6409404E+01  9.2888289E+01  1.3542199E+01  1.0951551E+02  6.6072495E-06  0.0000000E+00  1.0000000E+00
</event>
<event>
9 100 1.0000000E+00 1.0000000E+03 7.8125000E-03 0.0000000E+00
 21 -1  0  0 501 502  0.0000000E+00  0.0000000E+00  3.8013628E+03  3.8013628E+03  0.0000000E+00  0.0000000E+00  1.0000000E+00
 21 -1  0  0 502 501  0.0000000E+00  0.0000000E+00 -6.5821374E+01  6.5821374E+01  0.0000000E+00  0.0000000E+00  1.0000000E+00
 39  2  1  2   0   0 -2.6318503E-11  4.9027449E-12  3.7355414E+03  3.8671842E+03  1.0004218E+03  0.0000000E+00  1.0000000E+00
 23  2  3  3   0   0 -3.5643073E+02  6.6643874E+01  3.1538341E+03  3.1755516E+03  7.7292771E+01  0.0000000E+00  1.0000000E+00
 23  2  3  3   0   0  3.5643073E+02 -6.6643874E+01  5.8170737E+02  6.9163262E+02  9.2130039E+01  0.0000000E+00  1.0000000E+00
-11  1  4  4   0   0 -3.1298282E+02  3.5553899E+01  2.5564256E+03  2.5757589E+03  7.6293945E-06  0.0000000E+00  1.0000000E+00
 11  1  4  4   0   0 -4.3447905E+01  3.1089975E+01  5.9740851E+02  5.9979266E+02  9.1552734E-05  0.0000000E+00  1.0000000E+00
-13  1  5  5   0   0  3.0992960E+02 -7.6844108E+01  5.4445353E+02  6.3118224E+02  6.0315660E-06  0.0000000E+00  1.0000000E+00
 13  1  5  5   0   0  4.6501126E+01  1.0200234E+01  3.7253841E+01  6.0450378E+01  3.8902432E-05  0.0000000E+00  1.0000000E+00
</event>
<event>
9 100 1.0000000E+00 1.0000000E+03 7.8125000E-03 0.0000000E+00
 21 -1  0  0 501 502  0.0000000E+00  0.0000000E+00  8.1640659E+02  8.1640659E+02  0.0000000E+00  0.0000000E+00  1.0000000E+00
 21 -1  0  0 502 501  0.0000000E+00  0.0000000E+00 -3.1166449E+02  3.1166449E+02  0.0000000E+00  0.0000000E+00  1.0000000E+00
 39  2  1  2   0   0  7.6738615E-13 -1.5347723E-12  5.0474209E+02  1.1280711E+03  1.0088507E+03  0.0000000E+00  1.0000000E+00
 23  2  3  3   0   0  1.9043311E+02 -4.1374764E+02  4.7232403E+02  6.6226894E+02  8.9767931E+01  0.0000000E+00  1.0000000E+00
 23  2  3  3   0   0 -1.9043311E+02  4.1374764E+02  3.2418062E+01  4.6580214E+02  9.2026228E+01  0.0000000E+00  1.0000000E+00
-11  1  4  4   0   0  4.7459031E+01 -4.0033021E+01  8.6046195E+01  1.0610820E+02  1.3214499E-05  0.0000000E+00  1.0000000E+00
 11  1  4  4   0   0  1.4297407E+02 -3.7371462E+02  3.8627784E+02  5.5616074E+02  3.6935647E-06  0.0000000E+00  1.0000000E+00
-13  1  5  5   0   0 -1.8899075E+02  3.4559531E+02  4.5086349E+01  3.9646741E+02  3.7012517E-06  0.0000000E+00  1.0000000E+00
 13  1  5  5   0   0 -1.4423530E+00  6.8152327E+01 -1.2668286E+01  6.9334735E+01  1.6331238E-05  0.0000000E+00  1.0000000E+00
</event>
<event>
9 100 1.0000000E+00 1.0000000E+03 7.8125000E-03 0.0000000E+00
 21 -1  0  0 501 502  0.0000000E+00  0.0000000E+00  1.4378268E+02  1.4378268E+02  0.0000000E+00  0.0000000E+00  1.0000000E+00
 21 -1  0  0 502 501  0.0000000E+00  0.0000000E+00 -1.5477413E+03  1.5477413E+03  0.0000000E+00  0.0000000E+00  1.0000000E+00
 39  2  1  2   0   0  2.6716407E-12  1.2789769E-12 -1.4039586E+03  1.6915240E+03  9.4347949E+02  0.0000000E+00  1.0000000E+00
 23  2  3  3   0   0 -4.0569184E+02 -1.9842699E+02 -5.3825151E+02  7.1105671E+02  1.0921453E+02  0.0000000E+00  1.0000000E+00
 23  2  3  3   0   0  4.0569184E+02  1.9842699E+02 -8.6570710E+02  9.8046726E+02  8.8927557E+01  0.0000000E+00  1.0000000E+00
-11  1  4  4   0   0 -1.5819195E+02 -1.1782036E+02 -2.9448223E+02  3.5443774E+02  1.8492431E-05  0.0000000E+00  1.0000000E+00
 11  1  4  4   0   0 -2.4749989E+02 -8.0606633E+01 -2.4376928E+02  3.5661897E+02  1.8294645E-05  0.0000000E+00  1.0000000E+00
-13  1  5  5   0   0  3.9116928E+02  1.7411916E+02 -7.7461689E+02  8.8507752E+02  7.1366451E-06  0.0000000E+00  1.0000000E+00
 13  1  5  5   0   0  1.4522568E+01  2.4307827E+01 -9.1090214E+01  9.5389741E+01  3.4119690E-05  0.0000000E+00  1.0000000E+00
</event>
<event>
9 100 1.0000000E+00 1.0000000E+03 7.8125000E-03 0.0000000E+00
 21 -1  0  0 501 502  0.0000000E+00  0.0000000E+00  4.6488033E+02  4.6488033E+02  0.0000000E+00  0.0000000E+00  1.0000000E+00
 21 -1  0  0 502 501  0.0000000E+00  0.0000000E+00 -5.3659325E+02  5.3659325E+02  0.0000000E+00  0.0000000E+00  1.0000000E+00
 39  2  1  2   0   0 -3.4106051E-13  9.9475983E-14 -7.1712919E+01  1.0014736E+03  9.9890269E+02  0.0000000E+00  1.0000000E+00
 23  2  3  3   0   0 -4.1517803E+02  1.0573529E+02 -2.7346910E+02  5.1900839E+02  1.0503152E+02  0.0000000E+00  1.0000000E+00
 23  2  3  3   0   0  4.1517803E+02 -1.0573529E+02  2.0175618E+02  4.8246518E+02  9.2273242E+01  0.0000000E+00  1.0000000E+00
-11  1  4  4   0   0 -3.2557693E+02  5.8803114E+01 -1.6163404E+02  3.6821693E+02  5.3947966E-06  0.0000000E+00  1.0000000E+00
 11  1  4  4   0   0 -8.9601095E+01  4.6932175E+01 -1.1183506E+02  1.5079146E+02  1.2507321E-05  0.0000000E+00  1.0000000E+00
-13  1  5  5   0   0  3.6431258E+02 -1.2301428E+02  1.7576740E+02  4.2278877E+02  2.0230487E-06  0.0000000E+00  1.0000000E+00
 13  1  5  5   0   0  5.0865449E+01  1.7278988E+01  2.5988778E+01  5.9676411E+01  6.8770433E-06  0.0000000E+00  1.0000000E+00
</event>
<event>
9 100 1.0000000E+00 1.0000000E+03 7.8125000E-03 0.0000000E+00
 21 -1  0  0 501 502  0.0000000E+00  0.0000000E+00  4.1711957E+02  4.1711957E+02  0.0000000E+00  0.0000000E+00  1.0000000E+00
 21 -1  0  0 502 501  0.0000000E+00  0.0000000E+00 -6.0071252E+02  6.0071252E+02  0.0000000E+00  0.0000000E+00  1.0000000E+00
 39  2  1  2   0   0  1.9895197E-13  1.9895197E-13 -1.8359294E+02  1.0178321E+03  1.0011373E+03  0.0000000E+00  1.0000000E+00
 23  2  3  3   0   0  2.1016925E+02  2.2762100E+02 -4.8134445E+02  5.7898532E+02  8.6885541E+01  0.0000000E+00  1.0000000E+00
 23  2  3  3   0   0 -2.1016925E+02 -2.2762100E+02  2.9775150E+02  4.3884677E+02  8.9152072E+01  0.0000000E+00  1.0000000E+00
-11  1  4  4   0   0  2.0297701E+02  2.1307037E+02 -4.7956693E+02  5.6265717E+02  4.6932744E-07  0.0000000E+00  1.0000000E+00
 11  1  4  4   0   0  7.1922373E+00  1.4550628E+01 -1.7775160E+00  1.6328154E+01  1.0789593E-05  0.0000000E+00  1.0000000E+00
-13  1  5  5   0   0 -1.9816588E+02 -2.3561636E+02  2.8222086E+02  4.1765225E+02  1.5814899E-06  0.0000000E+00  1.0000000E+00
 13  1  5  5   0   0 -1.2003373E+01  7.9953613E+00  1.5530641E+01  2.1194518E+01  1.1444092E-05  0.0000000E+00  1.0000000E+00
</event>
<event>
9 100 1.0000000E+00 1.0000000E+03 7.8125000E-03 0.0000000E+00
 21 -1  0  0 501 502  0.0000000E+00  0.0000000E+00  6.1961303E+02  6.1961303E+02  0.0000000E+00  0.0000000E+00  1.0000000E+00
 21 -1  0  0 502 501  0.0000000E+00  0.0000000E+00 -4.1304004E+02  4.1304004E+02  0.0000000E+00  0.0000000E+00  1.0000000E+00
 39  2  1  2   0   0 -1.7053026E-13  2.2737368E-13  2.0657298E+02  1.0326531E+03  1.0117806E+03  0.0000000E+00  1.0000000E+00
 23  2  3  3   0   0  2.7341563E+02 -4.1477693E+02  8.6282823E+01  5.1358400E+02  9.7610380E+01  0.0000000E+00  1.0000000E+00
 23  2  3  3   0   0 -2.7341563E+02  4.1477693E+02  1.2029016E+02  5.1906907E+02  9.0371258E+01  0.0000000E+00  1.0000000E+00
-11  1  4  4   0   0  2.4190940E+02 -2.9103888E+02  5.9091588E+01  3.8303473E+02  4.7083897E-06  0.0000000E+00  1.0000000E+00
 11  1  4  4   0   0  3.1506228E+01 -1.2373805E+02  2.7191235E+01  1.3054927E+02  8.6358882E-06  0.0000000E+00  1.0000000E+00
-13  1  5  5   0   0 -2.1425517E+02  3.7910515E+02  9.6687931E+01  4.4606563E+02  2.4777186E-06  0.0000000E+00  1.0000000E+00
 13  1  5  5   0   0 -5.9160465E+01  3.5671782E+01  2.3602231E+01  7.3003438E+01  1.3283146E-05  0.0000000E+00  1.0000000E+00
</event>
<event>
9 100 1.0000000E+00 1.0000000E+03 7.8125000E-03 0.0000000E+00
 21 -1  0  0 501 502  0.0000000E+00  0.0000000E+00  1.8270090E+02  1.8270090E+02  0.0000000E+00  0.0000000E+00  1.0000000E+00
 21 -1  0  0 502 501  0.0000000E+00  0.0000000E+00 -1.2820713E+03  1.2820713E+03  0.0000000E+00  0.0000000E+00  1.0000000E+00
 39  2  1  2   0   0  1.8758328E-12  1.2221335E-12 -1.0993704E+03  1.4647722E+03  9.6795783E+02  0.0000000E+00  1.0000000E+00
 23  2  3  3   0   0  3.8902995E+02  2.4597322E+02 -7.3160916E+02  8.6909276E+02  9.0681467E+01  0.0000000E+00  1.0000000E+00
 23  2  3  3   0   0 -3.8902995E+02 -2.4597322E+02 -3.6776129E+02  5.9567949E+02  8.7969112E+01  0.0000000E+00  1.0000000E+00
-11  1  4  4   0   0  3.0931067E+02  1.4952897E+02 -5.5247558E+02  6.5058533E+02  6.0315660E-06  0.0000000E+00  1.0000000E+00
 11  1  4  4   0   0  7.9719284E+01  9.6444243E+01 -1.7913358E+02  2.1850743E+02  2.0185481E-05  0.0000000E+00  1.0000000E+00
-13  1  5  5   0   0 -3.6010858E+02 -2.1269983E+02 -3.5799029E+02  5.5052380E+02  1.5588637E-06  0.0000000E+00  1.0000000E+00
 13  1  5  5   0   0 -2.8921371E+01 -3.3273389E+01 -9.7709998E+00  4.5155692E+01  7.6293945E-06  0.0000000E+00  1.0000000E+00
</event>
<event>
9 100 1.0000000E+00 1.0000000E+03 7.8125000E-03 0.0000000E+00
 21 -1  0  0 501 502  0.0000000E+00  0.0000000E+00  1.2230983E+03  1.2230983E+03  0.0000000E+00  0.0000000E+00  1.0000000E+00
 21 -1  0  0 502 501  0.0000000E+00  0.0000000E+00 -2.0168943E+02  2.0168943E+02  0.0000000E+00  0.0000000E+00  1.0000000E+00
 39  2  1  2   0   0  7.8159701E-14  2.0463631E-12  1.0214089E+03  1.4247878E+03  9.9334991E+02  0.0000000E+00  1.0000000E+00
 23  2  3  3   0   0 -1.5062445E+01 -4.4205934E+02  2.1366579E+02  4.9944753E+02  9.0285217E+01  0.0000000E+00  1.0000000E+00
 23  2  3  3   0   0  1.5062445E+01  4.4205934E+02  8.0774310E+02  9.2534024E+02  9.0345452E+01  0.0000000E+00  1.0000000E+00
-11  1  4  4   0   0  2.4822934E+01 -4.0863603E+01  2.9699522E+01  5.6285644E+01  1.8094698E-05  0.0000000E+00  1.0000000E+00
 11  1  4  4   0   0 -3.9885379E+01 -4.0119574E+02  1.8396627E+02  4.4316188E+02  5.1135088E-06  0.0000000E+00  1.0000000E+00
-13  1  5  5   0   0  1.6212012E+01  3.5441708E+02  7.1223364E+02  7.9570789E+02  3.5683226E-06  0.0000000E+00  1.0000000E+00
 13  1  5  5   0   0 -1.1495672E+00  8.7642262E+01  9.5509466E+01  1.2963235E+02  2.6428998E-05  0.0000000E+00  1.0000000E+00
</event>
<event>
9 100 1.0000000E+00 1.0000000E+03 7.8125000E-03 0.0000000E+00
 21 -1  0  0 501 502  0.0000000E+00  0.0000000E+00  1.8817189E+02  1.8817189E+02  0.0000000E+00  0.0000000E+00  1.0000000E+00
 21 -1  0  0 502 501  0.0000000E+00  0.0000000E+00 -1.3736749E+03  1.3736749E+03  0.0000000E+00  0.0000000E+00  1.0000000E+00
 39  2  1  2   0   0  3.8085091E-12 -3.2116532E-12 -1.1855030E+03  1.5618467E+03  1.0168323E+03  0.0000000E+00  1.0000000E+00
 23  2  3  3   0   0 -2.0030581E+02  1.6827540E+02  6.2675862E+01  2.8326999E+02  8.8738921E+01  0.0000000E+00  1.0000000E+00
 23  2  3  3   0   0  2.0030581E+02 -1.6827540E+02 -1.2481788E+03  1.2785768E+03  9.1482807E+01  0.0000000E+00  1.0000000E+00
-11  1  4  4   0   0 -1.4818385E+02  1.6803538E+02  5.3596543E+01  2.3036261E+02  2.0784850E-06  0.0000000E+00  1.0000000E+00
 11  1  4  4   0   0 -5.2121963E+01  2.4001204E-01  9.0793189E+00  5.2907378E+01  7.9504642E-06  0.0000000E+00  1.0000000E+00
-13  1  5  5   0   0  9.4150572E+01 -3.9851280E+01 -6.3436615E+02  6.4255184E+02  1.3214499E-05  0.0000000E+00  1.0000000E+00
 13  1  5  5   0   0  1.0615524E+02 -1.2842412E+02 -6.1381267E+02  6.3602491E+02  2.1579186E-05  0.0000000E+00  1.0000000E+00
</event>
<event>
9 100 1.0000000E+00 1.0000000E+03 7.8125000E-03 0.0000000E+00
 21 -1  0  0 501 502  0.0000000E+00  0.0000000E+00  2.2647974E+02  2.2647974E+02  0.0000000E+00  0.0000000E+00  1.0000000E+00
 21 -1  0  0 502 501  0.0000000E+00  0.0000000E+00 -1.1045250E+03  1.1045250E+03  0.0000000E+00  0.0000000E+00  1.0000000E+00
 39  2  1  2   0   0 -6.3948846E-13  3.0553338E-13 -8.7804527E+02  1.3310048E+03  1.0003050E+03  0.0000000E+00  1.0000000E+00
 23  2  3  3   0   0 -1.1547482E+02  5.4832830E+01 -1.0708951E+03  1.0822353E+03  8.9865917E+01  0.0000000E+00  1.0000000E+00
 23  2  3  3   0   0  1.1547482E+02 -5.4832830E+01  1.9284984E+02  2.4876943E+02  9.1400740E+01  0.0000000E+00  1.0000000E+00
-11  1  4  4   0   0 -6.4292307E+01  5.7630207E+01 -3.9142440E+02  4.0083389E+02  1.7059845E-05  0.0000000E+00  1.0000000E+00
 11  1  4  4   0   0 -5.1182517E+01 -2.7973773E+00 -6.7947070E+02  6.8140143E+02  1.3214499E-05  0.0000000E+00  1.0000000E+00
-13  1  5  5   0   0  4.6736195E+01  1.0631880E+01  1.1966957E+02  1.2891127E+02  6.1064951E-06  0.0000000E+00  1.0000000E+00
 13  1  5  5   0   0  6.8738629E+01 -6.5464710E+01  7.3180265E+01  1.1985816E+02  4.2649612E-06  0.0000000E+00  1.0000000E+00
</event>
<event>
9 100 1.0000000E+00 1.0000000E+03 7.8125000E-03 0.0000000E+00
 21 -1  0  0 501 502  0.0000000E+00  0.0000000E+00  2.1674638E+02  2.1674638E+02  0.0000000E+00  0.0000000E+00  1.0000000E+00
 21 -1  0  0 502 501  0.0000000E+00  0.0000000E+00 -1.1661312E+03  1.1661312E+03  0.0000000E+00  0.0000000E+00  1.0000000E+00
 39  2  1  2   0   0  1.9895197E-13 -1.1368684E-13 -9.4938477E+02  1.3828775E+03  1.0054943E+03  0.0000000E+00  1.0000000E+00
 23  2  3  3   0   0 -6.9903871E+01  4.9023989E+01 -1.1534585E+03  1.1601502E+03  9.0510637E+01  0.0000000E+00  1.0000000E+00
 23  2  3  3   0   0  6.9903871E+01 -4.9023989E+01  2.0407373E+02  2.2272729E+02  2.5912409E+01  0.0000000E+00  1.0000000E+00
-11  1  4  4   0   0 -7.4245973E+01  6.9121552E+01 -1.0309086E+03  1.0358874E+03  1.3486992E-06  0.0000000E+00  1.0000000E+00
 11  1  4  4   0   0  4.3421018E+00 -2.0097563E+01 -1.2254995E+02  1.2426285E+02  3.0517578E-05  0.0000000E+00  1.0000000E+00
-13  1  5  5   0   0  2.8249496E+01 -1.1600139E+01  9.9818276E+01  1.0438527E+02  4.2649612E-06  0.0000000E+00  1.0000000E+00
 13  1  5  5   0   0  4.1654375E+01 -3.7423850E+01  1.0425546E+02  1.1834201E+02  3.0157830E-06  0.0000000E+00  1.0000000E+00
</event>
<event>
9 100 1.0000000E+00 1.0000000E+03 7.8125000E-03 0.0000000E+00
 21 -1  0  0 501 502  0.0000000E+00  0.0000000E+00  2.9528030E+02  2.9528030E+02  0.0000000E+00  0.0000000E+00  1.0000000E+00
 21 -1  0  0 502 501  0.0000000E+00  0.0000000E+00 -8.4850075E+02  8.4850075E+02  0.0000000E+00  0.0000000E+00  1.0000000E+00
 39  2  1  2   0   0 -3.4106051E-13 -7.9580786E-13 -5.5322046E+02  1.1437811E+03  1.0010905E+03  0.0000000E+00  1.0000000E+00
 23  2  3  3   0   0  1.2913397E+02  3.3069201E+02 -6.6573617E+02  7.5998325E+02  9.1307762E+01  0.0000000E+00  1.0000000E+00
 23  2  3  3   0   0 -1.2913397E+02 -3.3069201E+02  1.1251571E+02  3.8379780E+02  9.2780271E+01  0.0000000E+00  1.0000000E+00
-11  1  4  4   0   0  2.6723375E+01  7.8252881E+00 -5.0489548E+01  5.7659070E+01  2.0185481E-05  0.0000000E+00  1.0000000E+00
 11  1  4  4   0   0  1.0241059E+02  3.2286672E+02 -6.1524662E+02  7.0232418E+02  2.0230487E-06  0.0000000E+00  1.0000000E+00
-13  1  5  5   0   0 -2.1780437E+01 -1.6199008E+02  7.7113177E+01  1.8072525E+02  5.7813433E-06  0.0000000E+00  1.0000000E+00
 13  1  5  5   0   0 -1.0735353E+02 -1.6870193E+02  3.5402534E+01  2.0307255E+02  4.8628039E-06  0.0000000E+00  1.0000000E+00
</event>
<event>
9 100 1.0000000E+00 1.0000000E+03 7.8125000E-03 0.0000000E+00
 21 -1  0  0 501 502  0.0000000E+00  0.0000000E+00  7.9006395E+02  7.9006395E+02  0.0000000E+00  0.0000000E+00  1.0000000E+00
 21 -1  0  0 502 501  0.0000000E+00  0.0000000E+00 -3.0187745E+02  3.0187745E+02  0.0000000E+00  0.0000000E+00  1.0000000E+00
 39  2  1  2   0   0  5.6843419E-14  1.0800250E-12  4.8818650E+02  1.0919414E+03  9.7673433E+02  0.0000000E+00  1.0000000E+00
 23  2  3  3   0   0  2.2680885E+01  4.4485282E+02  4.4282570E+02  6.3460658E+02  9.0677746E+01  0.0000000E+00  1.0000000E+00
 23  2  3  3   0   0 -2.2680885E+01 -4.4485282E+02  4.5360800E+01  4.5733482E+02  9.3215261E+01  0.0000000E+00  1.0000000E+00
-11  1  4  4   0   0 -2.9106138E+01  1.0286942E+02  8.1626108E+01  1.3450690E+02  6.6072495E-06  0.0000000E+00  1.0000000E+00
 11  1  4  4   0   0  5.1787024E+01  3.4198340E+02  3.6119959E+02  5.0009968E+02  2.5231851E-06  0.0000000E+00  1.0000000E+00
-13  1  5  5   0   0  2.8686908E+01 -1.0828633E+02 -9.7263266E+00  1.1244318E+02  3.3717479E-06  0.0000000E+00  1.0000000E+00
 13  1  5  5   0   0 -5.1367793E+01 -3.3656649E+02  5.5087127E+01  3.4489164E+02  2.9586968E-06  0.0000000E+00  1.0000000E+00
</event>
<event>
9 100 1.0000000E+00 1.0000000E+03 7.8125000E-03 0.0000000E+00
 21 -1  0  0 501 502  0.0000000E+00  0.0000000E+00  1.7996105E+02  1.7996105E+02  0.0000000E+00  0.0000000E+00  1.0000000E+00
 21 -1  0  0 502 501  0.0000000E+00  0.0000000E+00 -1.3741093E+03  1.3741093E+03  0.0000000E+00  0.0000000E+00  1.0000000E+00
 39  2  1  2   0   0  0.0000000E+00  1.1368684E-13 -1.1941483E+03  1.5540703E+03  9.9455748E+02  0.0000000E+00  1.0000000E+00
 23  2  3  3   0   0  1.2611976E+01  3.3312255E+02 -1.1559490E+03  1.2064796E+03  9.0803342E+01  0.0000000E+00  1.0000000E+00
 23  2  3  3   0   0 -1.2611976E+01 -3.3312255E+02 -3.8199276E+01  3.4759076E+02  9.0721900E+01  0.0000000E+00  1.0000000E+00
-11  1  4  4   0   0 -2.9525497E+01  2.4575216E+02 -7.8804378E+02  8.2600174E+02  9.3440618E-06  0.0000000E+00  1.0000000E+00
 11  1  4  4   0   0  4.2137473E+01  8.7370385E+01 -3.6790519E+02  3.8047783E+02  2.6428998E-05  0.0000000E+00  1.0000000E+00
-13  1  5  5   0   0 -2.2729352E+01 -3.2363218E+02 -5.1359595E+01  3.2846951E+02  2.4196843E-06  0.0000000E+00  1.0000000E+00
 13  1  5  5   0   0  1.0117376E+01 -9.4903636E+00  1.3160319E+01  1.9121253E+01  1.3402433E-05  0.0000000E+00  1.0000000E+00
</event>
<event>
9 100 1.0000000E+00 1.0000000E+03 7.8125000E-03 0.0000000E+00
 21 -1  0  0 501 502  0.0000000E+00  0.0000000E+00  3.4198159E+02  3.4198159E+02  0.0000000E+00  0.0000000E+00  1.0000000E+00
 21 -1  0  0 502 501  0.0000000E+00  0.0000000E+00 -7.3997678E+02  7.3997678E+02  0.0000000E+00  0.0000000E+00  1.0000000E+00
 39  2  1  2   0   0 -7.8159701E-14 -4.6185278E-14 -3.9799519E+02  1.0819584E+03  1.0060983E+03  0.0000000E+00  1.0000000E+00
 23  2  3  3   0   0 -2.1609393E+01 -1.2372218E+01 -7.3040763E+02  7.3641910E+02  9.0541426E+01  0.0000000E+00  1.0000000E+00
 23  2  3  3   0   0  2.1609393E+01  1.2372218E+01  3.3241244E+02  3.4553927E+02  9.0990772E+01  0.0000000E+00  1.0000000E+00
-11  1  4  4   0   0 -4.8042111E+01 -4.5103833E+00 -6.4198547E+02  6.4379634E+02  1.9073486E-06  0.0000000E+00  1.0000000E+00
 11  1  4  4   0   0  2.6432718E+01 -7.8618344E+00 -8.8422160E+01  9.2622759E+01  1.0789593E-05  0.0000000E+00  1.0000000E+00
-13  1  5  5   0   0  7.3254530E+00  3.9553593E+01  6.5497909E+01  7.6864329E+01  8.5299224E-06  0.0000000E+00  1.0000000E+00
 13  1  5  5   0   0  1.4283940E+01 -2.7181375E+01  2.6691453E+02  2.6867494E+02  2.6973983E-06  0.0000000E+00  1.0000000E+00
</event>
<event>
9 100 1.0000000E+00 1.0000000E+03 7.8125000E-03 0.0000000E+00
 21 -1  0  0 501 502  0.0000000E+00  0.0000000E+00  6.4516153E+02  6.4516153E+02  0.0000000E+00  0.0000000E+00  1.0000000E+00
 21 -1  0  0 502 501  0.0000000E+00  0.0000000E+00 -3.9248464E+02  3.9248464E+02  0.0000000E+00  0.0000000E+00  1.0000000E+00
 39  2  1  2   0   0 -4.5474735E-13 -2.1600499E-12  2.5267690E+02  1.0376462E+03  1.0064114E+03  0.0000000E+00  1.0000000E+00
 23  2  3  3   0   0  8.5713471E+01  4.1582257E+02 -1.3557717E+02  4.5514395E+02  9.2301868E+01  0.0000000E+00  1.0000000E+00
 23  2  3  3   0   0 -8.5713471E+01 -4.1582257E+02  3.8825406E+02  5.8250222E+02  9.1172439E+01  0.0000000E+00  1.0000000E+00
-11  1  4  4   0   0  6.0074402E+01  9.6879466E+01 -4.5457908E+01  1.2272321E+02  1.6379894E-05  0.0000000E+00  1.0000000E+00
 11  1  4  4   0   0  2.5639069E+01  3.1894311E+02 -9.0119257E+01  3.3242074E+02  6.3974418E-06  0.0000000E+00  1.0000000E+00
-13  1  5  5   0   0 -9.0332689E+01 -4.1528585E+02  3.6944534E+02  5.6312716E+02  2.3360155E-06  0.0000000E+00  1.0000000E+00
 13  1  5  5   0   0  4.6192176E+00 -5.3671693E-01  1.8808717E+01  1.9375063E+01  1.7059845E-05  0.0000000E+00  1.0000000E+00
</event>
<event>
9 100 1.0000000E+00 1.0000000E+03 7.8125000E-03 0.0000000E+00
 21 -1  0  0 501 502  0.0000000E+00  0.0000000E+00  5.4687341E+02  5.4687341E+02  0.0000000E+00  0.0000000E+00  1.0000000E+00
 21 -1  0  0 502 501  0.0000000E+00  0.0000000E+00 -4.6189851E+02  4.6189851E+02  0.0000000E+00  0.0000000E+00  1.0000000E+00
 39  2  1  2   0   0  1.4210855E-13  1.9895197E-13  8.4974908E+01  1.0087719E+03  1.0051866E+03  0.0000000E+00  1.0000000E+00
 23  2  3  3   0   0 -1.9003981E+02 -2.2198301E+02  4.4284004E+02  5.3829347E+02  9.0889917E+01  0.0000000E+00  1.0000000E+00
 23  2  3  3   0   0  1.9003981E+02  2.2198301E+02 -3.5786513E+02  4.7047845E+02  8.8830904E+01  0.0000000E+00  1.0000000E+00
-11  1  4  4   0   0 -1.8933129E+02 -1.9834465E+02  4.3334257E+02  5.1280866E+02  1.6214216E-06  0.0000000E+00  1.0000000E+00
 11  1  4  4   0   0 -7.0852361E-01 -2.3638352E+01  9.4974669E+00  2.5484811E+01  1.4273290E-05  0.0000000E+00  1.0000000E+00
-13  1  5  5   0   0 -6.5564274E+00  2.3149896E+01 -1.6315262E+01  2.9070470E+01  1.2063132E-05  0.0000000E+00  1.0000000E+00
 13  1  5  5   0   0  1.9659624E+02  1.9883311E+02 -3.4154987E+02  4.4140798E+02  8.5963041E-07  0.0000000E+00  1.0000000E+00
</event>
<event>
9 100 1.0000000E+00 1.0000000E+03 7.8125000E-03 0.0000000E+00
 21 -1  0  0 501 502  0.0000000E+00  0.0000000E+00  2.7839130E+02  2.7839130E+02  0.0000000E+00  0.0000000E+00  1.0000000E+00
 21 -1  0  0 502 501  0.0000000E+00  0.0000000E+00 -8.7482029E+02  8.7482029E+02  0.0000000E+00  0.0000000E+00  1.0000000E+00
 39  2  1  2   0   0  4.5474735E-13 -1.0231815E-12 -5.9642899E+02  1.1532116E+03  9.8700021E+02  0.0000000E+00  1.0000000E+00
 23  2  3  3   0   0  1.9811765E+02 -4.4268197E+02 -2.9969337E+02  5.7741138E+02  9.1486949E+01  0.0000000E+00  1.0000000E+00
 23  2  3  3   0   0 -1.9811765E+02  4.4268197E+02 -2.9673563E+02  5.7580021E+02  9.0972070E+01  0.0000000E+00  1.0000000E+00
-11  1  4  4   0   0  9.6839637E+01 -2.4718890E+02 -1.1216808E+02  2.8820469E+02  1.0446979E-05  0.0000000E+00  1.0000000E+00
 11  1  4  4   0   0  1.0127801E+02 -1.9549307E+02 -1.8752528E+02  2.8920669E+02  8.7405695E-06  0.0000000E+00  1.0000000E+00
-13  1  5  5   0   0 -1.1591789E+01  1.5159432E+01 -3.7708828E+01  4.2262675E+01  1.0789593E-05  0.0000000E+00  1.0000000E+00
 13  1  5  5   0   0 -1.8652586E+02  4.2752253E+02 -2.5902680E+02  5.3353753E+02  2.8610229E-06  0.0000000E+00  1.0000000E+00
</event>
<event>
9 100 1.0000000E+00 1.0000000E+03 7.8125000E-03 0.0000000E+00
 21 -1  0  0 501 502  0.0000000E+00  0.0000000E+00  1.6616048E+02  1.6616048E+02  0.0000000E+00  0.0000000E+00  1.0000000E+00
 21 -1  0  0 502 501  0.0000000E+00  0.0000000E+00 -1.5696120E+03  1.5696120E+03  0.0000000E+00  0.0000000E+00  1.0000000E+00
 39  2  1  2   0   0 -1.2221335E-12  2.2168933E-12 -1.4034515E+03  1.7357725E+03  1.0213863E+03  0.0000000E+00  1.0000000E+00
 23  2  3  3   0   0  1.8752543E+02 -3.5390560E+02 -1.8617750E+02  4.5101864E+02  9.1327945E+01  0.0000000E+00  1.0000000E+00
 23  2  3  3   0   0 -1.8752543E+02  3.5390560E+02 -1.2172740E+03  1.2847538E+03  9.1768140E+01  0.0000000E+00  1.0000000E+00
-11  1  4  4   0   0  1.1636488E+02 -2.9563005E+02 -1.5796841E+02  3.5481253E+02  8.5099069E-06  0.0000000E+00  1.0000000E+00
 11  1  4  4   0   0  7.1160551E+01 -5.8275552E+01 -2.8209090E+01  9.6206116E+01  2.4425981E-05  0.0000000E+00  1.0000000E+00
-13  1  5  5   0   0  8.4939763E+00  3.8768025E+01 -1.2539394E+02  1.3152471E+02  3.4119690E-05  0.0000000E+00  1.0000000E+00
 13  1  5  5   0   0 -1.9601941E+02  3.1513758E+02 -1.0918801E+03  1.1532291E+03  5.8788433E-06  0.0000000E+00  1.0000000E+00
</event>
<event>
9 100 1.0000000E+00 1.0000000E+03 7.8125000E-03 0.0000000E+00
 21 -1  0  0 501 502  0.0000000E+00  0.0000000E+00  1.5807595E+03  1.5807595E+03  0.0000000E+00  0.0000000E+00  1.0000000E+00
 21 -1  0  0 502 501  0.0000000E+00  0.0000000E+00 -1.5810465E+02  1.5810465E+02  0.0000000E+00  0.0000000E+00  1.0000000E+00
 39  2  1  2   0   0 -3.0411229E-12 -1.9753088E-12  1.4226548E+03  1.7388641E+03  9.9985082E+02  0.0000000E+00  1.0000000E+00
 23  2  3  3   0   0 -1.3569443E+02 -8.8668619E+01  1.5183075E+03  1.5296838E+03  9.1649229E+01  0.0000000E+00  1.0000000E+00
 23  2  3  3   0   0  1.3569443E+02  8.8668619E+01 -9.5652732E+01  2.0918032E+02  9.1279017E+01  0.0000000E+00  1.0000000E+00
-11  1  4  4   0   0 -1.1988269E+02 -1.0619632E+02  1.3926088E+03  1.4017877E+03  0.0000000E+00  0.0000000E+00  1.0000000E+00
 11  1  4  4   0   0 -1.5811740E+01  1.7527702E+01  1.2569878E+02  1.2789611E+02  0.0000000E+00  0.0000000E+00  1.0000000E+00
-13  1  5  5   0   0  1.0258539E+02  7.8958148E+01 -1.1183461E+02  1.7107054E+02  3.0439246E-06  0.0000000E+00  1.0000000E+00
 13  1  5  5   0   0  3.3109040E+01  9.7104714E+00  1.6181878E+01  3.8109775E+01  8.0921949E-06  0.0000000E+00  1.0000000E+00
</event>
<event>
9 100 1.0000000E+00 1.0000000E+03 7.8125000E-03 0.0000000E+00
 21 -1  0  0 501 502  0.0000000E+00  0.0000000E+00  1.6683072E+02  1.6683072E+02  0.0000000E+00  0.0000000E+00  1.0000000E+00
 21 -1  0  0 502 501  0.0000000E+00  0.0000000E+00 -1.4032397E+03  1.4032397E+03  0.0000000E+00  0.0000000E+00  1.0000000E+00
 39  2  1  2   0   0 -1.5489832E-12  4.0643044E-12 -1.2364090E+03  1.5700705E+03  9.6768486E+02  0.0000000E+00  1.0000000E+00
 23  2  3  3   0   0 -7.5155056E+01  1.9802304E+02 -1.3087911E+03  1.3289700E+03  9.1465018E+01  0.0000000E+00  1.0000000E+00
 23  2  3  3   0   0  7.5155056E+01 -1.9802304E+02  7.2382041E+01  2.4110045E+02  8.9603916E+01  0.0000000E+00  1.0000000E+00
-11  1  4  4   0   0 -1.3848522E+01  7.8160502E+01 -2.6802168E+02  2.7952901E+02  3.0517578E-05  0.0000000E+00  1.0000000E+00
 11  1  4  4   0   0 -6.1306534E+01  1.1986254E+02 -1.0407694E+03  1.0494410E+03  1.0092740E-05  0.0000000E+00  1.0000000E+00
-13  1  5  5   0   0  4.0689018E+01 -7.3679235E+01 -1.4686903E+01  8.5439633E+01  9.0473490E-06  0.0000000E+00  1.0000000E+00
 13  1  5  5   0   0  3.4466038E+01 -1.2434380E+02  8.7068945E+01  1.5566082E+02  6.0292094E-06  0.0000000E+00  1.0000000E+00
</event>
<event>
9 100 1.0000000E+00 1.0000000E+03 7.8125000E-03 0.0000000E+00
 21 -1  0  0 501 502  0.0000000E+00  0.0000000E+00  1.5032103E+02  1.5032103E+02  0.0000000E+00  0.0000000E+00  1.0000000E+00
 21 -1  0  0 502 501  0.0000000E+00  0.0000000E+00 -1.6802114E+03  1.6802114E+03  0.0000000E+00  0.0000000E+00  1.0000000E+00
 39  2  1  2   0   0 -4.8316906E-12 -4.7464255E-12 -1.5298904E+03  1.8305325E+03  1.0051291E+03  0.0000000E+00  1.0000000E+00
 23  2  3  3   0   0 -2.0358174E+02 -1.9930227E+02 -1.5004687E+03  1.5298973E+03  8.9513133E+01  0.0000000E+00  1.0000000E+00
 23  2  3  3   0   0  2.0358174E+02  1.9930227E+02 -2.9421688E+01  3.0063512E+02  9.1372437E+01  0.0000000E+00  1.0000000E+00
-11  1  4  4   0   0 -1.6350752E+02 -1.8639141E+02 -1.1205931E+03  1.1476957E+03  1.0789593E-05  0.0000000E+00  1.0000000E+00
 11  1  4  4   0   0 -4.0074218E+01 -1.2910857E+01 -3.7987559E+02  3.8220165E+02  1.5258789E-05  0.0000000E+00  1.0000000E+00
-13  1  5  5   0   0  1.2930708E+02  6.6706471E+01  1.6556508E+00  1.4550881E+02  5.9652309E-06  0.0000000E+00  1.0000000E+00
 13  1  5  5   0   0  7.4274663E+01  1.3259580E+02 -3.1077339E+01  1.5512631E+02  6.5881335E-06  0.0000000E+00  1.0000000E+00
</event>
<event>
9 100 1.0000000E+00 1.0000000E+03 7.8125000E-03 0.0000000E+00
 21 -1  0  0 501 502  0.0000000E+00  0.0000000E+00  1.9792170E+02  1.9792170E+02  0.0000000E+00  0.0000000E+00  1.0000000E+00
 21 -1  0  0 502 501  0.0000000E+00  0.0000000E+00 -1.2725155E+03  1.2725155E+03  0.0000000E+00  0.0000000E+00  1.0000000E+00
 39  2  1  2   0   0 -1.6484591E-12 -2.0463631E-12 -1.0745938E+03  1.4704372E+03  1.0037100E+03  0.0000000E+00  1.0000000E+00
 23  2  3  3   0   0 -2.3656229E+02 -2.8944803E+02 -6.5141024E+01  3.8983095E+02  8.9347282E+01  0.0000000E+00  1.0000000E+00
 23  2  3  3   0   0  2.3656229E+02  2.8944803E+02 -1.0094528E+03  1.0806063E+03  9.4726347E+01  0.0000000E+00  1.0000000E+00
-11  1  4  4   0   0 -2.1409976E+02 -2.0689726E+02 -6.2586931E+01  3.0424054E+02  4.4757096E-06  0.0000000E+00  1.0000000E+00
 11  1  4  4   0   0 -2.2462533E+01 -8.2550766E+01 -2.5540929E+00  8.5590407E+01  3.9320999E-06  0.0000000E+00  1.0000000E+00
-13  1  5  5   0   0  1.9165243E+02  1.6442020E+02 -6.4201737E+02  6.8989200E+02  1.0789593E-05  0.0000000E+00  1.0000000E+00
 13  1  5  5   0   0  4.4909855E+01  1.2502783E+02 -3.6743543E+02  3.9071428E+02  2.4126264E-05  0.0000000E+00  1.0000000E+00
</event>
<event>
9 100 1.0000000E+00 1.0000000E+03 7.8125000E-03 0.0000000E+00
 21 -1  0  0 501 502  0.0000000E+00  0.0000000E+00  3.8293977E+02  3.8293977E+02  0.0000000E+00  0.0000000E+00  1.0000000E+00
 21 -1  0  0 502 501  0.0000000E+00  0.0000000E+00 -6.5505308E+02  6.5505308E+02  0.0000000E+00  0.0000000E+00  1.0000000E+00
 39  2  1  2   0   0  2.7000624E-13 -1.3642421E-12 -2.7211332E+02  1.0379928E+03  1.0016903E+03  0.0000000E+00  1.0000000E+00
 23  2  3  3   0   0  8.6501256E+01 -4.1421550E+02  1.1135933E+02  4.5968974E+02  1.4091420E+02  0.0000000E+00  1.0000000E+00
 23  2  3  3   0   0 -8.6501256E+01  4.1421550E+02 -3.8347264E+02  5.7830311E+02  9.1248411E+01  0.0000000E+00  1.0000000E+00
-11  1  4  4   0   0  9.2609890E+01 -3.6011093E+02  4.6063223E+01  3.7467091E+02  4.7683716E-06  0.0000000E+00  1.0000000E+00
 11  1  4  4   0   0 -6.1086346E+00 -5.4104568E+01  6.5296106E+01  8.5018828E+01  8.6621771E-06  0.0000000E+00  1.0000000E+00
-13  1  5  5   0   0 -3.1018324E+01  4.3867229E+01 -2.2748855E+01  5.8343643E+01  1.3214499E-05  0.0000000E+00  1.0000000E+00
 13  1  5  5   0   0 -5.5482931E+01  3.7034827E+02 -3.6072379E+02  5.1995947E+02  2.3602235E-06  0.0000000E+00  1.0000000E+00
</event>
<event>
9 100 1.0000000E+00 1.0000000E+03 7.8125000E-03 0.0000000E+00
 21 -1  0  0 501 502  0.0000000E+00  0.0000000E+00  3.1133733E+02  3.1133733E+02  0.0000000E+00  0.0000000E+00  1.0000000E+00
 21 -1  0  0 502 501  0.0000000E+00  0.0000000E+00 -8.9498547E+02  8.9498547E+02  0.0000000E+00  0.0000000E+00  1.0000000E+00
 39  2  1  2   0   0  7.2475359E-13  6.1106675E-13 -5.8364814E+02  1.2063228E+03  1.0557318E+03  0.0000000E+00  1.0000000E+00
 23  2  3  3   0   0  1.1596354E+02  9.5272291E+01 -8.6024452E+02  8.7794289E+02  9.0767483E+01  0.0000000E+00  1.0000000E+00
 23  2  3  3   0   0 -1.1596354E+02 -9.5272291E+01  2.7659638E+02  3.2837990E+02  9.3826691E+01  0.0000000E+00  1.0000000E+00
-11  1  4  4   0   0  2.5622916E+01  4.7744717E+01 -5.1725009E+02  5.2008052E+02  3.8146973E-06  0.0000000E+00  1.0000000E+00
 11  1  4  4   0   0  9.0340622E+01  4.7527573E+01 -3.4299443E+02  3.5786237E+02  1.0789593E-05  0.0000000E+00  1.0000000E+00
-13  1  5  5   0   0  1.4065639E+00  1.8495610E-02  8.1741790E+01  8.1753893E+01  4.6720309E-06  0.0000000E+00  1.0000000E+00
 13  1  5  5   0   0 -1.1737010E+02 -9.5290786E+01  1.9485459E+02  2.4662601E+02  2.6973983E-06  0.0000000E+00  1.0000000E+00
</event>
<event>
9 100 1.0000000E+00 1.0000000E+03 7.8125000E-03 0.0000000E+00
 21 -1  0  0 501 502  0.0000000E+00  0.0000000E+00  9.7235001E+02  9.7235001E+02  0.0000000E+00  0.0000000E+00  1.0000000E+00
 21 -1  0  0 502 501  0.0000000E+00  0.0000000E+00 -2.4562221E+02  2.4562221E+02  0.0000000E+00  0.0000000E+00  1.0000000E+00
 39  2  1  2   0   0 -1.0658141E-13  3.9790393E-13  7.2672780E+02  1.2179722E+03  9.7740627E+02  0.0000000E+00  1.0000000E+00
 23  2  3  3   0   0 -4.6008923E+01  1.5296141E+02  9.2850493E+02  9.4681696E+02  9.3951702E+01  0.0000000E+00  1.0000000E+00
 23  2  3  3   0   0  4.6008923E+01 -1.5296141E+02 -2.0177713E+02  2.7115526E+02  8.5423367E+01  0.0000000E+00  1.0000000E+00
-11  1  4  4   0   0 -2.9737202E+01  1.2570754E+02  4.7651142E+02  4.9371025E+02  7.6293945E-06  0.0000000E+00  1.0000000E+00
 11  1  4  4   0   0 -1.6271721E+01  2.7253869E+01  4.5199352E+02  4.5310670E+02  1.3214499E-05  0.0000000E+00  1.0000000E+00
-13  1  5  5   0   0 -1.8773226E+01 -8.0250868E+01 -1.0900389E+02  1.3665462E+02  7.8641999E-06  0.0000000E+00  1.0000000E+00
 13  1  5  5   0   0  6.4782149E+01 -7.2710538E+01 -9.2773241E+01  1.3450064E+02  9.3440618E-06  0.0000000E+00  1.0000000E+00
</event>
<event>
9 100 1.0000000E+00 1.0000000E+03 7.8125000E-03 0.0000000E+00
 21 -1  0  0 501 502  0.0000000E+00  0.0000000E+00  9.8809624E+02  9.8809624E+02  0.0000000E+00  0.0000000E+00  1.0000000E+00
 21 -1  0  0 502 501  0.0000000E+00  0.0000000E+00 -2.5009567E+02  2.5009567E+02  0.0000000E+00  0.0000000E+00  1.0000000E+00
 39  2  1  2   0   0 -2.3305802E-12 -1.4779289E-12  7.3800057E+02  1.2381919E+03  9.9422048E+02  0.0000000E+00  1.0000000E+00
 23  2  3  3   0   0  2.8550076E+02  1.8168728E+02 -6.9057520E+01  3.5780919E+02  9.3474741E+01  0.0000000E+00  1.0000000E+00
 23  2  3  3   0   0 -2.8550076E+02 -1.8168728E+02  8.0705809E+02  8.8038272E+02  9.5968837E+01  0.0000000E+00  1.0000000E+00
-11  1  4  4   0   0  3.4044747E+01  5.7229265E+01 -3.4857757E+01  7.5161804E+01  1.4781952E-05  0.0000000E+00  1.0000000E+00
 11  1  4  4   0   0  2.5145601E+02  1.2445802E+02 -3.4199763E+01  2.8264739E+02  4.5236745E-06  0.0000000E+00  1.0000000E+00
-13  1  5  5   0   0 -2.0035860E+02 -7.2051108E+01  4.8391547E+02  5.2868621E+02  1.5728400E-05  0.0000000E+00  1.0000000E+00
 13  1  5  5   0   0 -8.5142157E+01 -1.0963618E+02  3.2314262E+02  3.5169650E+02  2.0893957E-05  0.0000000E+00  1.0000000E+00
</event>
<event>
9 100 1.0000000E+00 1.0000000E+03 7.8125000E-03 0.0000000E+00
 21 -1  0  0 501 502  0.0000000E+00  0.0000000E+00  1.7875565E+02  1.7875565E+02  0.0000000E+00  0.0000000E+00  1.0000000E+00
 21 -1  0  0 502 501  0.0000000E+00  0.0000000E+00 -1.3695601E+03  1.3695601E+03  0.0000000E+00  0.0000000E+00  1.0000000E+00
 39  2  1  2   0   0 -2.9274361E-12  4.0927262E-12 -1.1908045E+03  1.5483158E+03  9.8957892E+02  0.0000000E+00  1.0000000E+00
 23  2  3  3   0   0 -2.2733050E+02  3.2018707E+02 -1.0425873E+03  1.1192638E+03  1.0753781E+02  0.0000000E+00  1.0000000E+00
 23  2  3  3   0   0  2.2733050E+02 -3.2018707E+02 -1.4821717E+02  4.2905192E+02  8.8984844E+01  0.0000000E+00  1.0000000E+00
-11  1  4  4   0   0 -1.6566666E+02  1.7621320E+02 -7.4035224E+02  7.7885684E+02  1.3754087E-05  0.0000000E+00  1.0000000E+00
 11  1  4  4   0   0 -6.1663840E+01  1.4397387E+02 -3.0223504E+02  3.4040700E+02  3.0517578E-05  0.0000000E+00  1.0000000E+00
-13  1  5  5   0   0  6.3197733E+01 -1.4280194E+02 -2.6267436E+01  1.5835506E+02  7.5092391E-06  0.0000000E+00  1.0000000E+00
 13  1  5  5   0   0  1.6413277E+02 -1.7738513E+02 -1.2194974E+02  2.7069686E+02  1.6518124E-06  0.0000000E+00  1.0000000E+00
</event>
<event>
9 100 1.0000000E+00 1.0000000E+03 7.8125000E-03 0.0000000E+00
 21 -1  0  0 501 502  0.0000000E+00  0.0000000E+00  1.4613861E+02  1.4613861E+02  0.0000000E+00  0.0000000E+00  1.0000000E+00
 21 -1  0  0 502 501  0.0000000E+00  0.0000000E+00 -1.4379985E+03  1.4379985E+03  0.0000000E+00  0.0000000E+00  1.0000000E+00
 39  2  1  2   0   0  9.9475983E-14  1.0658141E-13 -1.2918599E+03  1.5841372E+03  9.1683611E+02  0.0000000E+00  1.0000000E+00
 23  2  3  3   0   0  3.6115135E+01  3.0526095E+01  1.2581574E+02  1.6271632E+02  9.1710712E+01  0.0000000E+00  1.0000000E+00
 23  2  3  3   0   0 -3.6115135E+01 -3.0526095E+01 -1.4176757E+03  1.4214208E+03  9.1633828E+01  0.0000000E+00  1.0000000E+00
-11  1  4  4   0   0  4.2925712E+01  5.1238598E+01  1.2396056E+02  1.4083405E+02  2.7743385E-06  0.0000000E+00  1.0000000E+00
 11  1  4  4   0   0 -6.8105767E+00 -2.0712502E+01  1.8551766E+00  2.1882262E+01  7.6293945E-06  0.0000000E+00  1.0000000E+00
-13  1  5  5   0   0 -5.7336346E+01 -1.5935898E+01 -5.2302946E+02  5.2640405E+02  1.5258789E-05  0.0000000E+00  1.0000000E+00
 13  1  5  5   0   0  2.1221211E+01 -1.4590197E+01 -8.9464621E+02  8.9501679E+02  1.3214499E-05  0.0000000E+00  1.0000000E+00
</event>
<event>
9 100 1.0000000E+00 1.0000000E+03 7.8125000E-03 0.0000000E+00
 21 -1  0  0 501 502  0.0000000E+00  0.0000000E+00  7.6425223E+02  7.6425223E+02  0.0000000E+00  0.0000000E+00  1.0000000E+00
 21 -1  0  0 502 501  0.0000000E+00  0.0000000E+00 -3.2725301E+02  3.2725301E+02  0.0000000E+00  0.0000000E+00  1.0000000E+00
 39  2  1  2   0   0 -4.8316906E-13 -1.2505552E-12  4.3699922E+02  1.0915052E+03  1.0002077E+03  0.0000000E+00  1.0000000E+00
 23  2  3  3   0   0  1.6560941E+02  4.2370271E+02  1.1311850E+01  4.6302226E+02  8.5505508E+01  0.0000000E+00  1.0000000E+00
 23  2  3  3   0   0 -1.6560941E+02 -4.2370271E+02  4.2568738E+02  6.2848298E+02  8.2647762E+01  0.0000000E+00  1.0000000E+00
-11  1  4  4   0   0  1.5315606E+02  2.9475123E+02  2.2886917E+01  3.3295477E+02  1.7438816E-06  0.0000000E+00  1.0000000E+00
 11  1  4  4   0   0  1.2453347E+01  1.2895148E+02 -1.1575068E+01  1.3006749E+02  6.0597730E-06  0.0000000E+00  1.0000000E+00
-13  1  5  5   0   0 -1.2365688E+01 -1.3979742E+01  8.3452401E-01  1.8682608E+01  5.3947966E-06  0.0000000E+00  1.0000000E+00
 13  1  5  5   0   0 -1.5324372E+02 -4.0972297E+02  4.2485285E+02  6.0980037E+02  1.0603933E-06  0.0000000E+00  1.0000000E+00
</event>
<event>
9 100 1.0000000E+00 1.0000000E+03 7.8125000E-03 0.0000000E+00
 21 -1  0  0 501 502  0.0000000E+00  0.0000000E+00  1.1395912E+03  1.1395912E+03  0.0000000E+00  0.0000000E+00  1.0000000E+00
 21 -1  0  0 502 501  0.0000000E+00  0.0000000E+00 -2.1456103E+02  2.1456103E+02  0.0000000E+00  0.0000000E+00  1.0000000E+00
 39  2  1  2   0   0 -1.5063506E-12 -1.2221335E-12  9.2503015E+02  1.3541522E+03  9.8896280E+02  0.0000000E+00  1.0000000E+00
 23  2  3  3   0   0  1.7479831E+02  1.3946554E+02 -1.2758213E+02  2.7428621E+02  9.4607838E+01  0.0000000E+00  1.0000000E+00
 23  2  3  3   0   0 -1.7479831E+02 -1.3946554E+02  1.0526123E+03  1.0798660E+03  9.0071467E+01  0.0000000E+00  1.0000000E+00
-11  1  4  4   0   0  1.1493942E+02  1.2110556E+02 -1.3003214E+02  2.1162699E+02  2.0923268E-06  0.0000000E+00  1.0000000E+00
 11  1  4  4   0   0  5.9858891E+01  1.8359973E+01  2.4500087E+00  6.2659221E+01  5.0463701E-06  0.0000000E+00  1.0000000E+00
-13  1  5  5   0   0 -3.8675189E+01  6.0266315E-01  9.5648812E+01  1.0317378E+02  2.6428998E-05  0.0000000E+00  1.0000000E+00
 13  1  5  5   0   0 -1.3612312E+02 -1.4006820E+02  9.5696347E+02  9.7669222E+02  2.6973983E-06  0.0000000E+00  1.0000000E+00
</event>
<event>
9 100 1.0000000E+00 1.0000000E+03 7.8125000E-03 0.0000000E+00
 21 -1  0  0 501 502  0.0000000E+00  0.0000000E+00  5.3573884E+02  5.3573884E+02  0.0000000E+00  0.0000000E+00  1.0000000E+00
 21 -1  0  0 502 501  0.0000000E+00  0.0000000E+00 -4.8260768E+02  4.8260768E+02  0.0000000E+00  0.0000000E+00  1.0000000E+00
 39  2  1  2   0   0  5.4001248E-13  1.0800250E-12  5.3131158E+01  1.0183465E+03  1.0169595E+03  0.0000000E+00  1.0000000E+00
 23  2  3  3   0   0 -1.5681615E+02 -3.5884176E+02 -2.8487172E+02  4.9305229E+02  9.2681952E+01  0.0000000E+00  1.0000000E+00
 23  2  3  3   0   0  1.5681615E+02  3.5884176E+02  3.3800288E+02  5.2529423E+02  9.1265376E+01  0.0000000E+00  1.0000000E+00
-11  1  4  4   0   0 -1.3474567E+02 -3.4430373E+02 -2.3943675E+02  4.4048997E+02  1.3486992E-06  0.0000000E+00  1.0000000E+00
 11  1  4  4   0   0 -2.2070478E+01 -1.4538026E+01 -4.5434972E+01  5.2562315E+01  3.8146973E-06  0.0000000E+00  1.0000000E+00
-13  1  5  5   0   0  1.6338182E+02  3.5698971E+02  3.2151793E+02  5.0745350E+02  2.5344243E-06  0.0000000E+00  1.0000000E+00
 13  1  5  5   0   0 -6.5656719E+00  1.8520453E+00  1.6484947E+01  1.7840729E+01  1.1444092E-05  0.0000000E+00  1.0000000E+00
</event>
<event>
9 100 1.0000000E+00 1.0000000E+03 7.8125000E-03 0.0000000E+00
 21 -1  0  0 501 502  0.0000000E+00  0.0000000E+00  5.2775774E+02  5.2775774E+02  0.0000000E+00  0.0000000E+00  1.0000000E+00
 21 -1  0  0 502 501  0.0000000E+00  0.0000000E+00 -4.6950082E+02  4.6950082E+02  0.0000000E+00  0.0000000E+00  1.0000000E+00
 39  2  1  2   0   0 -9.5923269E-14  9.0949470E-13  5.8256921E+01  9.9725855E+02  9.9555550E+02  0.0000000E+00  1.0000000E+00
 23  2  3  3   0   0 -3.0616218E+01  2.8972147E+02 -3.6473763E+02  4.7562950E+02  9.1181151E+01  0.0000000E+00  1.0000000E+00
 23  2  3  3   0   0  3.0616218E+01 -2.8972147E+02  4.2299455E+02  5.2162905E+02  9.1085606E+01  0.0000000E+00  1.0000000E+00
-11  1  4  4   0   0 -3.0083654E+00  2.5731025E+02 -2.7685337E+02  3.7797540E+02  6.3259598E-06  0.0000000E+00  1.0000000E+00
 11  1  4  4   0   0 -2.7607852E+01  3.2411222E+01 -8.7884261E+01  9.7654105E+01  1.6184390E-05  0.0000000E+00  1.0000000E+00
-13  1  5  5   0   0  5.6109617E+01 -2.3712973E+02  3.6809043E+02  4.4144010E+02  3.9320999E-06  0.0000000E+00  1.0000000E+00
 13  1  5  5   0   0 -2.5493400E+01 -5.2591734E+01  5.4904129E+01  8.0188948E+01  1.3214499E-05  0.0000000E+00  1.0000000E+00
</event>
<event>
9 100 1.0000000E+00 1.0000000E+03 7.8125000E-03 0.0000000E+00
 21 -1  0  0 501 502  0.0000000E+00  0.0000000E+00  3.9992295E+02  3.9992295E+02  0.0000000E+00  0.0000000E+00  1.0000000E+00
 21 -1  0  0 502 501  0.0000000E+00  0.0000000E+00 -6.2578063E+02  6.2578063E+02  0.0000000E+00  0.0000000E+00  1.0000000E+00
 39  2  1  2   0   0  1.3358203E-12  8.2422957E-13 -2.2585768E+02  1.0257036E+03  1.0005279E+03  0.0000000E+00  1.0000000E+00
 23  2  3  3   0   0  1.7169228E+02  1.0769980E+02  3.4672481E+02  4.1224658E+02  9.3014291E+01  0.0000000E+00  1.0000000E+00
 23  2  3  3   0   0 -1.7169228E+02 -1.0769980E+02 -5.7258249E+02  6.1345700E+02  8.6030801E+01  0.0000000E+00  1.0000000E+00
-11  1  4  4   0   0  1.6656240E+02  1.2134545E+02  3.3594742E+02  3.9411727E+02  1.8157418E-06  0.0000000E+00  1.0000000E+00
 11  1  4  4   0   0  5.1298857E+00 -1.3645656E+01  1.0777390E+01  1.8129308E+01  1.0092740E-05  0.0000000E+00  1.0000000E+00
-13  1  5  5   0   0 -6.5523877E+00  1.3706632E+01 -4.1737023E+01  4.4416041E+01  1.5258789E-05  0.0000000E+00  1.0000000E+00
 13  1  5  5   0   0 -1.6513989E+02 -1.2140643E+02 -5.3084547E+02  5.6904096E+02  2.3841858E-06  0.0000000E+00  1.0000000E+00
</event>
<event>
9 100 1.0000000E+00 1.0000000E+03 7.8125000E-03 0.0000000E+00
 21 -1  0  0 501 502  0.0000000E+00  0.0000000E+00  1.1195920E+03  1.1195920E+03  0.0000000E+00  0.0000000E+00  1.0000000E+00
 21 -1  0  0 502 501  0.0000000E+00  0.0000000E+00 -2.2467334E+02  2.2467334E+02  0.0000000E+00  0.0000000E+00  1.0000000E+00
 39  2  1  2   0   0  3.5527137E-14 -2.8421709E-13  8.9491864E+02  1.3442653E+03  1.0030802E+03  0.0000000E+00  1.0000000E+00
 23  2  3  3   0   0 -1.9381683E+01  2.0465683E+02 -1.5387099E+02  2.7167700E+02  8.8724526E+01  0.0000000E+00  1.0000000E+00
 23  2  3  3   0   0  1.9381683E+01 -2.0465683E+02  1.0487896E+03  1.0725883E+03  9.0696939E+01  0.0000000E+00  1.0000000E+00
-11  1  4  4   0   0 -2.7331807E+01  1.2259230E+02 -4.1453901E+01  1.3226611E+02  3.5683226E-06  0.0000000E+00  1.0000000E+00
 11  1  4  4   0   0  7.9501246E+00  8.2064529E+01 -1.1241709E+02  1.3941088E+02  2.6549169E-06  0.0000000E+00  1.0000000E+00
-13  1  5  5   0   0  3.2354248E+01 -1.3814030E+02  5.0364342E+02  5.2324586E+02  7.6293945E-06  0.0000000E+00  1.0000000E+00
 13  1  5  5   0   0 -1.2972565E+01 -6.6516527E+01  5.4514621E+02  5.4934245E+02  9.3440618E-06  0.0000000E+00  1.0000000E+00
</event>
<event>
9 100 1.0000000E+00 1.0000000E+03 7.8125000E-03 0.0000000E+00
 21 -1  0  0 501 502  0.0000000E+00  0.0000000E+00  1.0588448E+03  1.0588448E+03  0.0000000E+00  0.0000000E+00  1.0000000E+00
 21 -1  0  0 502 501  0.0000000E+00  0.0000000E+00 -2.8489614E+02  2.8489614E+02  0.0000000E+00  0.0000000E+00  1.0000000E+00
 39  2  1  2   0   0  1.2505552E-12 -5.1159077E-13  7.7394869E+02  1.3437410E+03  1.0984731E+03  0.0000000E+00  1.0000000E+00
 23  2  3  3   0   0 -3.8416515E+02  1.6713512E+02 -3.6592874E+01  4.3040805E+02  9.1624447E+01  0.0000000E+00  1.0000000E+00
 23  2  3  3   0   0  3.8416515E+02 -1.6713512E+02  8.1054157E+02  9.1333293E+02  4.1016990E+01  0.0000000E+00  1.0000000E+00
-11  1  4  4   0   0 -3.6135722E+02  1.3698568E+02 -1.4718031E+01  3.8673083E+02  3.3463642E-06  0.0000000E+00  1.0000000E+00
 11  1  4  4   0   0 -2.2807932E+01  3.0149443E+01 -2.1874843E+01  4.3677218E+01  1.2630560E-05  0.0000000E+00  1.0000000E+00
-13  1  5  5   0   0  3.2257551E+01 -2.5641887E+01  6.7485083E+01  7.9071439E+01  1.0789593E-05  0.0000000E+00  1.0000000E+00
 13  1  5  5   0   0  3.5190760E+02 -1.4149323E+02  7.4305648E+02  8.3426149E+02  3.1629799E-06  0.0000000E+00  1.0000000E+00
</event>
<event>
9 100 1.0000000E+00 1.0000000E+03 7.8125000E-03 0.0000000E+00
 21 -1  0  0 501 502  0.0000000E+00  0.0000000E+00  1.5770932E+02  1.5770932E+02  0.0000000E+00  0.0000000E+00  1.0000000E+00
 21 -1  0  0 502 501  0.0000000E+00  0.0000000E+00 -1.4826736E+03  1.4826736E+03  0.0000000E+00  0.0000000E+00  1.0000000E+00
 39  2  1  2   0   0 -1.3642421E-12 -1.2505552E-12 -1.3249642E+03  1.6403829E+03  9.6712240E+02  0.0000000E+00  1.0000000E+00
 23  2  3  3   0   0 -3.0468821E+02 -3.2029291E+02 -9.5725776E+02  1.0580517E+03  8.7798624E+01  0.0000000E+00  1.0000000E+00
 23  2  3  3   0   0  3.0468821E+02  3.2029291E+02 -3.6770648E+02  5.8233114E+02  9.2081766E+01  0.0000000E+00  1.0000000E+00
-11  1  4  4   0   0 -1.8706791E+01 -6.1161705E+01 -1.5968741E+02  1.7201967E+02  3.7376247E-05  0.0000000E+00  1.0000000E+00
 11  1  4  4   0   0 -2.8598142E+02 -2.5913120E+02 -7.9757035E+02  8.8603206E+02  8.9462581E-06  0.0000000E+00  1.0000000E+00
-13  1  5  5   0   0  4.1365387E+01  7.9282271E+00 -4.5626714E+01  6.2094678E+01  2.9051869E-05  0.0000000E+00  1.0000000E+00
 13  1  5  5   0   0  2.6332282E+02  3.1236468E+02 -3.2207976E+02  5.2023646E+02  6.1436170E-06  0.0000000E+00  1.0000000E+00
</event>
<event>
9 100 1.0000000E+00 1.0000000E+03 7.8125000E-03 0.0000000E+00
 21 -1  0  0 501 502  0.0000000E+00  0.0000000E+00  1.0818927E+02  1.0818927E+02  0.0000000E+00  0.0000000E+00  1.0000000E+00
 21 -1  0  0 502 501  0.0000000E+00  0.0000000E+00 -2.3391807E+03  2.3391807E+03  0.0000000E+00  0.0000000E+00  1.0000000E+00
 39  2  1  2   0   0 -4.6611603E-12 -3.5242920E-12 -2.2309915E+03  2.4473700E+03  1.0061297E+03  0.0000000E+00  1.0000000E+00
 23  2  3  3   0   0  3.8713661E+02  2.9061318E+02 -8.6716639E+02  9.9740447E+02  9.2235310E+01  0.0000000E+00  1.0000000E+00
 23  2  3  3   0   0 -3.8713661E+02 -2.9061318E+02 -1.3638251E+03  1.4499656E+03  8.9724290E+01  0.0000000E+00  1.0000000E+00
-11  1  4  4   0   0  1.8697885E+02  1.9647468E+02 -4.9679577E+02  5.6601186E+02  1.3214499E-05  0.0000000E+00  1.0000000E+00
 11  1  4  4   0   0  2.0015776E+02  9.4138497E+01 -3.7037062E+02  4.3139261E+02  2.3515373E-05  0.0000000E+00  1.0000000E+00
-13  1  5  5   0   0 -7.2847599E+01 -8.4054805E+01 -2.3188471E+02  2.5718185E+02  0.0000000E+00  0.0000000E+00  1.0000000E+00
 13  1  5  5   0   0 -3.1428901E+02 -2.0655837E+02 -1.1319404E+03  1.1927837E+03  4.6720309E-06  0.0000000E+00  1.0000000E+00
</event>
<event>
9 100 1.0000000E+00 1.0000000E+03 7.8125000E-03 0.0000000E+00
 21 -1  0  0 501 502  0.0000000E+00  0.0000000E+00  1.5665470E+03  1.5665470E+03  0.0000000E+00  0.0000000E+00  1.0000000E+00
 21 -1  0  0 502 501  0.0000000E+00  0.0000000E+00 -1.5806034E+02  1.5806034E+02  0.0000000E+00  0.0000000E+00  1.0000000E+00
 39  2  1  2   0   0  4.1495696E-12 -4.2916781E-12  1.4084866E+03  1.7246073E+03  9.9520641E+02  0.0000000E+00  1.0000000E+00
 23  2  3  3   0   0  1.9916840E+02 -2.0492952E+02  1.3924519E+03  1.4246075E+03  9.4447155E+01  0.0000000E+00  1.0000000E+00
 23  2  3  3   0   0 -1.9916840E+02  2.0492952E+02  1.6034741E+01  2.9999976E+02  8.9880956E+01  0.0000000E+00  1.0000000E+00
-11  1  4  4   0   0  1.0773783E+02 -1.2121106E+02  5.6117805E+02  5.8414070E+02  3.2368780E-05  0.0000000E+00  1.0000000E+00
 11  1  4  4   0   0  9.1430568E+01 -8.3718460E+01  8.3127383E+02  8.4046684E+02  3.0517578E-05  0.0000000E+00  1.0000000E+00
-13  1  5  5   0   0 -4.8547632E+01  6.7922803E+01  4.4171709E+01  9.4453796E+01  1.6490571E-05  0.0000000E+00  1.0000000E+00
 13  1  5  5   0   0 -1.5062076E+02  1.3700672E+02 -2.8136969E+01  2.0554597E+02  9.3318871E-06  0.0000000E+00  1.0000000E+00
</event>
<event>
9 100 1.0000000E+00 1.0000000E+03 7.8125000E-03 0.0000000E+00
 21 -1  0  0 501 502  0.0000000E+00  0.0000000E+00  1.1570824E+03  1.1570824E+03  0.0000000E+00  0.0000000E+00  1.0000000E+00
 21 -1  0  0 502 501  0.0000000E+00  0.0000000E+00 -2.1177938E+02  2.1177938E+02  0.0000000E+00  0.0000000E+00  1.0000000E+00
 39  2  1  2   0   0 -2.8421709E-13  1.7053026E-13  9.4530303E+02  1.3688618E+03  9.9004281E+02  0.0000000E+00  1.0000000E+00
 23  2  3  3   0   0  3.1866253E+02 -1.1911415E+02  9.5350265E+02  1.0164459E+03  9.0889981E+01  0.0000000E+00  1.0000000E+00
 23  2  3  3   0   0 -3.1866253E+02  1.1911415E+02 -8.1996258E+00  3.5241587E+02  9.1628176E+01  0.0000000E+00  1.0000000E+00
-11  1  4  4   0   0 -2.3039667E+00  6.8728641E+00  2.2766319E+01  2.3892463E+01  2.4126264E-05  0.0000000E+00  1.0000000E+00
 11  1  4  4   0   0  3.2096650E+02 -1.2598701E+02  9.3073633E+02  9.9255345E+02  2.5005552E-06  0.0000000E+00  1.0000000E+00
-13  1  5  5   0   0 -7.1927710E+01  5.9670192E+01 -2.8781810E+01  9.7788138E+01  2.9968751E-06  0.0000000E+00  1.0000000E+00
 13  1  5  5   0   0 -2.4673482E+02  5.9443958E+01  2.0582185E+01  2.5462773E+02  2.3115539E-06  0.0000000E+00  1.0000000E+00
</event>
<event>
9 100 1.0000000E+00 1.0000000E+03 7.8125000E-03 0.0000000E+00
 21 -1  0  0 501 502  0.0000000E+00  0.0000000E+00  2.0221201E+03  2.0221201E+03  0.0000000E+00  0.0000000E+00  1.0000000E+00
 21 -1  0  0 502 501  0.0000000E+00  0.0000000E+00 -1.2373015E+02  1.2373015E+02  0.0000000E+00  0.0000000E+00  1.0000000E+00
 39  2  1  2   0   0  5.0590643E-12  7.7307050E-12  1.8983900E+03  2.1458503E+03  1.0003944E+03  0.0000000E+00  1.0000000E+00
 23  2  3  3   0   0 -2.6093411E+02 -4.0375864E+02  7.2790392E+02  8.7734127E+02  9.3680020E+01  0.0000000E+00  1.0000000E+00
 23  2  3  3   0   0  2.6093411E+02  4.0375864E+02  1.1704861E+03  1.2685090E+03  8.9274044E+01  0.0000000E+00  1.0000000E+00
-11  1  4  4   0   0 -2.1132930E+02 -3.7893469E+02  6.5656638E+02  7.8697585E+02  4.9554371E-06  0.0000000E+00  1.0000000E+00
 11  1  4  4   0   0 -4.9604808E+01 -2.4823941E+01  7.1337533E+01  9.0365417E+01  1.8688124E-05  0.0000000E+00  1.0000000E+00
-13  1  5  5   0   0  2.3314563E+02  2.9804367E+02  9.4433014E+02  1.0173231E+03  1.0789593E-05  0.0000000E+00  1.0000000E+00
 13  1  5  5   0   0  2.7788480E+01  1.0571497E+02  2.2615591E+02  2.5118588E+02  2.4126264E-05  0.0000000E+00  1.0000000E+00
</event>
<event>
9 100 1.0000000E+00 1.0000000E+03 7.8125000E-03 0.0000000E+00
 21 -1  0  0 501 502  0.0000000E+00  0.0000000E+00  9.1115835E+02  9.1115835E+02  0.0000000E+00  0.0000000E+00  1.0000000E+00
 21 -1  0  0 502 501  0.0000000E+00  0.0000000E+00 -2.7612960E+02  2.7612960E+02  0.0000000E+00  0.0000000E+00  1.0000000E+00
 39  2  1  2   0   0  2.2168933E-12 -4.9737992E-13  6.3502876E+02  1.1872879E+03  1.0031905E+03  0.0000000E+00  1.0000000E+00
 23  2  3  3   0   0  2.2280012E+02 -4.9626370E+01  8.3465790E+02  8.7036836E+02  9.3726269E+01  0.0000000E+00  1.0000000E+00
 23  2  3  3   0   0 -2.2280012E+02  4.9626370E+01 -1.9962914E+02  3.1691959E+02  9.2106250E+01  0.0000000E+00  1.0000000E+00
-11  1  4  4   0   0  1.6122405E+01  1.1677392E+01  1.8071536E+02  1.8180851E+02  2.4126264E-05  0.0000000E+00  1.0000000E+00
 11  1  4  4   0   0  2.0667771E+02 -6.1303762E+01  6.5394254E+02  6.8855985E+02  6.8770433E-06  0.0000000E+00  1.0000000E+00
-13  1  5  5   0   0 -2.2677601E+02  5.9996570E+01 -1.8621580E+02  2.9950504E+02  3.0764313E-06  0.0000000E+00  1.0000000E+00
 13  1  5  5   0   0  3.9758870E+00 -1.0370199E+01 -1.3413343E+01  1.7414548E+01  1.6845247E-05  0.0000000E+00  1.0000000E+00
</event>
<event>
9 100 1.0000000E+00 1.0000000E+03 7.8125000E-03 0.0000000E+00
 21 -1  0  0 501 502  0.0000000E+00  0.0000000E+00  3.8136039E+02  3.8136039E+02  0.0000000E+00  0.0000000E+00  1.0000000E+00
 21 -1  0  0 502 501  0.0000000E+00  0.0000000E+00 -4.9625099E+02  4.9625099E+02  0.0000000E+00  0.0000000E+00  1.0000000E+00
 39  2  1  2   0   0  3.4106051E-13 -1.3073986E-12 -1.1489060E+02  8.7761138E+02  8.7005855E+02  0.0000000E+00  1.0000000E+00
 23  2  3  3   0   0 -7.5106684E+01  2.7778162E+02 -3.7282942E+02  4.8044180E+02  9.4967889E+01  0.0000000E+00  1.0000000E+00
 23  2  3  3   0   0  7.5106684E+01 -2.7778162E+02  2.5793883E+02  3.9716958E+02  9.1692920E+01  0.0000000E+00  1.0000000E+00
-11  1  4  4   0   0 -9.5286592E+01  2.5351050E+02 -3.2378934E+02  4.2212160E+02  1.5078915E-06  0.0000000E+00  1.0000000E+00
 11  1  4  4   0   0  2.0179908E+01  2.4271130E+01 -4.9040085E+01  5.8320205E+01  8.5299224E-06  0.0000000E+00  1.0000000E+00
-13  1  5  5   0   0  1.3801634E+01 -6.4051937E+01  1.3810690E+01  6.6961712E+01  1.2936268E-05  0.0000000E+00  1.0000000E+00
 13  1  5  5   0   0  6.1305050E+01 -2.1372969E+02  2.4412814E+02  3.3020787E+02  4.2582920E-06  0.0000000E+00  1.0000000E+00
</event>
<event>
9 100 1.0000000E+00 1.0000000E+03 7.8125000E-03 0.0000000E+00
 21 -1  0  0 501 502  0.0000000E+00  0.0000000E+00  1.2362084E+02  1.2362084E+02  0.0000000E+00  0.0000000E+00  1.0000000E+00
 21 -1  0  0 502 501  0.0000000E+00  0.0000000E+00 -1.7305179E+03  1.7305179E+03  0.0000000E+00  0.0000000E+00  1.0000000E+00
 39  2  1  2   0   0 -1.9184654E-13  2.7000624E-13 -1.6068970E+03  1.8541387E+03  9.2504720E+02  0.0000000E+00  1.0000000E+00
 23  2  3  3   0   0 -2.9617975E+01  4.0831723E+01 -1.7048400E+03  1.7084136E+03  9.8251867E+01  0.0000000E+00  1.0000000E+00
 23  2  3  3   0   0  2.9617975E+01 -4.0831723E+01  9.7942919E+01  1.4572509E+02  9.5386221E+01  0.0000000E+00  1.0000000E+00
-11  1  4  4   0   0 -5.9118496E+01  2.9696792E+01 -7.1041068E+02  7.1348457E+02  1.0789593E-05  0.0000000E+00  1.0000000E+00
 11  1  4  4   0   0  2.9500521E+01  1.1134931E+01 -9.9442927E+02  9.9492907E+02  1.3214499E-05  0.0000000E+00  1.0000000E+00
-13  1  5  5   0   0  2.4390254E+01 -6.3270993E+01  3.0309604E+01  7.4274997E+01  3.9320999E-06  0.0000000E+00  1.0000000E+00
 13  1  5  5   0   0  5.2277209E+00  2.2439270E+01  6.7633315E+01  7.1450089E+01  4.1842291E-06  0.0000000E+00  1.0000000E+00
</event>
<event>
9 100 1.0000000E+00 1.0000000E+03 7.8125000E-03 0.0000000E+00
 21 -1  0  0 501 502  0.0000000E+00  0.0000000E+00  5.1520792E+01  5.1520792E+01  0.0000000E+00  0.0000000E+00  1.0000000E+00
 21 -1  0  0 502 501  0.0000000E+00  0.0000000E+00 -4.9119415E+03  4.9119415E+03  0.0000000E+00  0.0000000E+00  1.0000000E+00
 39  2  1  2   0   0  2.3092639E-12 -2.6602720E-11 -4.8604207E+03  4.9634623E+03  1.0061155E+03  0.0000000E+00  1.0000000E+00
 23  2  3  3   0   0  3.7379274E+01 -4.3048486E+02 -3.6168720E+03  3.6438053E+03  9.4017270E+01  0.0000000E+00  1.0000000E+00
 23  2  3  3   0   0 -3.7379274E+01  4.3048486E+02 -1.2435487E+03  1.3196570E+03  9.1470672E+01  0.0000000E+00  1.0000000E+00
-11  1  4  4   0   0  1.3825745E+01 -2.3068880E+02 -2.3111446E+03  2.3226704E+03  3.0517578E-05  0.0000000E+00  1.0000000E+00
 11  1  4  4   0   0  2.3553528E+01 -1.9979605E+02 -1.3057274E+03  1.3211348E+03  4.3158373E-05  0.0000000E+00  1.0000000E+00
-13  1  5  5   0   0  9.0700935E+00  2.2611926E+02 -5.3849258E+02  5.8411167E+02  3.6589291E-05  0.0000000E+00  1.0000000E+00
 13  1  5  5   0   0 -4.6449367E+01  2.0436559E+02 -7.0505611E+02  7.3554535E+02  2.9548518E-05  0.0000000E+00  1.0000000E+00
</event>
<event>
9 100 1.0000000E+00 1.0000000E+03 7.8125000E-03 0.0000000E+00
 21 -1  0  0 501 502  0.0000000E+00  0.0000000E+00  8.5391778E+02  8.5391778E+02  0.0000000E+00  0.0000000E+00  1.0000000E+00
 21 -1  0  0 502 501  0.0000000E+00  0.0000000E+00 -2.8777149E+02  2.8777149E+02  0.0000000E+00  0.0000000E+00  1.0000000E+00
 39  2  1  2   0   0 -3.7516656E-12  2.3447910E-13  5.6614629E+02  1.1416893E+03  9.9142967E+02  0.0000000E+00  1.0000000E+00
 23  2  3  3   0   0  3.6491458E+02 -2.1898684E+01 -8.8037769E+01  3.8663967E+02  8.9985442E+01  0.0000000E+00  1.0000000E+00
 23  2  3  3   0   0 -3.6491458E+02  2.1898684E+01  6.5418406E+02  7.5504961E+02  9.2200467E+01  0.0000000E+00  1.0000000E+00
-11  1  4  4   0   0  7.6538867E+01  2.1793893E+01 -4.6110208E+01  9.1974579E+01  4.0460975E-06  0.0000000E+00  1.0000000E+00
 11  1  4  4   0   0  2.8837572E+02 -4.3692577E+01 -4.1927561E+01  2.9466509E+02  2.0230487E-06  0.0000000E+00  1.0000000E+00
-13  1  5  5   0   0 -6.3869807E+01  4.0057493E+01  1.2676175E+02  1.4748728E+02  1.7059845E-05  0.0000000E+00  1.0000000E+00
 13  1  5  5   0   0 -3.0104478E+02 -1.8158809E+01  5.2742230E+02  6.0756233E+02  1.9073486E-06  0.0000000E+00  1.0000000E+00
</event>
<event>
9 100 1.0000000E+00 1.0000000E+03 7.8125000E-03 0.0000000E+00
 21 -1  0  0 501 502  0.0000000E+00  0.0000000E+00  6.1940117E+02  6.1940117E+02  0.0000000E+00  0.0000000E+00  1.0000000E+00
 21 -1  0  0 502 501  0.0000000E+00  0.0000000E+00 -4.2089517E+02  4.2089517E+02  0.0000000E+00  0.0000000E+00  1.0000000E+00
 39  2  1  2   0   0  3.8369308E-13  8.5265128E-13  1.9850600E+02  1.0402963E+03  1.0211816E+03  0.0000000E+00  1.0000000E+00
 23  2  3  3   0   0  1.1649868E+02  2.6267223E+02 -3.1995066E+02  4.3916643E+02  8.9051056E+01  0.0000000E+00  1.0000000E+00
 23  2  3  3   0   0 -1.1649868E+02 -2.6267223E+02  5.1845666E+02  6.0112991E+02  9.9956076E+01  0.0000000E+00  1.0000000E+00
-11  1  4  4   0   0  3.3419144E+01  1.4386000E+01 -6.0321780E+01  7.0445109E+01  5.3947966E-06  0.0000000E+00  1.0000000E+00
 11  1  4  4   0   0  8.3079535E+01  2.4828623E+02 -2.5962888E+02  3.6872133E+02  1.1680077E-06  0.0000000E+00  1.0000000E+00
-13  1  5  5   0   0 -7.7571198E+01 -8.7477355E+01  2.7370253E+02  2.9762838E+02  8.9462581E-06  0.0000000E+00  1.0000000E+00
 13  1  5  5   0   0 -3.8927482E+01 -1.7519488E+02  2.4475413E+02  3.0350153E+02  9.3440618E-06  0.0000000E+00  1.0000000E+00
</event>
<event>
9 100 1.0000000E+00 1.0000000E+03 7.8125000E-03 0.0000000E+00
 21 -1  0  0 501 502  0.0000000E+00  0.0000000E+00  2.9404506E+02  2.9404506E+02  0.0000000E+00  0.0000000E+00  1.0000000E+00
 21 -1  0  0 502 501  0.0000000E+00  0.0000000E+00 -8.4076269E+02  8.4076269E+02  0.0000000E+00  0.0000000E+00  1.0000000E+00
 39  2  1  2   0   0  3.9790393E-13  7.9580786E-13 -5.4671763E+02  1.1348078E+03  9.9442871E+02  0.0000000E+00  1.0000000E+00
 23  2  3  3   0   0 -1.3027356E+02 -2.7176958E+02 -7.1263017E+02  7.7913511E+02  9.1541516E+01  0.0000000E+00  1.0000000E+00
 23  2  3  3   0   0  1.3027356E+02  2.7176958E+02  1.6591254E+02  3.5567265E+02  9.0256059E+01  0.0000000E+00  1.0000000E+00
-11  1  4  4   0   0  2.8033137E+00 -4.0132121E+00 -7.1961778E+01  7.2128094E+01  1.5258789E-05  0.0000000E+00  1.0000000E+00
 11  1  4  4   0   0 -1.3307687E+02 -2.6775637E+02 -6.4066839E+02  7.0700701E+02  1.3486992E-06  0.0000000E+00  1.0000000E+00
-13  1  5  5   0   0  1.1646428E+02  1.9844840E+02  1.6113503E+02  2.8090959E+02  2.4503237E-06  0.0000000E+00  1.0000000E+00
 13  1  5  5   0   0  1.3809278E+01  7.3321173E+01  4.7775140E+00  7.4763061E+01  5.3947966E-06  0.0000000E+00  1.0000000E+00
</event>
<event>
9 100 1.0000000E+00 1.0000000E+03 7.8125000E-03 0.0000000E+00
 21 -1  0  0 501 502  0.0000000E+00  0.0000000E+00  4.6669276E+02  4.6669276E+02  0.0000000E+00  0.0000000E+00  1.0000000E+00
 21 -1  0  0 502 501  0.0000000E+00  0.0000000E+00 -4.5385937E+03  4.5385937E+03  0.0000000E+00  0.0000000E+00  1.0000000E+00
 39  2  1  2   0   0  4.5474735E-13 -2.2737368E-13 -4.0719009E+03  5.0052864E+03  2.9107585E+03  0.0000000E+00  1.0000000E+00
 23  2  3  3   0   0  1.1222848E+03 -3.8720689E+02 -5.9688107E+02  1.3319711E+03  9.1802121E+01  0.0000000E+00  1.0000000E+00
 23  2  3  3   0   0 -1.1222848E+03  3.8720689E+02 -3.4750198E+03  3.6733153E+03  8.9611791E+01  0.0000000E+00  1.0000000E+00
-11  1  4  4   0   0  6.6694811E+02 -2.4735334E+02 -4.0410402E+02  8.1810972E+02  1.6184390E-05  0.0000000E+00  1.0000000E+00
 11  1  4  4   0   0  4.5533670E+02 -1.3985355E+02 -1.9277705E+02  5.1386138E+02  2.6428998E-05  0.0000000E+00  1.0000000E+00
-13  1  5  5   0   0 -8.3198434E+02  3.2762951E+02 -2.5939005E+03  2.7436944E+03  2.1579186E-05  0.0000000E+00  1.0000000E+00
 13  1  5  5   0   0 -2.9030046E+02  5.9577379E+01 -8.8111935E+02  9.2962096E+02  5.2857996E-05  0.0000000E+00  1.0000000E+00
</event>
<event>
9 100 1.0000000E+00 1.0000000E+03 7.8125000E-03 0.0000000E+00
 21 -1  0  0 501 502  0.0000000E+00  0.0000000E+00  6.7059654E+02  6.7059654E+02  0.0000000E+00  0.0000000E+00  1.0000000E+00
 21 -1  0  0 502 501  0.0000000E+00  0.0000000E+00 -3.6801866E+02  3.6801866E+02  0.0000000E+00  0.0000000E+00  1.0000000E+00
 39  2  1  2   0   0 -2.7711167E-13 -6.8212103E-13  3.0257788E+02  1.0386152E+03  9.9356337E+02  0.0000000E+00  1.0000000E+00
 23  2  3  3   0   0 -6.1772850E+01 -1.5594791E+02 -3.2798152E+02  3.7994065E+02  9.2991325E+01  0.0000000E+00  1.0000000E+00
 23  2  3  3   0   0  6.1772850E+01  1.5594791E+02  6.3055940E+02  6.5867455E+02  9.0063140E+01  0.0000000E+00  1.0000000E+00
-11  1  4  4   0   0 -7.3297992E+01 -1.0448442E+02 -2.8366266E+02  3.1105320E+02  2.4777186E-06  0.0000000E+00  1.0000000E+00
 11  1  4  4   0   0  1.1525143E+01 -5.1463487E+01 -4.4318862E+01  6.8887452E+01  9.3440618E-06  0.0000000E+00  1.0000000E+00
-13  1  5  5   0   0 -1.2998994E+01  7.3133235E+01  3.2502957E+02  3.3340915E+02  0.0000000E+00  0.0000000E+00  1.0000000E+00
 13  1  5  5   0   0  7.4771844E+01  8.2814673E+01  3.0552983E+02  3.2526540E+02  6.6072495E-06  0.0000000E+00  1.0000000E+00
</event>
<event>
9 100 1.0000000E+00 1.0000000E+03 7.8125000E-03 0.0000000E+00
 21 -1  0  0 501 502  0.0000000E+00  0.0000000E+00  3.5450401E+02  3.5450401E+02  0.0000000E+00  0.0000000E+00  1.0000000E+00
 21 -1  0  0 502 501  0.0000000E+00  0.0000000E+00 -7.0831741E+02  7.0831741E+02  0.0000000E+00  0.0000000E+00  1.0000000E+00
 39  2  1  2   0   0 -5.1159077E-13  2.7000624E-13 -3.5381341E+02  1.0628214E+03  1.0022003E+03  0.0000000E+00  1.0000000E+00
 23  2  3  3   0   0 -2.1773115E+02  1.1298471E+02 -6.2986143E+02  6.8176306E+02  8.8899066E+01  0.0000000E+00  1.0000000E+00
 23  2  3  3   0   0  2.1773115E+02 -1.1298471E+02  2.7604803E+02  3.8105836E+02  9.3971090E+01  0.0000000E+00  1.0000000E+00
-11  1  4  4   0   0 -1.5942116E+02  1.2349680E+02 -4.8823865E+02  5.2824572E+02  3.8146973E-06  0.0000000E+00  1.0000000E+00
 11  1  4  4   0   0 -5.8309988E+01 -1.0512092E+01 -1.4162279E+02  1.5351734E+02  1.3214499E-05  0.0000000E+00  1.0000000E+00
-13  1  5  5   0   0  8.4297013E+00 -2.2711109E+01  6.8971095E+01  7.3101753E+01  1.0092740E-05  0.0000000E+00  1.0000000E+00
 13  1  5  5   0   0  2.0930144E+02 -9.0273599E+01  2.0707693E+02  3.0795661E+02  3.9320999E-06  0.0000000E+00  1.0000000E+00
</event>
<event>
9 100 1.0000000E+00 1.0000000E+03 7.8125000E-03 0.0000000E+00
 21 -1  0  0 501 502  0.0000000E+00  0.0000000E+00  4.7549727E+02  4.7549727E+02  0.0000000E+00  0.0000000E+00  1.0000000E+00
 21 -1  0  0 502 501  0.0000000E+00  0.0000000E+00 -5.3320421E+02  5.3320421E+02  0.0000000E+00  0.0000000E+00  1.0000000E+00
 39  2  1  2   0   0  5.9685590E-13 -1.0516032E-12 -5.7706941E+01  1.0087015E+03  1.0070494E+03  0.0000000E+00  1.0000000E+00
 23  2  3  3   0   0  1.3624044E+02 -2.2748631E+02 -4.4343790E+02  5.2526713E+02  9.4640962E+01  0.0000000E+00  1.0000000E+00
 23  2  3  3   0   0 -1.3624044E+02  2.2748631E+02  3.8573096E+02  4.8343435E+02  1.2086737E+02  0.0000000E+00  1.0000000E+00
-11  1  4  4   0   0  3.9081739E+01 -9.9261212E+00 -9.4456993E+01  1.0270362E+02  1.7481139E-05  0.0000000E+00  1.0000000E+00
 11  1  4  4   0   0  9.7158703E+01 -2.1756019E+02 -3.4898090E+02  4.2256351E+02  4.2649612E-06  0.0000000E+00  1.0000000E+00
-13  1  5  5   0   0 -6.4935899E+01  1.5066108E+02  3.2030118E+02  3.5987258E+02  6.8105969E-06  0.0000000E+00  1.0000000E+00
 13  1  5  5   0   0 -7.1304543E+01  7.6825232E+01  6.5429777E+01  1.2356176E+02  1.9073486E-05  0.0000000E+00  1.0000000E+00
</event>
<event>
9 100 1.0000000E+00 1.0000000E+03 7.8125000E-03 0.0000000E+00
 21 -1  0  0 501 502  0.0000000E+00  0.0000000E+00  2.8583163E+02  2.8583163E+02  0.0000000E+00  0.0000000E+00  1.0000000E+00
 21 -1  0  0 502 501  0.0000000E+00  0.0000000E+00 -8.7559159E+02  8.7559159E+02  0.0000000E+00  0.0000000E+00  1.0000000E+00
 39  2  1  2   0   0 -1.4210855E-12  1.0658141E-12 -5.8975995E+02  1.1614232E+03  1.0005434E+03  0.0000000E+00  1.0000000E+00
 23  2  3  3   0   0 -1.3920444E+02  1.0491281E+02 -8.2919672E+02  8.5154335E+02  8.4701196E+01  0.0000000E+00  1.0000000E+00
 23  2  3  3   0   0  1.3920444E+02 -1.0491281E+02  2.3943677E+02  3.0987987E+02  9.1164661E+01  0.0000000E+00  1.0000000E+00
-11  1  4  4   0   0 -5.3847992E+01  8.4041059E+01 -5.4526804E+02  5.5432818E+02  1.3214499E-05  0.0000000E+00  1.0000000E+00
 11  1  4  4   0   0 -8.5356446E+01  2.0871750E+01 -2.8392869E+02  2.9721516E+02  2.4126264E-05  0.0000000E+00  1.0000000E+00
-13  1  5  5   0   0 -6.7975653E-01 -3.5892494E+01  2.1406810E+01  4.1796946E+01  1.5958024E-05  0.0000000E+00  1.0000000E+00
 13  1  5  5   0   0  1.3988419E+02 -6.9020315E+01  2.1802996E+02  2.6808293E+02  3.8591418E-06  0.0000000E+00  1.0000000E+00
</event>
<event>
9 100 1.0000000E+00 1.0000000E+03 7.8125000E-03 0.0000000E+00
 21 -1  0  0 501 502  0.0000000E+00  0.0000000E+00  4.6768072E+02  4.6768072E+02  0.0000000E+00  0.0000000E+00  1.0000000E+00
 21 -1  0  0 502 501  0.0000000E+00  0.0000000E+00 -5.2991151E+02  5.2991151E+02  0.0000000E+00  0.0000000E+00  1.0000000E+00
 39  2  1  2   0   0 -1.2434498E-14  3.8369308E-13 -6.2230791E+01  9.9759223E+02  9.9564933E+02  0.0000000E+00  1.0000000E+00
 23  2  3  3   0   0 -2.9684700E+00  7.5459536E+01 -5.1555134E+02  5.2898588E+02  9.1268453E+01  0.0000000E+00  1.0000000E+00
 23  2  3  3   0   0  2.9684700E+00 -7.5459536E+01  4.5332055E+02  4.6860635E+02  9.1593868E+01  0.0000000E+00  1.0000000E+00
-11  1  4  4   0   0  9.2450144E+00  2.4499344E+00 -1.5588211E+00  9.6903247E+00  1.0789593E-05  0.0000000E+00  1.0000000E+00
 11  1  4  4   0   0 -1.2213484E+01  7.3009601E+01 -5.1399252E+02  5.1929556E+02  1.3997577E-06  0.0000000E+00  1.0000000E+00
-13  1  5  5   0   0 -1.6180560E+01 -7.1672961E+01  4.3708249E+02  4.4321545E+02  1.9073486E-06  0.0000000E+00  1.0000000E+00
 13  1  5  5   0   0  1.9149030E+01 -3.7865750E+00  1.6238051E+01  2.5390900E+01  1.5258789E-05  0.0000000E+00  1.0000000E+00
</event>
<event>
9 100 1.0000000E+00 1.0000000E+03 7.8125000E-03 0.0000000E+00
 21 -1  0  0 501 502  0.0000000E+00  0.0000000E+00  1.1579098E+03  1.1579098E+03  0.0000000E+00  0.0000000E+00  1.0000000E+00
 21 -1  0  0 502 501  0.0000000E+00  0.0000000E+00 -2.1442488E+02  2.1442488E+02  0.0000000E+00  0.0000000E+00  1.0000000E+00
 39  2  1  2   0   0 -1.0231815E-12 -7.9580786E-13  9.4348497E+02  1.3723347E+03  9.9656345E+02  0.0000000E+00  1.0000000E+00
 23  2  3  3   0   0 -3.8477611E+02 -2.9957301E+02  5.3565950E+02  7.3059354E+02  9.5074559E+01  0.0000000E+00  1.0000000E+00
 23  2  3  3   0   0  3.8477611E+02  2.9957301E+02  4.0782547E+02  6.4174119E+02  8.7826486E+01  0.0000000E+00  1.0000000E+00
-11  1  4  4   0   0 -3.3212160E+01 -6.1953037E+01  5.3743961E+01  8.8485252E+01  0.0000000E+00  0.0000000E+00  1.0000000E+00
 11  1  4  4   0   0 -3.5156395E+02 -2.3761997E+02  4.8191554E+02  6.4210829E+02  2.2365645E-06  0.0000000E+00  1.0000000E+00
-13  1  5  5   0   0  1.9093182E+02  1.8032532E+02  2.6477012E+02  3.7292814E+02  5.3947966E-06  0.0000000E+00  1.0000000E+00
 13  1  5  5   0   0  1.9384429E+02  1.1924769E+02  1.4305535E+02  2.6881305E+02  1.1444092E-05  0.0000000E+00  1.0000000E+00
</event>
<event>
9 100 1.0000000E+00 1.0000000E+03 7.8125000E-03 0.0000000E+00
 21 -1  0  0 501 502  0.0000000E+00  0.0000000E+00  3.1849784E+02  3.1849784E+02  0.0000000E+00  0.0000000E+00  1.0000000E+00
 21 -1  0  0 502 501  0.0000000E+00  0.0000000E+00 -7.8069597E+02  7.8069597E+02  0.0000000E+00  0.0000000E+00  1.0000000E+00
 39  2  1  2   0   0  1.2505552E-12  2.5579538E-13 -4.6219813E+02  1.0991938E+03  9.9729630E+02  0.0000000E+00  1.0000000E+00
 23  2  3  3   0   0  4.8047612E+02  9.5678210E+01 -2.4282012E+02  5.5477623E+02  9.3826611E+01  0.0000000E+00  1.0000000E+00
 23  2  3  3   0   0 -4.8047612E+02 -9.5678210E+01 -2.1937801E+02  5.4441757E+02  9.0841426E+01  0.0000000E+00  1.0000000E+00
-11  1  4  4   0   0  2.2545345E+02 -1.8582128E+00 -1.1963676E+02  2.5523649E+02  5.2234894E-06  0.0000000E+00  1.0000000E+00
 11  1  4  4   0   0  2.5502266E+02  9.7536423E+01 -1.2318336E+02  2.9953974E+02  6.1805160E-06  0.0000000E+00  1.0000000E+00
-13  1  5  5   0   0 -2.8756847E+02 -1.1913441E+01 -1.2045156E+02  3.1200342E+02  9.8186780E-06  0.0000000E+00  1.0000000E+00
 13  1  5  5   0   0 -1.9290764E+02 -8.3764769E+01 -9.8926450E+01  2.3241415E+02  6.0315660E-06  0.0000000E+00  1.0000000E+00
</event>
<event>
9 100 1.0000000E+00 1.0000000E+03 7.8125000E-03 0.0000000E+00
 21 -1  0  0 501 502  0.0000000E+00  0.0000000E+00  9.6454444E+01  9.6454444E+01  0.0000000E+00  0.0000000E+00  1.0000000E+00
 21 -1  0  0 502 501  0.0000000E+00  0.0000000E+00 -2.5572363E+03  2.5572363E+03  0.0000000E+00  0.0000000E+00  1.0000000E+00
 39  2  1  2   0   0 -2.5863756E-12 -1.8047785E-12 -2.4607818E+03  2.6536907E+03  9.9329110E+02  0.0000000E+00  1.0000000E+00
 23  2  3  3   0   0 -1.7839642E+02 -1.2461736E+02 -6.1032377E+01  2.4237808E+02  8.7563784E+01  0.0000000E+00  1.0000000E+00
 23  2  3  3   0   0  1.7839642E+02  1.2461736E+02 -2.3997495E+03  2.4113127E+03  9.0974845E+01  0.0000000E+00  1.0000000E+00
-11  1  4  4   0   0  3.5537114E+00  8.0629039E+00 -5.6896404E+00  1.0488627E+01  1.0873560E-05  0.0000000E+00  1.0000000E+00
 11  1  4  4   0   0 -1.8195013E+02 -1.3268026E+02 -5.5342737E+01  2.3188946E+02  2.7560301E-06  0.0000000E+00  1.0000000E+00
-13  1  5  5   0   0  7.0221583E+01  1.5670054E+01 -1.1351001E+03  1.1373780E+03  3.0517578E-05  0.0000000E+00  1.0000000E+00
 13  1  5  5   0   0  1.0817483E+02  1.0894731E+02 -1.2646494E+03  1.2739346E+03  4.0370961E-05  0.0000000E+00  1.0000000E+00
</event>
<event>
9 100 1.0000000E+00 1.0000000E+03 7.8125000E-03 0.0000000E+00
 21 -1  0  0 501 502  0.0000000E+00  0.0000000E+00  1.7708071E+03  1.7708071E+03  0.0000000E+00  0.0000000E+00  1.0000000E+00
 21 -1  0  0 502 501  0.0000000E+00  0.0000000E+00 -1.4097543E+02  1.4097543E+02  0.0000000E+00  0.0000000E+00  1.0000000E+00
 39  2  1  2   0   0  1.8189894E-12 -2.4442670E-12  1.6298317E+03  1.9117825E+03  9.9928034E+02  0.0000000E+00  1.0000000E+00
 23  2  3  3   0   0  2.1200365E+02 -2.9028621E+02  1.7352670E+02  4.0916445E+02  8.9957796E+01  0.0000000E+00  1.0000000E+00
 23  2  3  3   0   0 -2.1200365E+02  2.9028621E+02  1.4563050E+03  1.5026181E+03  8.8460739E+01  0.0000000E+00  1.0000000E+00
-11  1  4  4   0   0  1.0919596E+02 -2.1914005E+02  1.0302745E+02  2.6563279E+02  3.9320999E-06  0.0000000E+00  1.0000000E+00
 11  1  4  4   0   0  1.0280768E+02 -7.1146153E+01  7.0499243E+01  1.4353166E+02  9.6316385E-06  0.0000000E+00  1.0000000E+00
-13  1  5  5   0   0 -1.0178159E+00  4.1988140E+00  8.7688286E-01  4.4085045E+00  4.3158373E-05  0.0000000E+00  1.0000000E+00
 13  1  5  5   0   0 -2.1098583E+02  2.8608739E+02  1.4554281E+03  1.4982096E+03  1.3259103E-06  0.0000000E+00  1.0000000E+00
</event>
<event>
9 100 1.0000000E+00 1.0000000E+03 7.8125000E-03 0.0000000E+00
 21 -1  0  0 501 502  0.0000000E+00  0.0000000E+00  4.1248439E+02  4.1248439E+02  0.0000000E+00  0.0000000E+00  1.0000000E+00
 21 -1  0  0 502 501  0.0000000E+00  0.0000000E+00 -5.9848926E+02  5.9848926E+02  0.0000000E+00  0.0000000E+00  1.0000000E+00
 39  2  1  2   0   0 -3.4106051E-13  1.9895197E-13 -1.8600487E+02  1.0109737E+03  9.9371521E+02  0.0000000E+00  1.0000000E+00
 23  2  3  3   0   0  2.4547347E+02 -1.9145425E+02  2.8993622E+02  4.3487307E+02  9.0219856E+01  0.0000000E+00  1.0000000E+00
 23  2  3  3   0   0 -2.4547347E+02  1.9145425E+02 -4.7594108E+02  5.7610059E+02  9.1978376E+01  0.0000000E+00  1.0000000E+00
-11  1  4  4   0   0  2.3069397E+02 -1.9866594E+02  2.8653658E+02  4.1808023E+02  1.2481446E-06  0.0000000E+00  1.0000000E+00
 11  1  4  4   0   0  1.4779496E+01  7.2116895E+00  3.3996353E+00  1.6792840E+01  1.2063132E-05  0.0000000E+00  1.0000000E+00
-13  1  5  5   0   0 -1.7822479E+02  1.0638434E+02 -3.7146031E+02  4.2551670E+02  4.2649612E-06  0.0000000E+00  1.0000000E+00
 13  1  5  5   0   0 -6.7248674E+01  8.5069919E+01 -1.0448078E+02  1.5058389E+02  9.3440618E-06  0.0000000E+00  1.0000000E+00
</event>
<event>
9 100 1.0000000E+00 1.0000000E+03 7.8125000E-03 0.0000000E+00
 21 -1  0  0 501 502  0.0000000E+00  0.0000000E+00  8.8226556E+02  8.8226556E+02  0.0000000E+00  0.0000000E+00  1.0000000E+00
 21 -1  0  0 502 501  0.0000000E+00  0.0000000E+00 -2.9199566E+02  2.9199566E+02  0.0000000E+00  0.0000000E+00  1.0000000E+00
 39  2  1  2   0   0  2.2737368E-13  1.4210855E-13  5.9026990E+02  1.1742612E+03  1.0151211E+03  0.0000000E+00  1.0000000E+00
 23  2  3  3   0   0  3.0368364E+02  2.0032087E+02  6.8944448E+02  7.8623259E+02  1.0235124E+02  0.0000000E+00  1.0000000E+00
 23  2  3  3   0   0 -3.0368364E+02 -2.0032087E+02 -9.9174588E+01  3.8802863E+02  9.1533674E+01  0.0000000E+00  1.0000000E+00
-11  1  4  4   0   0  2.7945642E+02  1.3987934E+02  5.5835847E+02  6.3986428E+02  6.0315660E-06  0.0000000E+00  1.0000000E+00
 11  1  4  4   0   0  2.4227227E+01  6.0441533E+01  1.3108602E+02  1.4636831E+02  2.1579186E-05  0.0000000E+00  1.0000000E+00
-13  1  5  5   0   0 -1.3423169E+02 -1.1534003E+02 -6.6922569E+00  1.7710521E+02  9.7256079E-06  0.0000000E+00  1.0000000E+00
 13  1  5  5   0   0 -1.6945195E+02 -8.4980836E+01 -9.2482331E+01  2.1092342E+02  9.4720764E-06  0.0000000E+00  1.0000000E+00
</event>
<event>
9 100 1.0000000E+00 1.0000000E+03 7.8125000E-03 0.0000000E+00
 21 -1  0  0 501 502  0.0000000E+00  0.0000000E+00  4.2377319E+02  4.2377319E+02  0.0000000E+00  0.0000000E+00  1.0000000E+00
 21 -1  0  0 502 501  0.0000000E+00  0.0000000E+00 -5.8122477E+02  5.8122477E+02  0.0000000E+00  0.0000000E+00  1.0000000E+00
 39  2  1  2   0   0  1.2505552E-12  1.4779289E-12 -1.5745158E+02  1.0049980E+03  9.9258747E+02  0.0000000E+00  1.0000000E+00
 23  2  3  3   0   0 -2.8587621E+02 -3.4785686E+02  1.1143376E+02  4.7260978E+02  9.0625148E+01  0.0000000E+00  1.0000000E+00
 23  2  3  3   0   0  2.8587621E+02  3.4785686E+02 -2.6888534E+02  5.3238818E+02  9.1696464E+01  0.0000000E+00  1.0000000E+00
-11  1  4  4   0   0 -3.7480954E+01 -1.0585454E+02  2.1322141E+01  1.1430065E+02  1.3486992E-06  0.0000000E+00  1.0000000E+00
 11  1  4  4   0   0 -2.4839525E+02 -2.4200232E+02  9.0111620E+01  3.5830913E+02  2.1720966E-06  0.0000000E+00  1.0000000E+00
-13  1  5  5   0   0  6.5471884E+01  2.8506558E+01 -3.8581477E+01  8.1164782E+01  1.2361032E-05  0.0000000E+00  1.0000000E+00
 13  1  5  5   0   0  2.2040432E+02  3.1935030E+02 -2.3030386E+02  4.5122339E+02  2.9004872E-06  0.0000000E+00  1.0000000E+00
</event>
<event>
9 100 1.0000000E+00 1.0000000E+03 7.8125000E-03 0.0000000E+00
 21 -1  0  0 501 502  0.0000000E+00  0.0000000E+00  1.0834334E+03  1.0834334E+03  0.0000000E+00  0.0000000E+00  1.0000000E+00
 21 -1  0  0 502 501  0.0000000E+00  0.0000000E+00 -2.5350414E+02  2.5350414E+02  0.0000000E+00  0.0000000E+00  1.0000000E+00
 39  2  1  2   0   0  6.8212103E-13 -5.6843419E-14  8.2992925E+02  1.3369375E+03  1.0481505E+03  0.0000000E+00  1.0000000E+00
 23  2  3  3   0   0 -2.2112066E+02  1.8322003E+01 -1.7928861E+02  2.9968127E+02  9.1839067E+01  0.0000000E+00  1.0000000E+00
 23  2  3  3   0   0  2.2112066E+02 -1.8322003E+01  1.0092179E+03  1.0372563E+03  9.0276540E+01  0.0000000E+00  1.0000000E+00
-11  1  4  4   0   0 -2.1892324E+02  8.3803593E+00 -1.8607970E+02  2.8744264E+02  2.0767750E-06  0.0000000E+00  1.0000000E+00
 11  1  4  4   0   0 -2.1974167E+00  9.9416439E+00  6.7910955E+00  1.2238623E+01  1.1757687E-05  0.0000000E+00  1.0000000E+00
-13  1  5  5   0   0  2.1421675E+02 -2.3693672E+01  8.2044130E+02  8.4827715E+02  0.0000000E+00  0.0000000E+00  1.0000000E+00
 13  1  5  5   0   0  6.9039105E+00  5.3716688E+00  1.8877656E+02  1.8897912E+02  2.6428998E-05  0.0000000E+00  1.0000000E+00
</event>
<event>
9 100 1.0000000E+00 1.0000000E+03 7.8125000E-03 0.0000000E+00
 21 -1  0  0 501 502  0.0000000E+00  0.0000000E+00  1.2832453E+03  1.2832453E+03  0.0000000E+00  0.0000000E+00  1.0000000E+00
 21 -1  0  0 502 501  0.0000000E+00  0.0000000E+00 -1.8783860E+02  1.8783860E+02  0.0000000E+00  0.0000000E+00  1.0000000E+00
 39  2  1  2   0   0  1.1368684E-13 -1.1368684E-13  1.0954067E+03  1.4710839E+03  9.8192261E+02  0.0000000E+00  1.0000000E+00
 23  2  3  3   0   0 -1.4435641E+02  1.7430841E+02  1.1864814E+03  1.2113028E+03  9.1072323E+01  0.0000000E+00  1.0000000E+00
 23  2  3  3   0   0  1.4435641E+02 -1.7430841E+02 -9.1074630E+01  2.5978117E+02  8.9271891E+01  0.0000000E+00  1.0000000E+00
-11  1  4  4   0   0 -1.8168069E+01  6.3384866E+00  2.8306306E+01  3.4227213E+01  2.6428998E-05  0.0000000E+00  1.0000000E+00
 11  1  4  4   0   0 -1.2618834E+02  1.6796992E+02  1.1581750E+03  1.1770755E+03  1.3486992E-06  0.0000000E+00  1.0000000E+00
-13  1  5  5   0   0  2.6056435E+00 -3.6346421E+01  9.8070787E+00  3.7736329E+01  3.8146973E-06  0.0000000E+00  1.0000000E+00
 13  1  5  5   0   0  1.4175077E+02 -1.3796199E+02 -1.0088171E+02  2.2204484E+02  8.5963041E-07  0.0000000E+00  1.0000000E+00
</event>
<event>
9 100 1.0000000E+00 1.0000000E+03 7.8125000E-03 0.0000000E+00
 21 -1  0  0 501 502  0.0000000E+00  0.0000000E+00  5.3184650E+02  5.3184650E+02  0.0000000E+00  0.0000000E+00  1.0000000E+00
 21 -1  0  0 502 501  0.0000000E+00  0.0000000E+00 -4.7047688E+02  4.7047688E+02  0.0000000E+00  0.0000000E+00  1.0000000E+00
 39  2  1  2   0   0  4.5474735E-13 -2.8421709E-13  6.1369623E+01  1.0023234E+03  1.0004429E+03  0.0000000E+00  1.0000000E+00
 23  2  3  3   0   0  3.6683171E+02 -1.9786489E+02  2.9278099E+02  5.1679525E+02  8.7410577E+01  0.0000000E+00  1.0000000E+00
 23  2  3  3   0   0 -3.6683171E+02  1.9786489E+02 -2.3141136E+02  4.8552812E+02  9.2034323E+01  0.0000000E+00  1.0000000E+00
-11  1  4  4   0   0  1.8334682E+02 -8.5924791E+01  1.9336765E+02  2.7998245E+02  9.0473490E-06  0.0000000E+00  1.0000000E+00
 11  1  4  4   0   0  1.8348489E+02 -1.1194010E+02  9.9413336E+01  2.3681280E+02  1.0092740E-05  0.0000000E+00  1.0000000E+00
-13  1  5  5   0   0 -3.4759473E+02  1.5677991E+02 -2.1072747E+02  4.3566972E+02  3.2950103E-06  0.0000000E+00  1.0000000E+00
 13  1  5  5   0   0 -1.9236985E+01  4.1084976E+01 -2.0683895E+01  4.9858403E+01  1.9073486E-05  0.0000000E+00  1.0000000E+00
</event>
<event>
9 100 1.0000000E+00 1.0000000E+03 7.8125000E-03 0.0000000E+00
 21 -1  0  0 501 502  0.0000000E+00  0.0000000E+00  1.9301121E+02  1.9301121E+02  0.0000000E+00  0.0000000E+00  1.0000000E+00
 21 -1  0  0 502 501  0.0000000E+00  0.0000000E+00 -1.2975208E+03  1.2975208E+03  0.0000000E+00  0.0000000E+00  1.0000000E+00
 39  2  1  2   0   0  3.1974423E-13 -1.7621460E-12 -1.1045096E+03  1.4905320E+03  1.0008717E+03  0.0000000E+00  1.0000000E+00
 23  2  3  3   0   0  5.5673813E+01 -2.9587124E+02  2.7387631E+01  3.1581070E+02  9.1361633E+01  0.0000000E+00  1.0000000E+00
 23  2  3  3   0   0 -5.5673813E+01  2.9587124E+02 -1.1318972E+03  1.1747213E+03  9.0219014E+01  0.0000000E+00  1.0000000E+00
-11  1  4  4   0   0  7.5679600E+00 -6.5145837E+00 -1.6431253E+01  1.9227582E+01  2.1637061E-05  0.0000000E+00  1.0000000E+00
 11  1  4  4   0   0  4.8105853E+01 -2.8935666E+02  4.3818884E+01  2.9658311E+02  4.3245213E-06  0.0000000E+00  1.0000000E+00
-13  1  5  5   0   0 -6.5518990E+01  1.8436461E+02 -5.9730726E+02  6.2853720E+02  1.0789593E-05  0.0000000E+00  1.0000000E+00
 13  1  5  5   0   0  9.8451778E+00  1.1150663E+02 -5.3458993E+02  5.4618408E+02  2.4126264E-05  0.0000000E+00  1.0000000E+00
</event>
<event>
9 100 1.0000000E+00 1.0000000E+03 7.8125000E-03 0.0000000E+00
 21 -1  0  0 501 502  0.0000000E+00  0.0000000E+00  7.1045912E+02  7.1045912E+02  0.0000000E+00  0.0000000E+00  1.0000000E+00
 21 -1  0  0 502 501  0.0000000E+00  0.0000000E+00 -3.5097437E+02  3.5097437E+02  0.0000000E+00  0.0000000E+00  1.0000000E+00
 39  2  1  2   0   0 -9.9475983E-13  1.5916157E-12  3.5948475E+02  1.0614335E+03  9.9870504E+02  0.0000000E+00  1.0000000E+00
 23  2  3  3   0   0 -2.0939018E+02  3.7692984E+02  4.3005418E+02  6.1550272E+02  8.9312083E+01  0.0000000E+00  1.0000000E+00
 23  2  3  3   0   0  2.0939018E+02 -3.7692984E+02 -7.0569431E+01  4.4593076E+02  8.9184320E+01  0.0000000E+00  1.0000000E+00
-11  1  4  4   0   0 -2.0187264E+02  3.0779430E+02  3.8495390E+02  5.3261562E+02  4.3179441E-06  0.0000000E+00  1.0000000E+00
 11  1  4  4   0   0 -7.5175494E+00  6.9135541E+01  4.5100280E+01  8.2887103E+01  9.3440618E-06  0.0000000E+00  1.0000000E+00
-13  1  5  5   0   0  2.1712617E+02 -3.5440117E+02 -6.0240027E+01  4.1996765E+02  2.9610973E-06  0.0000000E+00  1.0000000E+00
 13  1  5  5   0   0 -7.7359893E+00 -2.2528666E+01 -1.0329404E+01  2.5963107E+01  1.5742849E-05  0.0000000E+00  1.0000000E+00
</event>
<event>
9 100 1.0000000E+00 1.0000000E+03 7.8125000E-03 0.0000000E+00
 21 -1  0  0 501 502  0.0000000E+00  0.0000000E+00  1.6177396E+03  1.6177396E+03  0.0000000E+00  0.0000000E+00  1.0000000E+00
 21 -1  0  0 502 501  0.0000000E+00  0.0000000E+00 -1.5461668E+02  1.5461668E+02  0.0000000E+00  0.0000000E+00  1.0000000E+00
 39  2  1  2   0   0  6.9633188E-13  2.7284841E-12  1.4631229E+03  1.7723562E+03  1.0002590E+03  0.0000000E+00  1.0000000E+00
 23  2  3  3   0   0  1.0628496E+02  4.0820298E+02  1.1795159E+03  1.2563239E+03  9.5738656E+01  0.0000000E+00  1.0000000E+00
 23  2  3  3   0   0 -1.0628496E+02 -4.0820298E+02  2.8360701E+02  5.1603233E+02  8.9052022E+01  0.0000000E+00  1.0000000E+00
-11  1  4  4   0   0  1.1611241E+02  2.9748980E+02  8.1879275E+02  8.7886509E+02  1.5728400E-05  0.0000000E+00  1.0000000E+00
 11  1  4  4   0   0 -9.8274507E+00  1.1071318E+02  3.6072312E+02  3.7745882E+02  3.4119690E-05  0.0000000E+00  1.0000000E+00
-13  1  5  5   0   0  5.5737849E+00 -7.2496768E+01  7.8642663E+01  1.0710517E+02  1.6845247E-05  0.0000000E+00  1.0000000E+00
 13  1  5  5   0   0 -1.1185875E+02 -3.3570622E+02  2.0496435E+02  4.0892717E+02  5.5608291E-06  0.0000000E+00  1.0000000E+00
</event>
<event>
9 100 1.0000000E+00 1.0000000E+03 7.8125000E-03 0.0000000E+00
 21 -1  0  0 501 502  0.0000000E+00  0.0000000E+00  2.1769451E+02  2.1769451E+02  0.0000000E+00  0.0000000E+00  1.0000000E+00
 21 -1  0  0 502 501  0.0000000E+00  0.0000000E+00 -1.1487952E+03  1.1487952E+03  0.0000000E+00  0.0000000E+00  1.0000000E+00
 39  2  1  2   0   0 -3.4106051E-12  1.3073986E-12 -9.3110071E+02  1.3664897E+03  1.0001728E+03  0.0000000E+00  1.0000000E+00
 23  2  3  3   0   0 -4.0577550E+02  1.5449178E+02 -7.8014970E+02  8.9736693E+02  9.0068764E+01  0.0000000E+00  1.0000000E+00
 23  2  3  3   0   0  4.0577550E+02 -1.5449178E+02 -1.5095100E+02  4.6912280E+02  9.3640419E+01  0.0000000E+00  1.0000000E+00
-11  1  4  4   0   0 -3.6762214E+02  1.3677627E+02 -7.4733412E+02  8.4401545E+02  2.2868307E-06  0.0000000E+00  1.0000000E+00
 11  1  4  4   0   0 -3.8153365E+01  1.7715510E+01 -3.2815579E+01  5.3351483E+01  1.0789593E-05  0.0000000E+00  1.0000000E+00
-13  1  5  5   0   0  1.9899124E+01 -3.4857878E+01 -1.1860258E+01  4.1853465E+01  1.7790564E-05  0.0000000E+00  1.0000000E+00
 13  1  5  5   0   0  3.8587638E+02 -1.1963390E+02 -1.3909074E+02  4.2726933E+02  3.2906947E-06  0.0000000E+00  1.0000000E+00
</event>
<event>
9 100 1.0000000E+00 1.0000000E+03 7.8125000E-03 0.0000000E+00
 21 -1  0  0 501 502  0.0000000E+00  0.0000000E+00  1.4577854E+02  1.4577854E+02  0.0000000E+00  0.0000000E+00  1.0000000E+00
 21 -1  0  0 502 501  0.0000000E+00  0.0000000E+00 -1.7248185E+03  1.7248185E+03  0.0000000E+00  0.0000000E+00  1.0000000E+00
 39  2  1  2   0   0  2.2737368E-13  2.2737368E-13 -1.5790400E+03  1.8705971E+03  1.0028789E+03  0.0000000E+00  1.0000000E+00
 23  2  3  3   0   0  2.5791029E+02  2.4645754E+02 -1.4250048E+03  1.4718233E+03  9.1466679E+01  0.0000000E+00  1.0000000E+00
 23  2  3  3   0   0 -2.5791029E+02 -2.4645754E+02 -1.5403522E+02  3.9877379E+02  8.9636219E+01  0.0000000E+00  1.0000000E+00
-11  1  4  4   0   0  1.7543938E+02  2.1945413E+02 -1.1212745E+03  1.1559392E+03  1.0092740E-05  0.0000000E+00  1.0000000E+00
 11  1  4  4   0   0  8.2470905E+01  2.7003411E+01 -3.0373029E+02  3.1588404E+02  4.0370961E-05  0.0000000E+00  1.0000000E+00
-13  1  5  5   0   0 -8.5318777E+01 -9.7602239E+01 -1.1925865E+01  1.3018340E+02  2.0185481E-05  0.0000000E+00  1.0000000E+00
 13  1  5  5   0   0 -1.7259151E+02 -1.4885530E+02 -1.4210936E+02  2.6859039E+02  1.0904881E-05  0.0000000E+00  1.0000000E+00
</event>
<event>
9 100 1.0000000E+00 1.0000000E+03 7.8125000E-03 0.0000000E+00
 21 -1  0  0 501 502  0.0000000E+00  0.0000000E+00  1.2862008E+03  1.2862008E+03  0.0000000E+00  0.0000000E+00  1.0000000E+00
 21 -1  0  0 502 501  0.0000000E+00  0.0000000E+00 -1.9295514E+02  1.9295514E+02  0.0000000E+00  0.0000000E+00  1.0000000E+00
 39  2  1  2   0   0 -1.7621460E-12 -7.6028073E-13  1.0932457E+03  1.4791560E+03  9.9635147E+02  0.0000000E+00  1.0000000E+00
 23  2  3  3   0   0 -1.4440042E+02 -6.2906213E+01 -1.4289128E+02  2.2965400E+02  8.6685463E+01  0.0000000E+00  1.0000000E+00
 23  2  3  3   0   0  1.4440042E+02  6.2906213E+01  1.2361370E+03  1.2495020E+03  9.1716449E+01  0.0000000E+00  1.0000000E+00
-11  1  4  4   0   0 -1.1396065E+02 -2.5819529E+01 -5.4179317E+01  1.2879859E+02  3.0157830E-06  0.0000000E+00  1.0000000E+00
 11  1  4  4   0   0 -3.0439768E+01 -3.7086684E+01 -8.8711963E+01  1.0085541E+02  3.6935647E-06  0.0000000E+00  1.0000000E+00
-13  1  5  5   0   0  1.4127687E+02  3.3447708E+01  1.1306957E+03  1.1399784E+03  7.0080464E-06  0.0000000E+00  1.0000000E+00
 13  1  5  5   0   0  3.1235499E+00  2.9458506E+01  1.0544124E+02  1.0952358E+02  2.1579186E-05  0.0000000E+00  1.0000000E+00
</event>
<event>
9 100 1.0000000E+00 1.0000000E+03 7.8125000E-03 0.0000000E+00
 21 -1  0  0 501 502  0.0000000E+00  0.0000000E+00  1.1483858E+03  1.1483858E+03  0.0000000E+00  0.0000000E+00  1.0000000E+00
 21 -1  0  0 502 501  0.0000000E+00  0.0000000E+00 -2.1747165E+02  2.1747165E+02  0.0000000E+00  0.0000000E+00  1.0000000E+00
 39  2  1  2   0   0 -8.6686214E-13  1.2505552E-12  9.3091417E+02  1.3658575E+03  9.9948258E+02  0.0000000E+00  1.0000000E+00
 23  2  3  3   0   0 -1.0827282E+02  1.6055380E+02  1.0828219E+03  1.1036144E+03  8.9223705E+01  0.0000000E+00  1.0000000E+00
 23  2  3  3   0   0  1.0827282E+02 -1.6055380E+02 -1.5190776E+02  2.6224307E+02  9.0525876E+01  0.0000000E+00  1.0000000E+00
-11  1  4  4   0   0 -1.1084625E+02  1.6523120E+02  1.0786273E+03  1.0968251E+03  1.2200766E-06  0.0000000E+00  1.0000000E+00
 11  1  4  4   0   0  2.5734282E+00 -4.6774027E+00  4.1945847E+00  6.7893424E+00  4.3158373E-05  0.0000000E+00  1.0000000E+00
-13  1  5  5   0   0  5.8529593E+01 -4.3274428E+01 -1.3317491E+01  7.3998277E+01  1.1601949E-05  0.0000000E+00  1.0000000E+00
 13  1  5  5   0   0  4.9743230E+01 -1.1727937E+02 -1.3859027E+02  1.8824479E+02  5.4862182E-06  0.0000000E+00  1.0000000E+00
</event>
<event>
9 100 1.0000000E+00 1.0000000E+03 7.8125000E-03 0.0000000E+00
 21 -1  0  0 501 502  0.0000000E+00  0.0000000E+00  2.7112822E+02  2.7112822E+02  0.0000000E+00  0.0000000E+00  1.0000000E+00
 21 -1  0  0 502 501  0.0000000E+00  0.0000000E+00 -9.2595187E+02  9.2595187E+02  0.0000000E+00  0.0000000E+00  1.0000000E+00
 39  2  1  2   0   0  5.2580162E-13  1.4068746E-12 -6.5482366E+02  1.1970801E+03  1.0021012E+03  0.0000000E+00  1.0000000E+00
 23  2  3  3   0   0  4.1091162E+01  1.0844091E+02 -8.9947490E+02  9.1143175E+02  9.0580452E+01  0.0000000E+00  1.0000000E+00
 23  2  3  3   0   0 -4.1091162E+01 -1.0844091E+02  2.4465125E+02  2.8564834E+02  9.1064949E+01  0.0000000E+00  1.0000000E+00
-11  1  4  4   0   0  3.5323596E+01  1.0092695E+02 -8.9423744E+02  9.0060791E+02  9.3105432E-07  0.0000000E+00  1.0000000E+00
 11  1  4  4   0   0  5.7675664E+00  7.5139651E+00 -5.2374599E+00  1.0823839E+01  1.5258789E-05  0.0000000E+00  1.0000000E+00
-13  1  5  5   0   0 -6.6609802E+01 -1.0077743E+02  1.9992797E+02  2.3358971E+02  5.3312015E-06  0.0000000E+00  1.0000000E+00
 13  1  5  5   0   0  2.5518640E+01 -7.6634834E+00  4.4723275E+01  5.2058633E+01  1.5728400E-05  0.0000000E+00  1.0000000E+00
</event>
<event>
9 100 1.0000000E+00 1.0000000E+03 7.8125000E-03 0.0000000E+00
 21 -1  0  0 501 502  0.0000000E+00  0.0000000E+00  3.2960089E+02  3.2960089E+02  0.0000000E+00  0.0000000E+00  1.0000000E+00
 21 -1  0  0 502 501  0.0000000E+00  0.0000000E+00 -9.4385981E+02  9.4385981E+02  0.0000000E+00  0.0000000E+00  1.0000000E+00
 39  2  1  2   0   0  4.5474735E-13 -5.6843419E-13 -6.1425892E+02  1.2734607E+03  1.1155215E+03  0.0000000E+00  1.0000000E+00
 23  2  3  3   0   0  2.5845382E+02 -3.2580670E+02 -7.1760928E+02  8.3592917E+02  1.0424067E+02  0.0000000E+00  1.0000000E+00
 23  2  3  3   0   0 -2.5845382E+02  3.2580670E+02  1.0335035E+02  4.3753153E+02  8.8341186E+01  0.0000000E+00  1.0000000E+00
-11  1  4  4   0   0  2.3006937E+02 -2.7321632E+02 -6.7098584E+02  7.6013227E+02  1.5078915E-06  0.0000000E+00  1.0000000E+00
 11  1  4  4   0   0  2.8384453E+01 -5.2590375E+01 -4.6623439E+01  7.5796898E+01  0.0000000E+00  0.0000000E+00  1.0000000E+00
-13  1  5  5   0   0 -2.0917756E+02  3.0609529E+02  7.8649653E+01  3.7899254E+02  2.3602235E-06  0.0000000E+00  1.0000000E+00
 13  1  5  5   0   0 -4.9276256E+01  1.9711413E+01  2.4700699E+01  5.8538993E+01  9.2462155E-06  0.0000000E+00  1.0000000E+00
</event>
<event>
9 100 1.0000000E+00 1.0000000E+03 7.8125000E-03 0.0000000E+00
 21 -1  0  0 501 502  0.0000000E+00  0.0000000E+00  1.2330057E+03  1.2330057E+03  0.0000000E+00  0.0000000E+00  1.0000000E+00
 21 -1  0  0 502 501  0.0000000E+00  0.0000000E+00 -1.9931279E+02  1.9931279E+02  0.0000000E+00  0.0000000E+00  1.0000000E+00
 39  2  1  2   0   0  3.6379788E-12  3.4674486E-12  1.0336929E+03  1.4323184E+03  9.9147122E+02  0.0000000E+00  1.0000000E+00
 23  2  3  3   0   0  2.8396230E+02  2.7416175E+02  9.2956666E+02  1.0139877E+03  9.0981953E+01  0.0000000E+00  1.0000000E+00
 23  2  3  3   0   0 -2.8396230E+02 -2.7416175E+02  1.0412621E+02  4.1833070E+02  9.1427883E+01  0.0000000E+00  1.0000000E+00
-11  1  4  4   0   0  2.2366445E+01  6.1356254E+01  1.1274414E+02  1.3029232E+02  3.8902432E-05  0.0000000E+00  1.0000000E+00
 11  1  4  4   0   0  2.6159585E+02  2.1280550E+02  8.1682253E+02  8.8369543E+02  7.3871295E-06  0.0000000E+00  1.0000000E+00
-13  1  5  5   0   0 -2.8934287E+02 -2.7394937E+02  1.0650339E+02  4.1244457E+02  3.2099467E-06  0.0000000E+00  1.0000000E+00
 13  1  5  5   0   0  5.3805680E+00 -2.1237935E-01 -2.3771743E+00  5.8861341E+00  2.7508173E-05  0.0000000E+00  1.0000000E+00
</event>
<event>
9 100 1.0000000E+00 1.0000000E+03 7.8125000E-03 0.0000000E+00
 21 -1  0  0 501 502  0.0000000E+00  0.0000000E+00  2.0882353E+02  2.0882353E+02  0.0000000E+00  0.0000000E+00  1.0000000E+00
 21 -1  0  0 502 501  0.0000000E+00  0.0000000E+00 -1.2048824E+03  1.2048824E+03  0.0000000E+00  0.0000000E+00  1.0000000E+00
 39  2  1  2   0   0  5.1727511E-12  3.6948222E-12 -9.9605887E+02  1.4137059E+03  1.0032104E+03  0.0000000E+00  1.0000000E+00
 23  2  3  3   0   0  2.9206318E+02  2.0906080E+02 -9.7423797E+02  1.0423618E+03  9.1494125E+01  0.0000000E+00  1.0000000E+00
 23  2  3  3   0   0 -2.9206318E+02 -2.0906080E+02 -2.1820901E+01  3.7134413E+02  9.1722343E+01  0.0000000E+00  1.0000000E+00
-11  1  4  4   0   0 -2.4787817E+00  1.0225497E-02  7.7622913E-01  2.5974978E+00  2.1579186E-05  0.0000000E+00  1.0000000E+00
 11  1  4  4   0   0  2.9454196E+02  2.0905058E+02 -9.7501420E+02  1.0397643E+03  1.1694326E-06  0.0000000E+00  1.0000000E+00
-13  1  5  5   0   0 -1.6289415E+01 -4.5439208E+01 -1.5228005E+01  5.0615796E+01  1.4312315E-05  0.0000000E+00  1.0000000E+00
 13  1  5  5   0   0 -2.7577376E+02 -1.6362159E+02 -6.5928960E+00  3.2072833E+02  3.6079278E-06  0.0000000E+00  1.0000000E+00
</event>
<event>
9 100 1.0000000E+00 1.0000000E+03 7.8125000E-03 0.0000000E+00
 21 -1  0  0 501 502  0.0000000E+00  0.0000000E+00  2.9181520E+02  2.9181520E+02  0.0000000E+00  0.0000000E+00  1.0000000E+00
 21 -1  0  0 502 501  0.0000000E+00  0.0000000E+00 -8.6428790E+02  8.6428790E+02  0.0000000E+00  0.0000000E+00  1.0000000E+00
 39  2  1  2   0   0  1.1368684E-12  1.0800250E-12 -5.7247270E+02  1.1561031E+03  1.0044149E+03  0.0000000E+00  1.0000000E+00
 23  2  3  3   0   0  3.4717533E+02  3.5003313E+02 -2.5023013E+02  5.5928834E+02  8.4465570E+01  0.0000000E+00  1.0000000E+00
 23  2  3  3   0   0 -3.4717533E+02 -3.5003313E+02 -3.2224257E+02  5.9681476E+02  9.6403758E+01  0.0000000E+00  1.0000000E+00
-11  1  4  4   0   0  7.9582169E+01  5.1604171E+01 -1.9635056E+01  9.6859938E+01  1.7271776E-05  0.0000000E+00  1.0000000E+00
 11  1  4  4   0   0  2.6759316E+02  2.9842895E+02 -2.3059507E+02  4.6242840E+02  4.2782684E-06  0.0000000E+00  1.0000000E+00
-13  1  5  5   0   0 -2.9855503E+02 -2.5112378E+02 -2.7264680E+02  4.7595645E+02  2.3360155E-06  0.0000000E+00  1.0000000E+00
 13  1  5  5   0   0 -4.8620293E+01 -9.8909341E+01 -4.9595775E+01  1.2085831E+02  1.2063132E-05  0.0000000E+00  1.0000000E+00
</event>
<event>
9 100 1.0000000E+00 1.0000000E+03 7.8125000E-03 0.0000000E+00
 21 -1  0  0 501 502  0.0000000E+00  0.0000000E+00  2.1764371E+03  2.1764371E+03  0.0000000E+00  0.0000000E+00  1.0000000E+00
 21 -1  0  0 502 501  0.0000000E+00  0.0000000E+00 -1.1527554E+02  1.1527554E+02  0.0000000E+00  0.0000000E+00  1.0000000E+00
 39  2  1  2   0   0  5.1727511E-12 -4.1495696E-12  2.0611615E+03  2.2917126E+03  1.0017783E+03  0.0000000E+00  1.0000000E+00
 23  2  3  3   0   0 -2.4994278E+02  1.9983347E+02  1.7495652E+02  3.7635255E+02  9.2879730E+01  0.0000000E+00  1.0000000E+00
 23  2  3  3   0   0  2.4994278E+02 -1.9983347E+02  1.8862050E+03  1.9153601E+03  9.1815398E+01  0.0000000E+00  1.0000000E+00
-11  1  4  4   0   0 -4.9669701E-01  3.6415623E+00  2.5147626E+01  2.5414775E+01  1.8977879E-05  0.0000000E+00  1.0000000E+00
 11  1  4  4   0   0 -2.4944608E+02  1.9619191E+02  1.4980890E+02  3.5093777E+02  2.9586968E-06  0.0000000E+00  1.0000000E+00
-13  1  5  5   0   0  1.2541217E+02 -1.2672788E+02  1.2704370E+03  1.2828868E+03  7.6293945E-06  0.0000000E+00  1.0000000E+00
 13  1  5  5   0   0  1.2453061E+02 -7.3105597E+01  6.1576795E+02  6.3247329E+02  1.5258789E-05  0.0000000E+00  1.0000000E+00
</event>
<event>
9 100 1.0000000E+00 1.0000000E+03 7.8125000E-03 0.0000000E+00
 21 -1  0  0 501 502  0.0000000E+00  0.0000000E+00  9.1900972E+02  9.1900972E+02  0.0000000E+00  0.0000000E+00  1.0000000E+00
 21 -1  0  0 502 501  0.0000000E+00  0.0000000E+00 -2.7825884E+02  2.7825884E+02  0.0000000E+00  0.0000000E+00  1.0000000E+00
 39  2  1  2   0   0 -6.8212103E-13  2.5579538E-13  6.4075088E+02  1.1972686E+03  1.0113804E+03  0.0000000E+00  1.0000000E+00
 23  2  3  3   0   0 -3.6090174E+02  1.5830757E+02 -3.8614737E+01  4.0627232E+02  9.0855625E+01  0.0000000E+00  1.0000000E+00
 23  2  3  3   0   0  3.6090174E+02 -1.5830757E+02  6.7936562E+02  7.9099624E+02  9.3947052E+01  0.0000000E+00  1.0000000E+00
-11  1  4  4   0   0 -2.8913121E+02  8.3985587E+01 -2.6512150E+01  3.0224713E+02  1.9515402E-06  0.0000000E+00  1.0000000E+00
 11  1  4  4   0   0 -7.1770531E+01  7.4321983E+01 -1.2102587E+01  1.0402518E+02  4.0179013E-06  0.0000000E+00  1.0000000E+00
-13  1  5  5   0   0  7.6114524E+01 -3.4965408E+01  7.8901279E+01  1.1507134E+02  1.0789593E-05  0.0000000E+00  1.0000000E+00
 13  1  5  5   0   0  2.8478722E+02 -1.2334216E+02  6.0046434E+02  6.7592490E+02  9.5367432E-07  0.0000000E+00  1.0000000E+00
</event>
<event>
9 100 1.0000000E+00 1.0000000E+03 7.8125000E-03 0.0000000E+00
 21 -1  0  0 501 502  0.0000000E+00  0.0000000E+00  3.8708251E+02  3.8708251E+02  0.0000000E+00  0.0000000E+00  1.0000000E+00
 21 -1  0  0 502 501  0.0000000E+00  0.0000000E+00 -6.3135702E+02  6.3135702E+02  0.0000000E+00  0.0000000E+00  1.0000000E+00
 39  2  1  2   0   0  3.9790393E-13  3.0553338E-13 -2.4427450E+02  1.0184395E+03  9.8871080E+02  0.0000000E+00  1.0000000E+00
 23  2  3  3   0   0  7.5158104E+01  6.2443521E+01  3.6842166E+02  3.9193309E+02  9.1263871E+01  0.0000000E+00  1.0000000E+00
 23  2  3  3   0   0 -7.5158104E+01 -6.2443521E+01 -6.1269616E+02  6.2650644E+02  8.6981648E+01  0.0000000E+00  1.0000000E+00
-11  1  4  4   0   0  5.4430259E+01 -9.5604478E+00  2.0197374E+02  2.0939782E+02  5.3947966E-06  0.0000000E+00  1.0000000E+00
 11  1  4  4   0   0  2.0727846E+01  7.2003969E+01  1.6644792E+02  1.8253527E+02  8.0921949E-06  0.0000000E+00  1.0000000E+00
-13  1  5  5   0   0 -6.9999647E+01 -4.4518821E+01 -2.5148937E+02  2.6481838E+02  1.2063132E-05  0.0000000E+00  1.0000000E+00
 13  1  5  5   0   0 -5.1584577E+00 -1.7924700E+01 -3.6120679E+02  3.6168806E+02  7.1366451E-06  0.0000000E+00  1.0000000E+00
</event>
<event>
9 100 1.0000000E+00 1.0000000E+03 7.8125000E-03 0.0000000E+00
 21 -1  0  0 501 502  0.0000000E+00  0.0000000E+00  4.7060524E+02  4.7060524E+02  0.0000000E+00  0.0000000E+00  1.0000000E+00
 21 -1  0  0 502 501  0.0000000E+00  0.0000000E+00 -5.4377694E+02  5.4377694E+02  0.0000000E+00  0.0000000E+00  1.0000000E+00
 39  2  1  2   0   0 -5.1159077E-13 -2.8421709E-13 -7.3171695E+01  1.0143822E+03  1.0117396E+03  0.0000000E+00  1.0000000E+00
 23  2  3  3   0   0 -4.0476923E+02 -2.2872977E+02  1.4015901E+02  4.9526943E+02  9.7425970E+01  0.0000000E+00  1.0000000E+00
 23  2  3  3   0   0  4.0476923E+02  2.2872977E+02 -2.1333071E+02  5.1911274E+02  8.8388972E+01  0.0000000E+00  1.0000000E+00
-11  1  4  4   0   0 -1.7947598E+02 -5.8013259E+01  8.6698432E+01  2.0759042E+02  1.3023854E-05  0.0000000E+00  1.0000000E+00
 11  1  4  4   0   0 -2.2529325E+02 -1.7071651E+02  5.3460580E+01  2.8767901E+02  8.4764427E-06  0.0000000E+00  1.0000000E+00
-13  1  5  5   0   0  4.0002843E+02  2.3562403E+02 -2.0571667E+02  5.0779994E+02  1.8313279E-06  0.0000000E+00  1.0000000E+00
 13  1  5  5   0   0  4.7408033E+00 -6.8942584E+00 -7.6140416E+00  1.1312809E+01  2.0364911E-05  0.0000000E+00  1.0000000E+00
</event>
<event>
9 100 1.0000000E+00 1.0000000E+03 7.8125000E-03 0.0000000E+00
 21 -1  0  0 501 502  0.0000000E+00  0.0000000E+00  4.6665109E+02  4.6665109E+02  0.0000000E+00  0.0000000E+00  1.0000000E+00
 21 -1  0  0 502 501  0.0000000E+00  0.0000000E+00 -5.3176602E+02  5.3176602E+02  0.0000000E+00  0.0000000E+00  1.0000000E+00
 39  2  1  2   0   0 -2.2737368E-13  4.6185278E-14 -6.5114933E+01  9.9841711E+02  9.9629151E+02  0.0000000E+00  1.0000000E+00
 23  2  3  3   0   0 -1.1548820E+02  2.3239121E+01 -5.0857762E+02  5.2987734E+02  9.0781144E+01  0.0000000E+00  1.0000000E+00
 23  2  3  3   0   0  1.1548820E+02 -2.3239121E+01  4.4346269E+02  4.6853977E+02  9.4830267E+01  0.0000000E+00  1.0000000E+00
-11  1  4  4   0   0 -8.1723938E+01  1.8143165E+01 -1.6910307E+02  1.8868975E+02  8.5299224E-06  0.0000000E+00  1.0000000E+00
 11  1  4  4   0   0 -3.3764265E+01  5.0959554E+00 -3.3947456E+02  3.4118759E+02  6.3259598E-06  0.0000000E+00  1.0000000E+00
-13  1  5  5   0   0  6.0700689E+01 -4.4979319E+01  3.4986116E+02  3.5792533E+02  1.9073486E-06  0.0000000E+00  1.0000000E+00
 13  1  5  5   0   0  5.4787514E+01  2.1740198E+01  9.3601531E+01  1.1061444E+02  8.5299224E-06  0.0000000E+00  1.0000000E+00
</event>
<event>
9 100 1.0000000E+00 1.0000000E+03 7.8125000E-03 0.0000000E+00
 21 -1  0  0 501 502  0.0000000E+00  0.0000000E+00  2.4717031E+02  2.4717031E+02  0.0000000E+00  0.0000000E+00  1.0000000E+00
 21 -1  0  0 502 501  0.0000000E+00  0.0000000E+00 -1.0155773E+03  1.0155773E+03  0.0000000E+00  0.0000000E+00  1.0000000E+00
 39  2  1  2   0   0 -3.4106051E-13  2.5579538E-13 -7.6840695E+02  1.2627476E+03  1.0020390E+03  0.0000000E+00  1.0000000E+00
 23  2  3  3   0   0 -1.3769129E+02  1.0674873E+02  1.9765948E+02  2.8009440E+02  9.5023267E+01  0.0000000E+00  1.0000000E+00
 23  2  3  3   0   0  1.3769129E+02 -1.0674873E+02 -9.6606643E+02  9.8265316E+02  4.4370054E+01  0.0000000E+00  1.0000000E+00
-11  1  4  4   0   0 -2.4343965E+01 -1.2481461E+01  6.9343365E+00  2.8222341E+01  7.1366451E-06  0.0000000E+00  1.0000000E+00
 11  1  4  4   0   0 -1.1334732E+02  1.1923019E+02  1.9072515E+02  2.5187206E+02  2.3602235E-06  0.0000000E+00  1.0000000E+00
-13  1  5  5   0   0  1.3710033E+02 -9.3357899E+01 -9.1116120E+02  9.2613548E+02  1.1680077E-06  0.0000000E+00  1.0000000E+00
 13  1  5  5   0   0  5.9095909E-01 -1.3390832E+01 -5.4905226E+01  5.6517674E+01  1.0789593E-05  0.0000000E+00  1.0000000E+00
</event>
<event>
9 100 1.0000000E+00 1.0000000E+03 7.8125000E-03 0.0000000E+00
 21 -1  0  0 501 502  0.0000000E+00  0.0000000E+00  2.9739282E+02  2.9739282E+02  0.0000000E+00  0.0000000E+00  1.0000000E+00
 21 -1  0  0 502 501  0.0000000E+00  0.0000000E+00 -8.3353430E+02  8.3353430E+02  0.0000000E+00  0.0000000E+00  1.0000000E+00
 39  2  1  2   0   0  9.6633812E-13 -1.0800250E-12 -5.3614148E+02  1.1309271E+03  9.9576527E+02  0.0000000E+00  1.0000000E+00
 23  2  3  3   0   0 -1.3732540E+02  1.6057499E+02  2.3313625E+02  3.2784132E+02  9.2113110E+01  0.0000000E+00  1.0000000E+00
 23  2  3  3   0   0  1.3732540E+02 -1.6057499E+02 -7.6927773E+02  8.0308580E+02  9.2282074E+01  0.0000000E+00  1.0000000E+00
-11  1  4  4   0   0 -1.2603689E+02  1.1841891E+02  2.2444305E+02  2.8334259E+02  1.6858739E-06  0.0000000E+00  1.0000000E+00
 11  1  4  4   0   0 -1.1288509E+01  4.2156081E+01  8.6931986E+00  4.4498734E+01  7.1366451E-06  0.0000000E+00  1.0000000E+00
-13  1  5  5   0   0  1.6523119E+01 -6.6033756E+01 -3.5162780E+02  3.5815580E+02  1.0789593E-05  0.0000000E+00  1.0000000E+00
 13  1  5  5   0   0  1.2080228E+02 -9.4541234E+01 -4.1764994E+02  4.4493000E+02  1.0092740E-05  0.0000000E+00  1.0000000E+00
</event>
<event>
9 100 1.0000000E+00 1.0000000E+03 7.8125000E-03 0.0000000E+00
 21 -1  0  0 501 502  0.0000000E+00  0.0000000E+00  5.8500251E+02  5.8500251E+02  0.0000000E+00  0.0000000E+00  1.0000000E+00
 21 -1  0  0 502 501  0.0000000E+00  0.0000000E+00 -5.1381972E+02  5.1381972E+02  0.0000000E+00  0.0000000E+00  1.0000000E+00
 39  2  1  2   0   0  5.6843419E-14  1.1368684E-13  7.1182792E+01  1.0988222E+03  1.0965142E+03  0.0000000E+00  1.0000000E+00
 23  2  3  3   0   0 -1.8556995E+02 -3.8782457E+02  3.6475624E+02  5.7085186E+02  8.9334402E+01  0.0000000E+00  1.0000000E+00
 23  2  3  3   0   0  1.8556995E+02  3.8782457E+02 -2.9357345E+02  5.2797037E+02  8.7882014E+01  0.0000000E+00  1.0000000E+00
-11  1  4  4   0   0 -8.8666558E+00 -1.0656585E+02  8.6296309E+01  1.3741161E+02  1.8688124E-05  0.0000000E+00  1.0000000E+00
 11  1  4  4   0   0 -1.7670329E+02 -2.8125872E+02  2.7845993E+02  4.3344025E+02  7.2000832E-06  0.0000000E+00  1.0000000E+00
-13  1  5  5   0   0  9.1357872E+01  2.8496925E+02 -1.9529625E+02  3.5734348E+02  8.0921949E-06  0.0000000E+00  1.0000000E+00
 13  1  5  5   0   0  9.4212079E+01  1.0285532E+02 -9.8277193E+01  1.7062690E+02  1.2936268E-05  0.0000000E+00  1.0000000E+00
</event>
<event>
9 100 1.0000000E+00 1.0000000E+03 7.8125000E-03 0.0000000E+00
 21 -1  0  0 501 502  0.0000000E+00  0.0000000E+00  3.6425270E+02  3.6425270E+02  0.0000000E+00  0.0000000E+00  1.0000000E+00
 21 -1  0  0 502 501  0.0000000E+00  0.0000000E+00 -6.8848303E+02  6.8848303E+02  0.0000000E+00  0.0000000E+00  1.0000000E+00
 39  2  1  2   0   0 -4.5474735E-13 -1.8474111E-13 -3.2423033E+02  1.0527357E+03  1.0015624E+03  0.0000000E+00  1.0000000E+00
 23  2  3  3   0   0  1.3185324E+02  5.5722491E+01  3.3326528E+02  3.7361010E+02  8.9601829E+01  0.0000000E+00  1.0000000E+00
 23  2  3  3   0   0 -1.3185324E+02 -5.5722491E+01 -6.5749562E+02  6.7912562E+02  9.1765201E+01  0.0000000E+00  1.0000000E+00
-11  1  4  4   0   0  4.3997666E+01  2.4898120E+01  2.2594391E+02  2.3153047E+02  1.3486992E-06  0.0000000E+00  1.0000000E+00
 11  1  4  4   0   0  8.7855573E+01  3.0824371E+01  1.0732138E+02  1.4207963E+02  2.6973983E-06  0.0000000E+00  1.0000000E+00
-13  1  5  5   0   0 -3.7590751E+00 -3.8723822E+01 -1.1309842E+02  1.1960317E+02  1.0789593E-05  0.0000000E+00  1.0000000E+00
 13  1  5  5   0   0 -1.2809416E+02 -1.6998668E+01 -5.4439719E+02  5.5952245E+02  1.9073486E-06  0.0000000E+00  1.0000000E+00
</event>
<event>
9 100 1.0000000E+00 1.0000000E+03 7.8125000E-03 0.0000000E+00
 21 -1  0  0 501 502  0.0000000E+00  0.0000000E+00  2.8492308E+02  2.8492308E+02  0.0000000E+00  0.0000000E+00  1.0000000E+00
 21 -1  0  0 502 501  0.0000000E+00  0.0000000E+00 -8.5174404E+02  8.5174404E+02  0.0000000E+00  0.0000000E+00  1.0000000E+00
 39  2  1  2   0   0  3.4106051E-13 -2.2737368E-13 -5.6682095E+02  1.1366671E+03  9.8525436E+02  0.0000000E+00  1.0000000E+00
 23  2  3  3   0   0  1.4109125E+02 -1.0295732E+02 -8.0456176E+02  8.2800289E+02  8.8103358E+01  0.0000000E+00  1.0000000E+00
 23  2  3  3   0   0 -1.4109125E+02  1.0295732E+02  2.3774081E+02  3.0866423E+02  9.0807310E+01  0.0000000E+00  1.0000000E+00
-11  1  4  4   0   0  5.7971620E+01 -5.7949474E+01 -5.5719377E+02  5.6319069E+02  2.6973983E-06  0.0000000E+00  1.0000000E+00
 11  1  4  4   0   0  8.3119629E+01 -4.5007843E+01 -2.4736799E+02  2.6481220E+02  1.5258789E-05  0.0000000E+00  1.0000000E+00
-13  1  5  5   0   0 -1.2307656E+02  9.2571504E+01  2.4255925E+02  2.8731918E+02  5.4628559E-07  0.0000000E+00  1.0000000E+00
 13  1  5  5   0   0 -1.8014684E+01  1.0385812E+01 -4.8184367E+00  2.1345053E+01  2.6973983E-06  0.0000000E+00  1.0000000E+00
</event>
<event>
9 100 1.0000000E+00 1.0000000E+03 7.8125000E-03 0.0000000E+00
 21 -1  0  0 501 502  0.0000000E+00  0.0000000E+00  1.5818767E+02  1.5818767E+02  0.0000000E+00  0.0000000E+00  1.0000000E+00
 21 -1  0  0 502 501  0.0000000E+00  0.0000000E+00 -1.5709517E+03  1.5709517E+03  0.0000000E+00  0.0000000E+00  1.0000000E+00
 39  2  1  2   0   0 -6.2527761E-13 -1.8474111E-13 -1.4127641E+03  1.7291394E+03  9.9700591E+02  0.0000000E+00  1.0000000E+00
 23  2  3  3   0   0  2.2577549E+02  6.5277055E+01 -1.4534095E+03  1.4750819E+03  9.0729086E+01  0.0000000E+00  1.0000000E+00
 23  2  3  3   0   0 -2.2577549E+02 -6.5277055E+01  4.0645413E+01  2.5405753E+02  8.7507225E+01  0.0000000E+00  1.0000000E+00
-11  1  4  4   0   0  1.4884313E+02  8.4667155E+01 -1.0613791E+03  1.0751039E+03  1.3214499E-05  0.0000000E+00  1.0000000E+00
 11  1  4  4   0   0  7.6932354E+01 -1.9390101E+01 -3.9203039E+02  3.9997799E+02  3.7376247E-05  0.0000000E+00  1.0000000E+00
-13  1  5  5   0   0 -1.6021930E+02 -6.3099223E+01 -8.0197624E+00  1.7238345E+02  5.3524838E-06  0.0000000E+00  1.0000000E+00
 13  1  5  5   0   0 -6.5556189E+01 -2.1778314E+00  4.8665175E+01  8.1674084E+01  9.2231327E-06  0.0000000E+00  1.0000000E+00
</event>
<event>
9 100 1.0000000E+00 1.0000000E+03 7.8125000E-03 0.0000000E+00
 21 -1  0  0 501 502  0.0000000E+00  0.0000000E+00  1.2237639E+03  1.2237639E+03  0.0000000E+00  0.0000000E+00  1.0000000E+00
 21 -1  0  0 502 501  0.0000000E+00  0.0000000E+00 -2.0539190E+02  2.0539190E+02  0.0000000E+00  0.0000000E+00  1.0000000E+00
 39  2  1  2   0   0 -6.0254024E-12 -3.5527137E-12  1.0183720E+03  1.4291558E+03  1.0026988E+03  0.0000000E+00  1.0000000E+00
 23  2  3  3   0   0 -2.6912820E+02 -1.6049690E+02  1.0515192E+03  1.1011125E+03  9.2556849E+01  0.0000000E+00  1.0000000E+00
 23  2  3  3   0   0  2.6912820E+02  1.6049690E+02 -3.3147183E+01  3.2804337E+02  9.1238551E+01  0.0000000E+00  1.0000000E+00
-11  1  4  4   0   0 -1.8956857E+02 -9.6810753E+01  8.3661737E+02  8.6327121E+02  8.5299224E-06  0.0000000E+00  1.0000000E+00
 11  1  4  4   0   0 -7.9559628E+01 -6.3686149E+01  2.1490183E+02  2.3784124E+02  2.1579186E-05  0.0000000E+00  1.0000000E+00
-13  1  5  5   0   0  1.3518855E+02  1.3136787E+02 -7.9114977E+00  1.8866917E+02  3.7697287E-06  0.0000000E+00  1.0000000E+00
 13  1  5  5   0   0  1.3393964E+02  2.9129034E+01 -2.5235686E+01  1.3937420E+02  3.5723028E-06  0.0000000E+00  1.0000000E+00
</event>
<event>
9 100 1.0000000E+00 1.0000000E+03 7.8125000E-03 0.0000000E+00
 21 -1  0  0 501 502  0.0000000E+00  0.0000000E+00  1.6838423E+03  1.6838423E+03  0.0000000E+00  0.0000000E+00  1.0000000E+00
 21 -1  0  0 502 501  0.0000000E+00  0.0000000E+00 -1.4745933E+02  1.4745933E+02  0.0000000E+00  0.0000000E+00  1.0000000E+00
 39  2  1  2   0   0  2.8421709E-12 -1.0629719E-11  1.5363830E+03  1.8313017E+03  9.9659072E+02  0.0000000E+00  1.0000000E+00
 23  2  3  3   0   0 -8.7287978E+01  3.2866615E+02  1.2063329E+02  3.7238046E+02  9.2055333E+01  0.0000000E+00  1.0000000E+00
 23  2  3  3   0   0  8.7287978E+01 -3.2866615E+02  1.4157497E+03  1.4589212E+03  9.1995748E+01  0.0000000E+00  1.0000000E+00
-11  1  4  4   0   0 -1.0328273E+02  3.1416292E+02  1.1284529E+02  3.4942770E+02  2.0716366E-06  0.0000000E+00  1.0000000E+00
 11  1  4  4   0   0  1.5994754E+01  1.4503236E+01  7.7880014E+00  2.2952755E+01  1.1364341E-05  0.0000000E+00  1.0000000E+00
-13  1  5  5   0   0  9.7817056E+01 -3.0769027E+02  1.2289651E+03  1.2706678E+03  8.0921949E-06  0.0000000E+00  1.0000000E+00
 13  1  5  5   0   0 -1.0529079E+01 -2.0975885E+01  1.8678464E+02  1.8825342E+02  3.0517578E-05  0.0000000E+00  1.0000000E+00
</event>
<event>
9 100 1.0000000E+00 1.0000000E+03 7.8125000E-03 0.0000000E+00
 21 -1  0  0 501 502  0.0000000E+00  0.0000000E+00  6.1801731E+02  6.1801731E+02  0.0000000E+00  0.0000000E+00  1.0000000E+00
 21 -1  0  0 502 501  0.0000000E+00  0.0000000E+00 -3.9510007E+02  3.9510007E+02  0.0000000E+00  0.0000000E+00  1.0000000E+00
 39  2  1  2   0   0 -2.5579538E-13 -3.9790393E-13  2.2291724E+02  1.0131174E+03  9.8828879E+02  0.0000000E+00  1.0000000E+00
 23  2  3  3   0   0 -2.3756917E+02 -3.4057881E+02  3.6813568E+02  5.6206029E+02  8.9189989E+01  0.0000000E+00  1.0000000E+00
 23  2  3  3   0   0  2.3756917E+02  3.4057881E+02 -1.4521844E+02  4.5105709E+02  9.9654739E+01  0.0000000E+00  1.0000000E+00
-11  1  4  4   0   0 -6.0535742E+01 -1.0245119E+02  5.6418045E+01  1.3169593E+02  1.2651920E-05  0.0000000E+00  1.0000000E+00
 11  1  4  4   0   0 -1.7703343E+02 -2.3812762E+02  3.1171763E+02  4.3036436E+02  4.7683716E-06  0.0000000E+00  1.0000000E+00
-13  1  5  5   0   0  5.4111762E+01  1.5240179E+02 -3.1793775E+01  1.6481879E+02  1.1757687E-05  0.0000000E+00  1.0000000E+00
 13  1  5  5   0   0  1.8345741E+02  1.8817702E+02 -1.1342467E+02  2.8623830E+02  7.6813715E-06  0.0000000E+00  1.0000000E+00
</event>
<event>
9 100 1.0000000E+00 1.0000000E+03 7.8125000E-03 0.0000000E+00
 21 -1  0  0 501 502  0.0000000E+00  0.0000000E+00  6.3121268E+02  6.3121268E+02  0.0000000E+00  0.0000000E+00  1.0000000E+00
 21 -1  0  0 502 501  0.0000000E+00  0.0000000E+00 -3.9472272E+02  3.9472272E+02  0.0000000E+00  0.0000000E+00  1.0000000E+00
 39  2  1  2   0   0  1.4210855E-13  3.4106051E-13  2.3648996E+02  1.0259354E+03  9.9830654E+02  0.0000000E+00  1.0000000E+00
 23  2  3  3   0   0 -1.7257951E+02 -4.3529286E+02  2.6944083E+02  5.4789467E+02  9.1250464E+01  0.0000000E+00  1.0000000E+00
 23  2  3  3   0   0  1.7257951E+02  4.3529286E+02 -3.2950873E+01  4.7804073E+02  9.0408101E+01  0.0000000E+00  1.0000000E+00
-11  1  4  4   0   0 -3.9317179E+01 -4.2256221E+01  1.0331931E+01  5.8635975E+01  8.5299224E-06  0.0000000E+00  1.0000000E+00
 11  1  4  4   0   0 -1.3326233E+02 -3.9303664E+02  2.5910890E+02  4.8925869E+02  1.8621086E-06  0.0000000E+00  1.0000000E+00
-13  1  5  5   0   0  2.0046591E+01  1.3697079E+02 -3.5755959E+01  1.4297326E+02  6.8899463E-06  0.0000000E+00  1.0000000E+00
 13  1  5  5   0   0  1.5253291E+02  2.9832206E+02  2.8050852E+00  3.3506747E+02  6.1805160E-06  0.0000000E+00  1.0000000E+00
</event>
<event>
9 100 1.0000000E+00 1.0000000E+03 7.8125000E-03 0.0000000E+00
 21 -1  0  0 501 502  0.0000000E+00  0.0000000E+00  1.1844287E+02  1.1844287E+02  0.0000000E+00  0.0000000E+00  1.0000000E+00
 21 -1  0  0 502 501  0.0000000E+00  0.0000000E+00 -2.4130837E+03  2.4130837E+03  0.0000000E+00  0.0000000E+00  1.0000000E+00
 39  2  1  2   0   0  8.4909857E-13  6.5369932E-12 -2.2946408E+03  2.5315266E+03  1.0692288E+03  0.0000000E+00  1.0000000E+00
 23  2  3  3   0   0 -2.3299259E+01 -1.8100843E+02  2.2891639E+01  2.0502356E+02  9.0574421E+01  0.0000000E+00  1.0000000E+00
 23  2  3  3   0   0  2.3299259E+01  1.8100843E+02 -2.3175325E+03  2.3265030E+03  9.1392671E+01  0.0000000E+00  1.0000000E+00
-11  1  4  4   0   0 -2.1657735E+01 -9.5147300E+01  5.6553987E+01  1.1278484E+02  1.0608957E-05  0.0000000E+00  1.0000000E+00
 11  1  4  4   0   0 -1.6415236E+00 -8.5861131E+01 -3.3662347E+01  9.2238723E+01  1.2379413E-05  0.0000000E+00  1.0000000E+00
-13  1  5  5   0   0  5.4938889E+01  1.4069950E+02 -1.5851804E+03  1.5923604E+03  2.6428998E-05  0.0000000E+00  1.0000000E+00
 13  1  5  5   0   0 -3.1639630E+01  4.0308932E+01 -7.3235203E+02  7.3414261E+02  5.7093161E-05  0.0000000E+00  1.0000000E+00
</event>
<event>
9 100 1.0000000E+00 1.0000000E+03 7.8125000E-03 0.0000000E+00
 21 -1  0  0 501 502  0.0000000E+00  0.0000000E+00  4.9198231E+02  4.9198231E+02  0.0000000E+00  0.0000000E+00  1.0000000E+00
 21 -1  0  0 502 501  0.0000000E+00  0.0000000E+00 -4.7578723E+02  4.7578723E+02  0.0000000E+00  0.0000000E+00  1.0000000E+00
 39  2  1  2   0   0  2.8421709E-13 -1.2789769E-13  1.6195074E+01  9.6776954E+02  9.6763402E+02  0.0000000E+00  1.0000000E+00
 23  2  3  3   0   0 -1.5110836E+02  7.0772076E+01 -4.3686242E+02  4.7650556E+02  9.1467800E+01  0.0000000E+00  1.0000000E+00
 23  2  3  3   0   0  1.5110836E+02 -7.0772076E+01  4.5305749E+02  4.9126397E+02  9.0756706E+01  0.0000000E+00  1.0000000E+00
-11  1  4  4   0   0 -1.0854901E+02  7.2396752E+01 -2.2234646E+02  2.5780250E+02  5.3947966E-06  0.0000000E+00  1.0000000E+00
 11  1  4  4   0   0 -4.2559350E+01 -1.6246758E+00 -2.1451595E+02  2.1870307E+02  6.6072495E-06  0.0000000E+00  1.0000000E+00
-13  1  5  5   0   0  6.9310585E+01  1.1254781E+01  1.2525175E+02  1.4359188E+02  1.2651920E-05  0.0000000E+00  1.0000000E+00
 13  1  5  5   0   0  8.1797776E+01 -8.2026857E+01  3.2780574E+02  3.4767210E+02  4.8628039E-06  0.0000000E+00  1.0000000E+00
</event>
<event>
9 100 1.0000000E+00 1.0000000E+03 7.8125000E-03 0.0000000E+00
 21 -1  0  0 501 502  0.0000000E+00  0.0000000E+00  1.4952185E+03  1.4952185E+03  0.0000000E+00  0.0000000E+00  1.0000000E+00
 21 -1  0  0 502 501  0.0000000E+00  0.0000000E+00 -1.6854151E+02  1.6854151E+02  0.0000000E+00  0.0000000E+00  1.0000000E+00
 39  2  1  2   0   0  8.6686214E-13  7.5317530E-13  1.3266770E+03  1.6637600E+03  1.0040047E+03  0.0000000E+00  1.0000000E+00
 23  2  3  3   0   0 -8.4063775E+01 -7.2650562E+01 -1.3379535E+02  1.9679612E+02  9.2101539E+01  0.0000000E+00  1.0000000E+00
 23  2  3  3   0   0  8.4063775E+01  7.2650562E+01  1.4604723E+03  1.4669639E+03  8.1601453E+01  0.0000000E+00  1.0000000E+00
-11  1  4  4   0   0 -3.3059181E+01 -4.9602671E+01 -9.3436515E+00  6.0337701E+01  3.8146973E-06  0.0000000E+00  1.0000000E+00
 11  1  4  4   0   0 -5.1004593E+01 -2.3047892E+01 -1.2445170E+02  1.3645842E+02  1.9588085E-06  0.0000000E+00  1.0000000E+00
-13  1  5  5   0   0  9.8979082E+01  5.2200567E+01  1.1317839E+03  1.1373024E+03  7.6293945E-06  0.0000000E+00  1.0000000E+00
 13  1  5  5   0   0 -1.4915307E+01  2.0449996E+01  3.2868836E+02  3.2966151E+02  1.5258789E-05  0.0000000E+00  1.0000000E+00
</event>
<event>
9 100 1.0000000E+00 1.0000000E+03 7.8125000E-03 0.0000000E+00
 21 -1  0  0 501 502  0.0000000E+00  0.0000000E+00  1.0639812E+03  1.0639812E+03  0.0000000E+00  0.0000000E+00  1.0000000E+00
 21 -1  0  0 502 501  0.0000000E+00  0.0000000E+00 -2.4204046E+02  2.4204046E+02  0.0000000E+00  0.0000000E+00  1.0000000E+00
 39  2  1  2   0   0 -2.2737368E-12 -1.6484591E-12  8.2194075E+02  1.3060217E+03  1.0149414E+03  0.0000000E+00  1.0000000E+00
 23  2  3  3   0   0  3.7951903E+02  2.7558755E+02  1.9244209E+02  5.1550833E+02  9.3443518E+01  0.0000000E+00  1.0000000E+00
 23  2  3  3   0   0 -3.7951903E+02 -2.7558755E+02  6.2949866E+02  7.9051334E+02  9.3056942E+01  0.0000000E+00  1.0000000E+00
-11  1  4  4   0   0  1.1205092E+02  5.2861171E+01  8.8508842E+01  1.5226138E+02  2.1579186E-05  0.0000000E+00  1.0000000E+00
 11  1  4  4   0   0  2.6746810E+02  2.2272638E+02  1.0393325E+02  3.6324695E+02  9.2952674E-06  0.0000000E+00  1.0000000E+00
-13  1  5  5   0   0 -2.5233549E+01 -3.8122518E+01  2.9640405E+01  5.4484970E+01  3.9643497E-05  0.0000000E+00  1.0000000E+00
 13  1  5  5   0   0 -3.5428548E+02 -2.3746504E+02  5.9985825E+02  7.3602837E+02  4.2113118E-06  0.0000000E+00  1.0000000E+00
</event>
<event>
9 100 1.0000000E+00 1.0000000E+03 7.8125000E-03 0.0000000E+00
 21 -1  0  0 501 502  0.0000000E+00  0.0000000E+00  1.0299461E+03  1.0299461E+03  0.0000000E+00  0.0000000E+00  1.0000000E+00
 21 -1  0  0 502 501  0.0000000E+00  0.0000000E+00 -2.4490294E+02  2.4490294E+02  0.0000000E+00  0.0000000E+00  1.0000000E+00
 39  2  1  2   0   0  7.8159701E-14 -7.3896445E-13  7.8504320E+02  1.2748491E+03  1.0044637E+03  0.0000000E+00  1.0000000E+00
 23  2  3  3   0   0 -2.4342992E+01  2.2471514E+02  9.5001939E+02  9.8077016E+02  9.1015317E+01  0.0000000E+00  1.0000000E+00
 23  2  3  3   0   0  2.4342992E+01 -2.2471514E+02 -1.6497619E+02  2.9407891E+02  9.0420065E+01  0.0000000E+00  1.0000000E+00
-11  1  4  4   0   0 -1.0523479E+01  3.0497289E+01  3.1299590E+02  3.1465420E+02  1.3214499E-05  0.0000000E+00  1.0000000E+00
 11  1  4  4   0   0 -1.3819513E+01  1.9421785E+02  6.3702349E+02  6.6611597E+02  1.4273290E-05  0.0000000E+00  1.0000000E+00
-13  1  5  5   0   0  2.1245057E+01 -2.1068247E+02 -1.7649557E+02  2.7566128E+02  3.4302460E-06  0.0000000E+00  1.0000000E+00
 13  1  5  5   0   0  3.0979349E+00 -1.4032671E+01  1.1519380E+01  1.8417632E+01  1.6518124E-05  0.0000000E+00  1.0000000E+00
</event>
<event>
9 100 1.0000000E+00 1.0000000E+03 7.8125000E-03 0.0000000E+00
 21 -1  0  0 501 502  0.0000000E+00  0.0000000E+00  8.8227175E+02  8.8227175E+02  0.0000000E+00  0.0000000E+00  1.0000000E+00
 21 -1  0  0 502 501  0.0000000E+00  0.0000000E+00 -2.8731927E+02  2.8731927E+02  0.0000000E+00  0.0000000E+00  1.0000000E+00
 39  2  1  2   0   0  4.5474735E-13  2.8421709E-12  5.9495247E+02  1.1695910E+03  1.0069631E+03  0.0000000E+00  1.0000000E+00
 23  2  3  3   0   0  7.2471608E+01  4.6264443E+02  1.1127010E+02  4.8981582E+02  9.0810224E+01  0.0000000E+00  1.0000000E+00
 23  2  3  3   0   0 -7.2471608E+01 -4.6264443E+02  4.8368238E+02  6.7977520E+02  9.4093993E+01  0.0000000E+00  1.0000000E+00
-11  1  4  4   0   0  5.3991108E+01  4.5177690E+02  1.1117193E+02  4.6837656E+02  1.5930201E-06  0.0000000E+00  1.0000000E+00
 11  1  4  4   0   0  1.8480500E+01  1.0867536E+01  9.8169893E-02  2.1439259E+01  1.5612321E-05  0.0000000E+00  1.0000000E+00
-13  1  5  5   0   0  3.1101378E+00 -1.2378405E+02  8.0414420E+01  1.4764364E+02  1.8688124E-05  0.0000000E+00  1.0000000E+00
 13  1  5  5   0   0 -7.5581746E+01 -3.3886038E+02  4.0326796E+02  5.3213156E+02  3.9320999E-06  0.0000000E+00  1.0000000E+00
</event>
<event>
9 100 1.0000000E+00 1.0000000E+03 7.8125000E-03 0.0000000E+00
 21 -1  0  0 501 502  0.0000000E+00  0.0000000E+00  1.6750180E+02  1.6750180E+02  0.0000000E+00  0.0000000E+00  1.0000000E+00
 21 -1  0  0 502 501  0.0000000E+00  0.0000000E+00 -1.5038855E+03  1.5038855E+03  0.0000000E+00  0.0000000E+00  1.0000000E+00
 39  2  1  2   0   0 -1.4210855E-12  4.4053650E-12 -1.3363837E+03  1.6713873E+03  1.0037998E+03  0.0000000E+00  1.0000000E+00
 23  2  3  3   0   0  6.9109336E+01 -2.1423962E+02  5.9744802E+01  2.5424472E+02  1.0196186E+02  0.0000000E+00  1.0000000E+00
 23  2  3  3   0   0 -6.9109336E+01  2.1423962E+02 -1.3961285E+03  1.4171426E+03  9.1888977E+01  0.0000000E+00  1.0000000E+00
-11  1  4  4   0   0  7.3770638E+01 -6.6645874E+01  2.1775108E+01  1.0177394E+02  8.1899471E-06  0.0000000E+00  1.0000000E+00
 11  1  4  4   0   0 -4.6613027E+00 -1.4759374E+02  3.7969695E+01  1.5247078E+02  5.9890064E-06  0.0000000E+00  1.0000000E+00
-13  1  5  5   0   0 -2.6443133E+01  1.9396544E+02 -1.1435704E+03  1.1602047E+03  3.8146973E-06  0.0000000E+00  1.0000000E+00
 13  1  5  5   0   0 -4.2666202E+01  2.0274174E+01 -2.5255814E+02  2.5693786E+02  2.1579186E-05  0.0000000E+00  1.0000000E+00
</event>
<event>
9 100 1.0000000E+00 1.0000000E+03 7.8125000E-03 0.0000000E+00
 21 -1  0  0 501 502  0.0000000E+00  0.0000000E+00  1.4046157E+03  1.4046157E+03  0.0000000E+00  0.0000000E+00  1.0000000E+00
 21 -1  0  0 502 501  0.0000000E+00  0.0000000E+00 -1.7886227E+02  1.7886227E+02  0.0000000E+00  0.0000000E+00  1.0000000E+00
 39  2  1  2   0   0 -5.5706550E-12  2.3590019E-12  1.2257534E+03  1.5834780E+03  1.0024625E+03  0.0000000E+00  1.0000000E+00
 23  2  3  3   0   0 -3.8767746E+02  1.6586707E+02  1.0155399E+03  1.1033634E+03  9.1015771E+01  0.0000000E+00  1.0000000E+00
 23  2  3  3   0   0  3.8767746E+02 -1.6586707E+02  2.1021355E+02  4.8011456E+02  9.2274361E+01  0.0000000E+00  1.0000000E+00
-11  1  4  4   0   0 -3.8456872E+02  1.5082638E+02  9.9761840E+02  1.0797612E+03  1.1434153E-06  0.0000000E+00  1.0000000E+00
 11  1  4  4   0   0 -3.1087419E+00  1.5040691E+01  1.7921476E+01  2.3602245E+01  1.0789593E-05  0.0000000E+00  1.0000000E+00
-13  1  5  5   0   0  8.8192200E+01 -8.2141434E+01  5.2888689E+01  1.3161418E+02  8.5299224E-06  0.0000000E+00  1.0000000E+00
 13  1  5  5   0   0  2.9948526E+02 -8.3725638E+01  1.5732486E+02  3.4850038E+02  2.1324806E-06  0.0000000E+00  1.0000000E+00
</event>
<event>
9 100 1.0000000E+00 1.0000000E+03 7.8125000E-03 0.0000000E+00
 21 -1  0  0 501 502  0.0000000E+00  0.0000000E+00  9.7659386E+02  9.7659386E+02  0.0000000E+00  0.0000000E+00  1.0000000E+00
 21 -1  0  0 502 501  0.0000000E+00  0.0000000E+00 -2.5901411E+02  2.5901411E+02  0.0000000E+00  0.0000000E+00  1.0000000E+00
 39  2  1  2   0   0  3.6948222E-12  1.2789769E-12  7.1757975E+02  1.2356080E+03  1.0058859E+03  0.0000000E+00  1.0000000E+00
 23  2  3  3   0   0  3.1697238E+02  1.0733547E+02  8.0682980E+02  8.7840954E+02  9.2933335E+01  0.0000000E+00  1.0000000E+00
 23  2  3  3   0   0 -3.1697238E+02 -1.0733547E+02 -8.9250050E+01  3.5719843E+02  8.7365622E+01  0.0000000E+00  1.0000000E+00
-11  1  4  4   0   0  2.9036614E+02  1.0483603E+02  7.8623618E+02  8.4467179E+02  1.3058723E-06  0.0000000E+00  1.0000000E+00
 11  1  4  4   0   0  2.6606241E+01  2.4994401E+00  2.0593618E+01  3.3737758E+01  3.2368780E-05  0.0000000E+00  1.0000000E+00
-13  1  5  5   0   0 -1.7100554E+02 -8.2337153E+01 -1.2013328E+01  1.9017523E+02  8.6883865E-06  0.0000000E+00  1.0000000E+00
 13  1  5  5   0   0 -1.4596685E+02 -2.4998321E+01 -7.7236723E+01  1.6702320E+02  8.6605364E-06  0.0000000E+00  1.0000000E+00
</event>
<event>
9 100 1.0000000E+00 1.0000000E+03 7.8125000E-03 0.0000000E+00
 21 -1  0  0 501 502  0.0000000E+00  0.0000000E+00  1.8604697E+03  1.8604697E+03  0.0000000E+00  0.0000000E+00  1.0000000E+00
 21 -1  0  0 502 501  0.0000000E+00  0.0000000E+00 -1.3686314E+02  1.3686314E+02  0.0000000E+00  0.0000000E+00  1.0000000E+00
 39  2  1  2   0   0 -1.4210855E-12  1.7337243E-12  1.7236065E+03  1.9973328E+03  1.0092170E+03  0.0000000E+00  1.0000000E+00
 23  2  3  3   0   0  1.2856477E+02 -1.6012973E+02  1.7563877E+03  1.7706796E+03  9.0764853E+01  0.0000000E+00  1.0000000E+00
 23  2  3  3   0   0 -1.2856477E+02  1.6012973E+02 -3.2781144E+01  2.2665318E+02  9.0147817E+01  0.0000000E+00  1.0000000E+00
-11  1  4  4   0   0  1.4164400E+02 -1.4194707E+02  1.5059549E+03  1.5192472E+03  9.3440618E-06  0.0000000E+00  1.0000000E+00
 11  1  4  4   0   0 -1.3079236E+01 -1.8182659E+01  2.5043279E+02  2.5143241E+02  4.8252528E-05  0.0000000E+00  1.0000000E+00
-13  1  5  5   0   0 -1.4719729E+01 -5.6471782E+00  1.2965032E+01  2.0412082E+01  8.5565369E-06  0.0000000E+00  1.0000000E+00
 13  1  5  5   0   0 -1.1384504E+02  1.6577691E+02 -4.5746177E+01  2.0624109E+02  2.1981107E-06  0.0000000E+00  1.0000000E+00
</event>
<event>
9 100 1.0000000E+00 1.0000000E+03 7.8125000E-03 0.0000000E+00
 21 -1  0  0 501 502  0.0000000E+00  0.0000000E+00  7.0481618E+02  7.0481618E+02  0.0000000E+00  0.0000000E+00  1.0000000E+00
 21 -1  0  0 502 501  0.0000000E+00  0.0000000E+00 -3.5682657E+02  3.5682657E+02  0.0000000E+00  0.0000000E+00  1.0000000E+00
 39  2  1  2   0   0 -3.7658765E-13  7.8159701E-13  3.4798961E+02  1.0616428E+03  1.0029898E+03  0.0000000E+00  1.0000000E+00
 23  2  3  3   0   0 -6.3153483E+01  1.2269210E+02  6.7536760E+02  6.9423727E+02  8.2475910E+01  0.0000000E+00  1.0000000E+00
 23  2  3  3   0   0  6.3153483E+01 -1.2269210E+02 -3.2737799E+02  3.6740549E+02  9.3641513E+01  0.0000000E+00  1.0000000E+00
-11  1  4  4   0   0 -8.0789352E+01  1.0368574E+02  6.0813619E+02  6.2217946E+02  2.3360155E-06  0.0000000E+00  1.0000000E+00
 11  1  4  4   0   0  1.7635869E+01  1.9006359E+01  6.7231412E+01  7.2057812E+01  2.0185481E-05  0.0000000E+00  1.0000000E+00
-13  1  5  5   0   0 -1.6765980E+01  3.6000612E+00 -3.8866521E+01  4.2481349E+01  1.5728400E-05  0.0000000E+00  1.0000000E+00
 13  1  5  5   0   0  7.9919464E+01 -1.2629216E+02 -2.8851147E+02  3.2492414E+02  3.5363190E-06  0.0000000E+00  1.0000000E+00
</event>
<event>
9 100 1.0000000E+00 1.0000000E+03 7.8125000E-03 0.0000000E+00
 21 -1  0  0 501 502  0.0000000E+00  0.0000000E+00  3.2605109E+02  3.2605109E+02  0.0000000E+00  0.0000000E+00  1.0000000E+00
 21 -1  0  0 502 501  0.0000000E+00  0.0000000E+00 -7.7291631E+02  7.7291631E+02  0.0000000E+00  0.0000000E+00  1.0000000E+00
 39  2  1  2   0   0  3.5527137E-15 -2.8421709E-13 -4.4686523E+02  1.0989674E+03  1.0040124E+03  0.0000000E+00  1.0000000E+00
 23  2  3  3   0   0 -5.9308251E+00  4.3290609E+02 -4.8244340E+02  6.5449794E+02  9.0404925E+01  0.0000000E+00  1.0000000E+00
 23  2  3  3   0   0  5.9308251E+00 -4.3290609E+02  3.5578179E+01  4.4446946E+02  9.4044859E+01  0.0000000E+00  1.0000000E+00
-11  1  4  4   0   0  2.5806472E+01  3.1607798E+02 -3.0735283E+02  4.4162997E+02  6.6072495E-06  0.0000000E+00  1.0000000E+00
 11  1  4  4   0   0 -3.1737297E+01  1.1682811E+02 -1.7509057E+02  2.1286797E+02  1.0789593E-05  0.0000000E+00  1.0000000E+00
-13  1  5  5   0   0  4.9653929E+01 -2.0303307E+02  1.9467622E+01  2.0992124E+02  7.6331189E-06  0.0000000E+00  1.0000000E+00
 13  1  5  5   0   0 -4.3723104E+01 -2.2987303E+02  1.6110557E+01  2.3454822E+02  8.2659415E-06  0.0000000E+00  1.0000000E+00
</event>
<event>
9 100 1.0000000E+00 1.0000000E+03 7.8125000E-03 0.0000000E+00
 21 -1  0  0 501 502  0.0000000E+00  0.0000000E+00  1.1968542E+03  1.1968542E+03  0.0000000E+00  0.0000000E+00  1.0000000E+00
 21 -1  0  0 502 501  0.0000000E+00  0.0000000E+00 -2.1494025E+02  2.1494025E+02  0.0000000E+00  0.0000000E+00  1.0000000E+00
 39  2  1  2   0   0  3.4106051E-12 -4.6895821E-13  9.8191395E+02  1.4117944E+03  1.0144006E+03  0.0000000E+00  1.0000000E+00
 23  2  3  3   0   0  4.6870261E+02 -6.3555724E+01  7.1279113E+02  8.6015277E+02  8.9833896E+01  0.0000000E+00  1.0000000E+00
 23  2  3  3   0   0 -4.6870261E+02  6.3555724E+01  2.6912281E+02  5.5164168E+02  9.0332630E+01  0.0000000E+00  1.0000000E+00
-11  1  4  4   0   0  2.8584724E+02 -4.2931211E+01  3.5483191E+02  4.5766518E+02  1.3754087E-05  0.0000000E+00  1.0000000E+00
 11  1  4  4   0   0  1.8285537E+02 -2.0624513E+01  3.5795922E+02  4.0248759E+02  1.3754087E-05  0.0000000E+00  1.0000000E+00
-13  1  5  5   0   0 -4.8900288E+01  3.6130692E+01  3.6458905E+01  7.0893701E+01  1.1444092E-05  0.0000000E+00  1.0000000E+00
 13  1  5  5   0   0 -4.1980232E+02  2.7425032E+01  2.3266391E+02  4.8074797E+02  1.1680077E-06  0.0000000E+00  1.0000000E+00
</event>
<event>
9 100 1.0000000E+00 1.0000000E+03 7.8125000E-03 0.0000000E+00
 21 -1  0  0 501 502  0.0000000E+00  0.0000000E+00  6.2148331E+02  6.2148331E+02  0.0000000E+00  0.0000000E+00  1.0000000E+00
 21 -1  0  0 502 501  0.0000000E+00  0.0000000E+00 -4.1731846E+02  4.1731846E+02  0.0000000E+00  0.0000000E+00  1.0000000E+00
 39  2  1  2   0   0 -1.2079227E-13 -1.0231815E-12  2.0416484E+02  1.0388018E+03  1.0185410E+03  0.0000000E+00  1.0000000E+00
 23  2  3  3   0   0 -4.9328729E+01 -4.0599905E+02 -1.9315306E+02  4.6159266E+02  9.2147343E+01  0.0000000E+00  1.0000000E+00
 23  2  3  3   0   0  4.9328729E+01  4.0599905E+02  3.9731790E+02  5.7720911E+02  8.9667684E+01  0.0000000E+00  1.0000000E+00
-11  1  4  4   0   0  3.3533403E-01 -6.5345462E+01 -7.0534470E+01  9.6152240E+01  1.1911388E-05  0.0000000E+00  1.0000000E+00
 11  1  4  4   0   0 -4.9664063E+01 -3.4065358E+02 -1.2261859E+02  3.6544042E+02  5.2234894E-06  0.0000000E+00  1.0000000E+00
-13  1  5  5   0   0  2.6648179E+01  2.5744757E+01  2.6154751E+01  4.5354040E+01  1.7059845E-05  0.0000000E+00  1.0000000E+00
 13  1  5  5   0   0  2.2680550E+01  3.8025429E+02  3.7116315E+02  5.3185507E+02  2.5898887E-06  0.0000000E+00  1.0000000E+00
</event>
<event>
9 100 1.0000000E+00 1.0000000E+03 7.8125000E-03 0.0000000E+00
 21 -1  0  0 501 502  0.0000000E+00  0.0000000E+00  2.3317421E+02  2.3317421E+02  0.0000000E+00  0.0000000E+00  1.0000000E+00
 21 -1  0  0 502 501  0.0000000E+00  0.0000000E+00 -1.0689846E+03  1.0689846E+03  0.0000000E+00  0.0000000E+00  1.0000000E+00
 39  2  1  2   0   0 -2.8421709E-13  1.3642421E-12 -8.3581037E+02  1.3021588E+03  9.9851817E+02  0.0000000E+00  1.0000000E+00
 23  2  3  3   0   0 -3.3041954E+01  1.5786380E+02  1.8662395E+02  2.6305908E+02  9.1426645E+01  0.0000000E+00  1.0000000E+00
 23  2  3  3   0   0  3.3041954E+01 -1.5786380E+02 -1.0224343E+03  1.0390997E+03  9.1342840E+01  0.0000000E+00  1.0000000E+00
-11  1  4  4   0   0  6.0401485E+00  5.2431218E+01  1.0055820E+01  5.3727419E+01  3.8146973E-06  0.0000000E+00  1.0000000E+00
 11  1  4  4   0   0 -3.9082102E+01  1.0543258E+02  1.7656813E+02  2.0933166E+02  8.5963041E-07  0.0000000E+00  1.0000000E+00
-13  1  5  5   0   0 -1.5101982E+01 -3.6986624E+01 -1.0251564E+02  1.1002516E+02  1.5258789E-05  0.0000000E+00  1.0000000E+00
 13  1  5  5   0   0  4.8143936E+01 -1.2087717E+02 -9.1991868E+02  9.2907455E+02  2.3360155E-06  0.0000000E+00  1.0000000E+00
</event>
<event>
9 100 1.0000000E+00 1.0000000E+03 7.8125000E-03 0.0000000E+00
 21 -1  0  0 501 502  0.0000000E+00  0.0000000E+00  3.2099880E+02  3.2099880E+02  0.0000000E+00  0.0000000E+00  1.0000000E+00
 21 -1  0  0 502 501  0.0000000E+00  0.0000000E+00 -7.7878149E+02  7.7878149E+02  0.0000000E+00  0.0000000E+00  1.0000000E+00
 39  2  1  2   0   0  2.2168933E-12 -2.2737368E-12 -4.5778268E+02  1.0997803E+03  9.9997585E+02  0.0000000E+00  1.0000000E+00
 23  2  3  3   0   0 -3.3743518E+02  3.4195599E+02 -3.4550120E+02  5.9875717E+02  9.1338232E+01  0.0000000E+00  1.0000000E+00
 23  2  3  3   0   0  3.3743518E+02 -3.4195599E+02 -1.1228149E+02  5.0102312E+02  8.7296275E+01  0.0000000E+00  1.0000000E+00
-11  1  4  4   0   0 -2.6227758E+02  2.1531295E+02 -2.1292908E+02  4.0060952E+02  6.0315660E-06  0.0000000E+00  1.0000000E+00
 11  1  4  4   0   0 -7.5157598E+01  1.2664304E+02 -1.3257212E+02  1.9814765E+02  7.6293945E-06  0.0000000E+00  1.0000000E+00
-13  1  5  5   0   0  6.9853695E+01 -5.7552699E+01 -5.6162146E+01  1.0651779E+02  1.3999861E-05  0.0000000E+00  1.0000000E+00
 13  1  5  5   0   0  2.6758148E+02 -2.8440329E+02 -5.6119340E+01  3.9450534E+02  4.6720309E-06  0.0000000E+00  1.0000000E+00
</event>
<event>
9 100 1.0000000E+00 1.0000000E+03 7.8125000E-03 0.0000000E+00
 21 -1  0  0 501 502  0.0000000E+00  0.0000000E+00  1.1569927E+03  1.1569927E+03  0.0000000E+00  0.0000000E+00  1.0000000E+00
 21 -1  0  0 502 501  0.0000000E+00  0.0000000E+00 -2.1719468E+02  2.1719468E+02  0.0000000E+00  0.0000000E+00  1.0000000E+00
 39  2  1  2   0   0  8.1712415E-13 -6.5938366E-12  9.3979803E+02  1.3741874E+03  1.0025820E+03  0.0000000E+00  1.0000000E+00
 23  2  3  3   0   0 -5.8435221E+01  4.6009668E+02  2.4073037E+02  5.3026132E+02  9.0123984E+01  0.0000000E+00  1.0000000E+00
 23  2  3  3   0   0  5.8435221E+01 -4.6009668E+02  6.9906766E+02  8.4392605E+02  9.1716763E+01  0.0000000E+00  1.0000000E+00
-11  1  4  4   0   0 -5.7267317E+01  4.6430729E+02  2.4011724E+02  5.2584893E+02  1.5652959E-06  0.0000000E+00  1.0000000E+00
 11  1  4  4   0   0 -1.1679046E+00 -4.2106150E+00  6.1312418E-01  4.4123917E+00  1.1121658E-05  0.0000000E+00  1.0000000E+00
-13  1  5  5   0   0  6.6335377E+01 -1.8766865E+02  2.6584753E+02  3.3210663E+02  7.6293945E-06  0.0000000E+00  1.0000000E+00
 13  1  5  5   0   0 -7.9001553E+00 -2.7242803E+02  4.3322013E+02  5.1181943E+02  5.3947966E-06  0.0000000E+00  1.0000000E+00
</event>
<event>
9 100 1.0000000E+00 1.0000000E+03 7.8125000E-03 0.0000000E+00
 21 -1  0  0 501 502  0.0000000E+00  0.0000000E+00  6.8314048E+02  6.8314048E+02  0.0000000E+00  0.0000000E+00  1.0000000E+00
 21 -1  0  0 502 501  0.0000000E+00  0.0000000E+00 -3.8513339E+02  3.8513339E+02  0.0000000E+00  0.0000000E+00  1.0000000E+00
 39  2  1  2   0   0  4.2632564E-14  8.5265128E-13  2.9800709E+02  1.0682739E+03  1.0258659E+03  0.0000000E+00  1.0000000E+00
 23  2  3  3   0   0  2.3496878E+01  4.3615792E+02 -1.1399320E+02  4.6084524E+02  9.2725685E+01  0.0000000E+00  1.0000000E+00
 23  2  3  3   0   0 -2.3496878E+01 -4.3615792E+02  4.1200029E+02  6.0742863E+02  9.1866587E+01  0.0000000E+00  1.0000000E+00
-11  1  4  4   0   0 -1.4546884E+01  6.3043366E+01  1.0767141E+01  6.5589703E+01  1.4273290E-05  0.0000000E+00  1.0000000E+00
 11  1  4  4   0   0  3.8043762E+01  3.7311455E+02 -1.2476034E+02  3.9525554E+02  4.4874025E-06  0.0000000E+00  1.0000000E+00
-13  1  5  5   0   0  2.6939568E+01 -9.2156199E+01  1.1785386E+02  1.5201328E+02  2.0893957E-05  0.0000000E+00  1.0000000E+00
 13  1  5  5   0   0 -5.0436446E+01 -3.4400172E+02  2.9414642E+02  4.5541534E+02  6.8770433E-06  0.0000000E+00  1.0000000E+00
</event>
<event>
9 100 1.0000000E+00 1.0000000E+03 7.8125000E-03 0.0000000E+00
 21 -1  0  0 501 502  0.0000000E+00  0.0000000E+00  7.1602800E+01  7.1602800E+01  0.0000000E+00  0.0000000E+00  1.0000000E+00
 21 -1  0  0 502 501  0.0000000E+00  0.0000000E+00 -3.4566801E+03  3.4566801E+03  0.0000000E+00  0.0000000E+00  1.0000000E+00
 39  2  1  2   0   0 -5.0093263E-13  3.4106051E-12 -3.3850773E+03  3.5282829E+03  9.9500347E+02  0.0000000E+00  1.0000000E+00
 23  2  3  3   0   0  2.4341137E+01 -1.6904953E+02 -6.7993542E+01  2.0551021E+02  9.1875402E+01  0.0000000E+00  1.0000000E+00
 23  2  3  3   0   0 -2.4341137E+01  1.6904953E+02 -3.3170838E+03  3.3227727E+03  9.2755025E+01  0.0000000E+00  1.0000000E+00
-11  1  4  4   0   0  2.4005453E+01 -1.7671261E+02 -7.6504373E+01  1.9405290E+02  3.7904055E-06  0.0000000E+00  1.0000000E+00
 11  1  4  4   0   0  3.3568492E-01  7.6630860E+00  8.5108318E+00  1.1457305E+01  1.6014915E-05  0.0000000E+00  1.0000000E+00
-13  1  5  5   0   0  1.1624903E+01  1.5223481E+02 -2.8050258E+03  2.8091779E+03  1.8688124E-05  0.0000000E+00  1.0000000E+00
 13  1  5  5   0   0 -3.5966040E+01  1.6814718E+01 -5.1205797E+02  5.1359483E+02  1.0571599E-04  0.0000000E+00  1.0000000E+00
</event>
<event>
9 100 1.0000000E+00 1.0000000E+03 7.8125000E-03 0.0000000E+00
 21 -1  0  0 501 502  0.0000000E+00  0.0000000E+00  9.9658426E+02  9.9658426E+02  0.0000000E+00  0.0000000E+00  1.0000000E+00
 21 -1  0  0 502 501  0.0000000E+00  0.0000000E+00 -2.8972834E+02  2.8972834E+02  0.0000000E+00  0.0000000E+00  1.0000000E+00
 39  2  1  2   0   0 -1.1368684E-13  4.5474735E-13  7.0685592E+02  1.2863126E+03  1.0746882E+03  0.0000000E+00  1.0000000E+00
 23  2  3  3   0   0  1.3565082E+02 -4.5386606E+02  7.1555760E+01  4.8749300E+02  9.0186790E+01  0.0000000E+00  1.0000000E+00
 23  2  3  3   0   0 -1.3565082E+02  4.5386606E+02  6.3530016E+02  7.9881961E+02  1.0055310E+02  0.0000000E+00  1.0000000E+00
-11  1  4  4   0   0  3.2930966E+01 -2.6145360E+01  1.0993432E+01  4.3461293E+01  8.9462581E-06  0.0000000E+00  1.0000000E+00
 11  1  4  4   0   0  1.0271985E+02 -4.2772070E+02  6.0562327E+01  4.4403171E+02  8.5132461E-07  0.0000000E+00  1.0000000E+00
-13  1  5  5   0   0 -7.4672725E+00  8.6646239E+01  1.8068325E+02  2.0052373E+02  1.5258789E-05  0.0000000E+00  1.0000000E+00
 13  1  5  5   0   0 -1.2818355E+02  3.6721982E+02  4.5461691E+02  5.9829587E+02  1.9073486E-06  0.0000000E+00  1.0000000E+00
</event>
<event>
9 100 1.0000000E+00 1.0000000E+03 7.8125000E-03 0.0000000E+00
 21 -1  0  0 501 502  0.0000000E+00  0.0000000E+00  1.1296121E+02  1.1296121E+02  0.0000000E+00  0.0000000E+00  1.0000000E+00
 21 -1  0  0 502 501  0.0000000E+00  0.0000000E+00 -2.1330730E+03  2.1330730E+03  0.0000000E+00  0.0000000E+00  1.0000000E+00
 39  2  1  2   0   0 -2.3021585E-12 -5.0590643E-12 -2.0201118E+03  2.2460342E+03  9.8174234E+02  0.0000000E+00  1.0000000E+00
 23  2  3  3   0   0 -1.5421042E+02 -3.3541404E+02 -3.0029766E+02  4.8468694E+02  9.1974518E+01  0.0000000E+00  1.0000000E+00
 23  2  3  3   0   0  1.5421042E+02  3.3541404E+02 -1.7198142E+03  1.7613473E+03  9.1104950E+01  0.0000000E+00  1.0000000E+00
-11  1  4  4   0   0 -1.4988170E+02 -2.3683794E+02 -2.4043047E+02  3.6927435E+02  4.0460975E-06  0.0000000E+00  1.0000000E+00
 11  1  4  4   0   0 -4.3287178E+00 -9.8576100E+01 -5.9867192E+01  1.1541259E+02  1.4016093E-05  0.0000000E+00  1.0000000E+00
-13  1  5  5   0   0  1.1841317E+02  3.2000866E+02 -1.5341750E+03  1.5716616E+03  7.6293945E-06  0.0000000E+00  1.0000000E+00
 13  1  5  5   0   0  3.5797247E+01  1.5405382E+01 -1.8563914E+02  1.8968568E+02  3.0517578E-05  0.0000000E+00  1.0000000E+00
</event>
<event>
9 100 1.0000000E+00 1.0000000E+03 7.8125000E-03 0.0000000E+00
 21 -1  0  0 501 502  0.0000000E+00  0.0000000E+00  7.9252145E+02  7.9252145E+02  0.0000000E+00  0.0000000E+00  1.0000000E+00
 21 -1  0  0 502 501  0.0000000E+00  0.0000000E+00 -3.0990908E+02  3.0990908E+02  0.0000000E+00  0.0000000E+00  1.0000000E+00
 39  2  1  2   0   0 -7.5317530E-13 -1.0231815E-12  4.8261237E+02  1.1024305E+03  9.9118030E+02  0.0000000E+00  1.0000000E+00
 23  2  3  3   0   0 -1.0461755E+02 -1.4262922E+02  7.4582478E+02  7.7234560E+02  9.4737540E+01  0.0000000E+00  1.0000000E+00
 23  2  3  3   0   0  1.0461755E+02  1.4262922E+02 -2.6321241E+02  3.3008493E+02  9.1582552E+01  0.0000000E+00  1.0000000E+00
-11  1  4  4   0   0 -1.1547800E+02 -9.1388560E+01  5.1422363E+02  5.3489530E+02  4.6720309E-06  0.0000000E+00  1.0000000E+00
 11  1  4  4   0   0  1.0860451E+01 -5.1240663E+01  2.3160115E+02  2.3745030E+02  1.0789593E-05  0.0000000E+00  1.0000000E+00
-13  1  5  5   0   0  3.2489240E+01  5.3801284E+01 -2.8589512E+01  6.9047006E+01  7.6293945E-06  0.0000000E+00  1.0000000E+00
 13  1  5  5   0   0  7.2128313E+01  8.8827939E+01 -2.3462289E+02  2.6103793E+02  2.2618372E-06  0.0000000E+00  1.0000000E+00
</event>
<event>
9 100 1.0000000E+00 1.0000000E+03 7.8125000E-03 0.0000000E+00
 21 -1  0  0 501 502  0.0000000E+00  0.0000000E+00  1.4900192E+03  1.4900192E+03  0.0000000E+00  0.0000000E+00  1.0000000E+00
 21 -1  0  0 502 501  0.0000000E+00  0.0000000E+00 -1.6873450E+02  1.6873450E+02  0.0000000E+00  0.0000000E+00  1.0000000E+00
 39  2  1  2   0   0  2.8421709E-13 -1.0231815E-12  1.3212847E+03  1.6587537E+03  1.0028313E+03  0.0000000E+00  1.0000000E+00
 23  2  3  3   0   0  1.1833444E+02 -3.8744971E+02  1.9532413E+02  4.5880286E+02  9.0709569E+01  0.0000000E+00  1.0000000E+00
 23  2  3  3   0   0 -1.1833444E+02  3.8744971E+02  1.1259606E+03  1.1999509E+03  8.9300026E+01  0.0000000E+00  1.0000000E+00
-11  1  4  4   0   0  1.0638567E+02 -1.9414634E+02  1.0902085E+02  2.4677168E+02  7.9218138E-06  0.0000000E+00  1.0000000E+00
 11  1  4  4   0   0  1.1948768E+01 -1.9330337E+02  8.6303281E+01  2.1203118E+02  6.6072495E-06  0.0000000E+00  1.0000000E+00
-13  1  5  5   0   0 -2.3028300E+01  1.5315124E+02  3.2528383E+02  3.6027097E+02  0.0000000E+00  0.0000000E+00  1.0000000E+00
 13  1  5  5   0   0 -9.5306142E+01  2.3429847E+02  8.0067676E+02  8.3967988E+02  3.8146973E-06  0.0000000E+00  1.0000000E+00
</event>
<event>
9 100 1.0000000E+00 1.0000000E+03 7.8125000E-03 0.0000000E+00
 21 -1  0  0 501 502  0.0000000E+00  0.0000000E+00  2.9044914E+02  2.9044914E+02  0.0000000E+00  0.0000000E+00  1.0000000E+00
 21 -1  0  0 502 501  0.0000000E+00  0.0000000E+00 -8.6256886E+02  8.6256886E+02  0.0000000E+00  0.0000000E+00  1.0000000E+00
 39  2  1  2   0   0 -1.8189894E-12 -6.5369932E-13 -5.7211972E+02  1.1530180E+03  1.0010642E+03  0.0000000E+00  1.0000000E+00
 23  2  3  3   0   0  3.6528793E+02  1.3037080E+02  6.2294104E+01  4.0385232E+02  9.3724718E+01  0.0000000E+00  1.0000000E+00
 23  2  3  3   0   0 -3.6528793E+02 -1.3037080E+02 -6.3441383E+02  7.4916569E+02  9.1304512E+01  0.0000000E+00  1.0000000E+00
-11  1  4  4   0   0  1.9506020E+02  2.3449689E+01  4.8474294E+01  2.0235643E+02  9.8288041E-06  0.0000000E+00  1.0000000E+00
 11  1  4  4   0   0  1.7022773E+02  1.0692111E+02  1.3819809E+01  2.0149588E+02  1.0576760E-05  0.0000000E+00  1.0000000E+00
-13  1  5  5   0   0 -2.2372293E+02 -1.2231953E+02 -4.3992744E+02  5.0847829E+02  8.5299224E-06  0.0000000E+00  1.0000000E+00
 13  1  5  5   0   0 -1.4156499E+02 -8.0512688E+00 -1.9448638E+02  2.4068740E+02  1.3214499E-05  0.0000000E+00  1.0000000E+00
</event>
<event>
9 100 1.0000000E+00 1.0000000E+03 7.8125000E-03 0.0000000E+00
 21 -1  0  0 501 502  0.0000000E+00  0.0000000E+00  2.6365603E+02  2.6365603E+02  0.0000000E+00  0.0000000E+00  1.0000000E+00
 21 -1  0  0 502 501  0.0000000E+00  0.0000000E+00 -9.4981684E+02  9.4981684E+02  0.0000000E+00  0.0000000E+00  1.0000000E+00
 39  2  1  2   0   0 -3.1263880E-13  8.2422957E-13 -6.8616081E+02  1.2134729E+03  1.0008495E+03  0.0000000E+00  1.0000000E+00
 23  2  3  3   0   0 -9.0343445E+01  2.2271734E+02  1.7765643E+02  3.1221382E+02  9.0281288E+01  0.0000000E+00  1.0000000E+00
 23  2  3  3   0   0  9.0343445E+01 -2.2271734E+02 -8.6381724E+02  9.0125906E+02  9.1228968E+01  0.0000000E+00  1.0000000E+00
-11  1  4  4   0   0 -1.3045079E+01  5.6065088E+01  1.3290263E+00  5.7578073E+01  1.0446979E-05  0.0000000E+00  1.0000000E+00
 11  1  4  4   0   0 -7.7298366E+01  1.6665225E+02  1.7632740E+02  2.5463574E+02  3.8479923E-06  0.0000000E+00  1.0000000E+00
-13  1  5  5   0   0  8.5787758E+01 -9.4212640E+01 -4.7104674E+02  4.8797602E+02  1.7892516E-05  0.0000000E+00  1.0000000E+00
 13  1  5  5   0   0  4.5556873E+00 -1.2850470E+02 -3.9277049E+02  4.1328304E+02  1.9451216E-05  0.0000000E+00  1.0000000E+00
</event>
<event>
9 100 1.0000000E+00 1.0000000E+03 7.8125000E-03 0.0000000E+00
 21 -1  0  0 501 502  0.0000000E+00  0.0000000E+00  1.7963177E+02  1.7963177E+02  0.0000000E+00  0.0000000E+00  1.0000000E+00
 21 -1  0  0 502 501  0.0000000E+00  0.0000000E+00 -1.4016569E+03  1.4016569E+03  0.0000000E+00  0.0000000E+00  1.0000000E+00
 39  2  1  2   0   0 -5.6274985E-12  8.3559826E-12 -1.2220251E+03  1.5812887E+03  1.0035579E+03  0.0000000E+00  1.0000000E+00
 23  2  3  3   0   0  2.4101889E+02 -3.5441599E+02 -2.2471124E+02  4.9220252E+02  8.9818553E+01  0.0000000E+00  1.0000000E+00
 23  2  3  3   0   0 -2.4101889E+02  3.5441599E+02 -9.9731387E+02  1.0890861E+03  8.8163918E+01  0.0000000E+00  1.0000000E+00
-11  1  4  4   0   0  1.1617632E+02 -1.4683157E+02 -1.4623822E+02  2.3757539E+02  1.0490417E-05  0.0000000E+00  1.0000000E+00
 11  1  4  4   0   0  1.2484257E+02 -2.0758442E+02 -7.8473022E+01  2.5462713E+02  1.1284027E-05  0.0000000E+00  1.0000000E+00
-13  1  5  5   0   0 -7.4477598E+01  4.9685805E+01 -1.7924572E+02  2.0036122E+02  1.5258789E-05  0.0000000E+00  1.0000000E+00
 13  1  5  5   0   0 -1.6654129E+02  3.0473019E+02 -8.1806815E+02  8.8872492E+02  5.7220459E-06  0.0000000E+00  1.0000000E+00
</event>
<event>
9 100 1.0000000E+00 1.0000000E+03 7.8125000E-03 0.0000000E+00
 21 -1  0  0 501 502  0.0000000E+00  0.0000000E+00  2.0334002E+03  2.0334002E+03  0.0000000E+00  0.0000000E+00  1.0000000E+00
 21 -1  0  0 502 501  0.0000000E+00  0.0000000E+00 -1.0913391E+02  1.0913391E+02  0.0000000E+00  0.0000000E+00  1.0000000E+00
 39  2  1  2   0   0  5.1727511E-12 -1.1226575E-12  1.9242663E+03  2.1425341E+03  9.4215266E+02  0.0000000E+00  1.0000000E+00
 23  2  3  3   0   0 -3.1046623E+02  6.7450408E+01  1.9709223E+02  3.8413961E+02  8.8198936E+01  0.0000000E+00  1.0000000E+00
 23  2  3  3   0   0  3.1046623E+02 -6.7450408E+01  1.7271741E+03  1.7583945E+03  8.8781362E+01  0.0000000E+00  1.0000000E+00
-11  1  4  4   0   0 -2.0827031E+02  2.7986032E+01  8.2922046E+01  2.2591106E+02  9.8186780E-06  0.0000000E+00  1.0000000E+00
 11  1  4  4   0   0 -1.0219593E+02  3.9464375E+01  1.1417019E+02  1.5822855E+02  1.1987500E-05  0.0000000E+00  1.0000000E+00
-13  1  5  5   0   0  2.6329623E+02 -2.5855970E+01  1.4719149E+03  1.4955023E+03  8.0921949E-06  0.0000000E+00  1.0000000E+00
 13  1  5  5   0   0  4.7170002E+01 -4.1594438E+01  2.5525912E+02  2.6289223E+02  4.8252528E-05  0.0000000E+00  1.0000000E+00
</event>
<event>
9 100 1.0000000E+00 1.0000000E+03 7.8125000E-03 0.0000000E+00
 21 -1  0  0 501 502  0.0000000E+00  0.0000000E+00  9.3576016E+02  9.3576016E+02  0.0000000E+00  0.0000000E+00  1.0000000E+00
 21 -1  0  0 502 501  0.0000000E+00  0.0000000E+00 -2.6769101E+02  2.6769101E+02  0.0000000E+00  0.0000000E+00  1.0000000E+00
 39  2  1  2   0   0 -1.9895197E-13  1.7053026E-12  6.6806915E+02  1.2034512E+03  1.0009887E+03  0.0000000E+00  1.0000000E+00
 23  2  3  3   0   0  5.6898298E+01 -4.7211034E+02  1.8359197E+02  5.1823760E+02  9.3480507E+01  0.0000000E+00  1.0000000E+00
 23  2  3  3   0   0 -5.6898298E+01  4.7211034E+02  4.8447718E+02  6.8521357E+02  9.3133860E+01  0.0000000E+00  1.0000000E+00
-11  1  4  4   0   0  1.2012975E+01 -4.3838284E+01  4.9548289E+01  6.7239420E+01  1.8881788E-05  0.0000000E+00  1.0000000E+00
 11  1  4  4   0   0  4.4885323E+01 -4.2827206E+02  1.3404368E+02  4.5099818E+02  3.9320999E-06  0.0000000E+00  1.0000000E+00
-13  1  5  5   0   0 -5.9244953E+01  1.7105389E+02  2.1602159E+02  2.8184167E+02  1.0092740E-05  0.0000000E+00  1.0000000E+00
 13  1  5  5   0   0  2.3466549E+00  3.0105645E+02  2.6845559E+02  4.0337190E+02  3.8146973E-06  0.0000000E+00  1.0000000E+00
</event>
<event>
9 100 1.0000000E+00 1.0000000E+03 7.8125000E-03 0.0000000E+00
 21 -1  0  0 501 502  0.0000000E+00  0.0000000E+00  1.0498206E+03  1.0498206E+03  0.0000000E+00  0.0000000E+00  1.0000000E+00
 21 -1  0  0 502 501  0.0000000E+00  0.0000000E+00 -2.3893767E+02  2.3893767E+02  0.0000000E+00  0.0000000E+00  1.0000000E+00
 39  2  1  2   0   0 -8.5265128E-14  6.2527761E-13  8.1088293E+02  1.2887583E+03  1.0016820E+03  0.0000000E+00  1.0000000E+00
 23  2  3  3   0   0 -4.9732959E+01  3.5064861E+02  8.4437141E+02  9.2025073E+02  9.2035441E+01  0.0000000E+00  1.0000000E+00
 23  2  3  3   0   0  4.9732959E+01 -3.5064861E+02 -3.3488476E+01  3.6850753E+02  9.6169146E+01  0.0000000E+00  1.0000000E+00
-11  1  4  4   0   0 -1.7140055E+01  6.7075473E+01  8.9059934E+01  1.1280325E+02  1.8688124E-05  0.0000000E+00  1.0000000E+00
 11  1  4  4   0   0 -3.2592904E+01  2.8357314E+02  7.5531147E+02  8.0744749E+02  1.6518124E-06  0.0000000E+00  1.0000000E+00
-13  1  5  5   0   0  7.4663412E+01 -2.7980710E+02 -9.8121958E+00  2.8976356E+02  4.1157428E-06  0.0000000E+00  1.0000000E+00
 13  1  5  5   0   0 -2.4930453E+01 -7.0841512E+01 -2.3676281E+01  7.8743974E+01  1.0487708E-05  0.0000000E+00  1.0000000E+00
</event>
<event>
9 100 1.0000000E+00 1.0000000E+03 7.8125000E-03 0.0000000E+00
 21 -1  0  0 501 502  0.0000000E+00  0.0000000E+00  4.6693364E+02  4.6693364E+02  0.0000000E+00  0.0000000E+00  1.0000000E+00
 21 -1  0  0 502 501  0.0000000E+00  0.0000000E+00 -5.4172154E+02  5.4172154E+02  0.0000000E+00  0.0000000E+00  1.0000000E+00
 39  2  1  2   0   0  5.1159077E-13  2.5579538E-13 -7.4787899E+01  1.0086552E+03  1.0058787E+03  0.0000000E+00  1.0000000E+00
 23  2  3  3   0   0 -2.9221464E+02 -1.6023510E+02  3.2976848E+02  4.7752703E+02  9.0664930E+01  0.0000000E+00  1.0000000E+00
 23  2  3  3   0   0  2.9221464E+02  1.6023510E+02 -4.0455638E+02  5.3112815E+02  8.5828726E+01  0.0000000E+00  1.0000000E+00
-11  1  4  4   0   0 -2.5925070E+02 -1.2359843E+02  2.3653930E+02  3.7207302E+02  0.0000000E+00  0.0000000E+00  1.0000000E+00
 11  1  4  4   0   0 -3.2963946E+01 -3.6636673E+01  9.3229176E+01  1.0545400E+02  7.1366451E-06  0.0000000E+00  1.0000000E+00
-13  1  5  5   0   0  2.8290104E+02  1.5207916E+02 -4.0704121E+02  5.1850132E+02  1.3284617E-06  0.0000000E+00  1.0000000E+00
 13  1  5  5   0   0  9.3136045E+00  8.1559424E+00  2.4848353E+00  1.2626838E+01  1.4273290E-05  0.0000000E+00  1.0000000E+00
</event>
<event>
9 100 1.0000000E+00 1.0000000E+03 7.8125000E-03 0.0000000E+00
 21 -1  0  0 501 502  0.0000000E+00  0.0000000E+00  3.3151686E+02  3.3151686E+02  0.0000000E+00  0.0000000E+00  1.0000000E+00
 21 -1  0  0 502 501  0.0000000E+00  0.0000000E+00 -7.5269010E+02  7.5269010E+02  0.0000000E+00  0.0000000E+00  1.0000000E+00
 39  2  1  2   0   0 -2.8421709E-13  5.6843419E-14 -4.2117324E+02  1.0842070E+03  9.9905847E+02  0.0000000E+00  1.0000000E+00
 23  2  3  3   0   0 -4.6531326E+02  9.6306792E+01 -3.5437009E+02  5.9990049E+02  9.2255167E+01  0.0000000E+00  1.0000000E+00
 23  2  3  3   0   0  4.6531326E+02 -9.6306792E+01 -6.6803154E+01  4.8430646E+02  6.5564211E+01  0.0000000E+00  1.0000000E+00
-11  1  4  4   0   0 -2.5737368E+02  9.7571974E+00 -1.6743404E+02  3.0719793E+02  1.3754087E-05  0.0000000E+00  1.0000000E+00
 11  1  4  4   0   0 -2.0793957E+02  8.6549595E+01 -1.8693605E+02  2.9270256E+02  1.0446979E-05  0.0000000E+00  1.0000000E+00
-13  1  5  5   0   0  7.7724391E+01 -2.0174102E+01 -3.6334348E+01  8.8137734E+01  1.8031760E-05  0.0000000E+00  1.0000000E+00
 13  1  5  5   0   0  3.8758886E+02 -7.6132691E+01 -3.0468806E+01  3.9616873E+02  4.5736613E-06  0.0000000E+00  1.0000000E+00
</event>
<event>
9 100 1.0000000E+00 1.0000000E+03 7.8125000E-03 0.0000000E+00
 21 -1  0  0 501 502  0.0000000E+00  0.0000000E+00  1.1246963E+03  1.1246963E+03  0.0000000E+00  0.0000000E+00  1.0000000E+00
 21 -1  0  0 502 501  0.0000000E+00  0.0000000E+00 -4.2594328E+02  4.2594328E+02  0.0000000E+00  0.0000000E+00  1.0000000E+00
 39  2  1  2   0   0  3.4106051E-13  6.8212103E-13  6.9875307E+02  1.5506396E+03  1.3842787E+03  0.0000000E+00  1.0000000E+00
 23  2  3  3   0   0  2.5778772E+02  5.5429278E+02  6.9854196E+02  9.3256645E+02  8.9578553E+01  0.0000000E+00  1.0000000E+00
 23  2  3  3   0   0 -2.5778772E+02 -5.5429278E+02  2.1110809E-01  6.1807317E+02  9.1210809E+01  0.0000000E+00  1.0000000E+00
-11  1  4  4   0   0  2.2409446E+02  4.5332737E+02  6.2113218E+02  8.0095518E+02  2.5231851E-06  0.0000000E+00  1.0000000E+00
 11  1  4  4   0   0  3.3693264E+01  1.0096541E+02  7.7409786E+01  1.3161126E+02  2.1579186E-05  0.0000000E+00  1.0000000E+00
-13  1  5  5   0   0 -2.3624442E+02 -4.2864329E+02  1.5476353E+01  4.8967950E+02  5.2424987E-06  0.0000000E+00  1.0000000E+00
 13  1  5  5   0   0 -2.1543301E+01 -1.2564949E+02 -1.5265245E+01  1.2839368E+02  1.5630515E-05  0.0000000E+00  1.0000000E+00
</event>
<event>
9 100 1.0000000E+00 1.0000000E+03 7.8125000E-03 0.0000000E+00
 21 -1  0  0 501 502  0.0000000E+00  0.0000000E+00  1.0990014E+03  1.0990014E+03  0.0000000E+00  0.0000000E+00  1.0000000E+00
 21 -1  0  0 502 501  0.0000000E+00  0.0000000E+00 -2.2470197E+02  2.2470197E+02  0.0000000E+00  0.0000000E+00  1.0000000E+00
 39  2  1  2   0   0 -3.9790393E-13 -1.7053026E-13  8.7429945E+02  1.3237034E+03  9.9387683E+02  0.0000000E+00  1.0000000E+00
 23  2  3  3   0   0 -2.1977083E+02 -1.0599188E+02 -1.2598800E+02  2.8989399E+02  9.2908840E+01  0.0000000E+00  1.0000000E+00
 23  2  3  3   0   0  2.1977083E+02  1.0599188E+02  1.0002874E+03  1.0338094E+03  9.3023756E+01  0.0000000E+00  1.0000000E+00
-11  1  4  4   0   0 -1.9547424E+02 -6.0559506E+01 -7.6547910E+01  2.1848848E+02  2.1324806E-06  0.0000000E+00  1.0000000E+00
 11  1  4  4   0   0 -2.4296590E+01 -4.5432369E+01 -4.9440087E+01  7.1405509E+01  3.4385216E-06  0.0000000E+00  1.0000000E+00
-13  1  5  5   0   0  1.5525967E+01  3.7621304E+01  9.6882773E+01  1.0508420E+02  3.0517578E-05  0.0000000E+00  1.0000000E+00
 13  1  5  5   0   0  2.0424486E+02  6.8370571E+01  9.0340467E+02  9.2872520E+02  6.0315660E-06  0.0000000E+00  1.0000000E+00
</event>
<event>
9 100 1.0000000E+00 1.0000000E+03 7.8125000E-03 0.0000000E+00
 21 -1  0  0 501 502  0.0000000E+00  0.0000000E+00  1.0422057E+03  1.0422057E+03  0.0000000E+00  0.0000000E+00  1.0000000E+00
 21 -1  0  0 502 501  0.0000000E+00  0.0000000E+00 -2.4409902E+02  2.4409902E+02  0.0000000E+00  0.0000000E+00  1.0000000E+00
 39  2  1  2   0   0  7.1054274E-13  1.9326762E-12  7.9810669E+02  1.2863047E+03  1.0087644E+03  0.0000000E+00  1.0000000E+00
 23  2  3  3   0   0 -1.3876419E+02 -3.8348385E+02  3.4460878E+01  4.1590514E+02  7.3987591E+01  0.0000000E+00  1.0000000E+00
 23  2  3  3   0   0  1.3876419E+02  3.8348385E+02  7.6364582E+02  8.7039960E+02  9.0139662E+01  0.0000000E+00  1.0000000E+00
-11  1  4  4   0   0 -1.1258335E+02 -3.1595076E+02 -6.5610289E-01  3.3541069E+02  4.6963014E-06  0.0000000E+00  1.0000000E+00
 11  1  4  4   0   0 -2.6180837E+01 -6.7533090E+01  3.5116981E+01  8.0494452E+01  1.0962673E-05  0.0000000E+00  1.0000000E+00
-13  1  5  5   0   0  2.5553485E+01  2.0217269E+02  3.8341437E+02  4.3420428E+02  1.9451216E-05  0.0000000E+00  1.0000000E+00
 13  1  5  5   0   0  1.1321071E+02  1.8131116E+02  3.8023144E+02  4.3619531E+02  1.9451216E-05  0.0000000E+00  1.0000000E+00
</event>
<event>
9 100 1.0000000E+00 1.0000000E+03 7.8125000E-03 0.0000000E+00
 21 -1  0  0 501 502  0.0000000E+00  0.0000000E+00  3.3631889E+02  3.3631889E+02  0.0000000E+00  0.0000000E+00  1.0000000E+00
 21 -1  0  0 502 501  0.0000000E+00  0.0000000E+00 -6.7646466E+02  6.7646466E+02  0.0000000E+00  0.0000000E+00  1.0000000E+00
 39  2  1  2   0   0 -7.6738615E-13  1.3500312E-13 -3.4014577E+02  1.0127836E+03  9.5395565E+02  0.0000000E+00  1.0000000E+00
 23  2  3  3   0   0  2.1500344E+02 -3.9177568E+01  2.6767431E+02  3.6051986E+02  1.0277974E+02  0.0000000E+00  1.0000000E+00
 23  2  3  3   0   0 -2.1500344E+02  3.9177568E+01 -6.0782008E+02  6.5226369E+02  9.0781665E+01  0.0000000E+00  1.0000000E+00
-11  1  4  4   0   0  3.4681310E+00 -5.3965201E+00 -8.7236499E+00  1.0828316E+01  1.6627880E-05  0.0000000E+00  1.0000000E+00
 11  1  4  4   0   0  2.1153530E+02 -3.3781048E+01  2.7639796E+02  3.4969155E+02  2.5898887E-06  0.0000000E+00  1.0000000E+00
-13  1  5  5   0   0 -1.7336486E+02  4.5470893E+01 -5.6265840E+02  5.9051457E+02  1.8467824E-06  0.0000000E+00  1.0000000E+00
 13  1  5  5   0   0 -4.1638573E+01 -6.2933246E+00 -4.5161676E+01  6.1749118E+01  1.8688124E-05  0.0000000E+00  1.0000000E+00
</event>
<event>
9 100 1.0000000E+00 1.0000000E+03 7.8125000E-03 0.0000000E+00
 21 -1  0  0 501 502  0.0000000E+00  0.0000000E+00  2.1224533E+02  2.1224533E+02  0.0000000E+00  0.0000000E+00  1.0000000E+00
 21 -1  0  0 502 501  0.0000000E+00  0.0000000E+00 -1.1231348E+03  1.1231348E+03  0.0000000E+00  0.0000000E+00  1.0000000E+00
 39  2  1  2   0   0  0.0000000E+00  0.0000000E+00 -9.1088944E+02  1.3353801E+03  9.7648372E+02  0.0000000E+00  1.0000000E+00
 23  2  3  3   0   0  2.5667247E+02 -3.7307165E+01 -1.0072190E+03  1.0438522E+03  8.8683204E+01  0.0000000E+00  1.0000000E+00
 23  2  3  3   0   0 -2.5667247E+02  3.7307165E+01  9.6329602E+01  2.9152787E+02  9.1850567E+01  0.0000000E+00  1.0000000E+00
-11  1  4  4   0   0  1.3857489E+02  2.4627989E+01 -5.2218333E+02  5.4081880E+02  5.3947966E-06  0.0000000E+00  1.0000000E+00
 11  1  4  4   0   0  1.1809757E+02 -6.1935154E+01 -4.8503571E+02  5.0303343E+02  1.7059845E-05  0.0000000E+00  1.0000000E+00
-13  1  5  5   0   0 -8.8983953E+01 -5.4371311E+00  7.6260551E+01  1.1731742E+02  1.1680077E-06  0.0000000E+00  1.0000000E+00
 13  1  5  5   0   0 -1.6768851E+02  4.2744296E+01  2.0069051E+01  1.7421045E+02  3.3036247E-06  0.0000000E+00  1.0000000E+00
</event>
<event>
9 100 1.0000000E+00 1.0000000E+03 7.8125000E-03 0.0000000E+00
 21 -1  0  0 501 502  0.0000000E+00  0.0000000E+00  7.0484183E+02  7.0484183E+02  0.0000000E+00  0.0000000E+00  1.0000000E+00
 21 -1  0  0 502 501  0.0000000E+00  0.0000000E+00 -3.5872122E+02  3.5872122E+02  0.0000000E+00  0.0000000E+00  1.0000000E+00
 39  2  1  2   0   0  2.5579538E-13 -1.3642421E-12  3.4612061E+02  1.0635630E+03  1.0056674E+03  0.0000000E+00  1.0000000E+00
 23  2  3  3   0   0  8.5512619E+01 -4.1840701E+02 -9.0884565E+01  4.4570571E+02  8.9536255E+01  0.0000000E+00  1.0000000E+00
 23  2  3  3   0   0 -8.5512619E+01  4.1840701E+02  4.3700518E+02  6.1785734E+02  9.1636945E+01  0.0000000E+00  1.0000000E+00
-11  1  4  4   0   0  3.0890648E+01 -1.0939818E+02 -6.4741709E+01  1.3081927E+02  7.6887681E-06  0.0000000E+00  1.0000000E+00
 11  1  4  4   0   0  5.4621971E+01 -3.0900884E+02 -2.6142856E+01  3.1488644E+02  3.0157830E-06  0.0000000E+00  1.0000000E+00
-13  1  5  5   0   0 -2.1855039E+00  1.4577907E+01 -2.7834466E+00  1.5001312E+01  1.6184390E-05  0.0000000E+00  1.0000000E+00
 13  1  5  5   0   0 -8.3327115E+01  4.0382910E+02  4.3978862E+02  6.0285602E+02  1.1119102E-06  0.0000000E+00  1.0000000E+00
</event>
<event>
9 100 1.0000000E+00 1.0000000E+03 7.8125000E-03 0.0000000E+00
 21 -1  0  0 501 502  0.0000000E+00  0.0000000E+00  2.0446473E+02  2.0446473E+02  0.0000000E+00  0.0000000E+00  1.0000000E+00
 21 -1  0  0 502 501  0.0000000E+00  0.0000000E+00 -1.2232094E+03  1.2232094E+03  0.0000000E+00  0.0000000E+00  1.0000000E+00
 39  2  1  2   0   0 -2.6645353E-13  2.3305802E-12 -1.0187447E+03  1.4276742E+03  1.0002063E+03  0.0000000E+00  1.0000000E+00
 23  2  3  3   0   0 -2.4444278E+01  2.0811931E+02  1.2595766E+02  2.6040200E+02  8.9625329E+01  0.0000000E+00  1.0000000E+00
 23  2  3  3   0   0  2.4444278E+01 -2.0811931E+02 -1.1447023E+03  1.1672722E+03  9.0937538E+01  0.0000000E+00  1.0000000E+00
-11  1  4  4   0   0 -3.6612644E+01  6.4034139E+01  8.7741150E+00  7.4282176E+01  6.8770433E-06  0.0000000E+00  1.0000000E+00
 11  1  4  4   0   0  1.2168366E+01  1.4408517E+02  1.1718354E+02  1.8611982E+02  4.1209188E-06  0.0000000E+00  1.0000000E+00
-13  1  5  5   0   0  2.7420867E+01 -1.6068543E+02 -1.0344135E+03  1.0471786E+03  6.0315660E-06  0.0000000E+00  1.0000000E+00
 13  1  5  5   0   0 -2.9765898E+00 -4.7433880E+01 -1.1028885E+02  1.2009357E+02  2.6428998E-05  0.0000000E+00  1.0000000E+00
</event>
<event>
9 100 1.0000000E+00 1.0000000E+03 7.8125000E-03 0.0000000E+00
 21 -1  0  0 501 502  0.0000000E+00  0.0000000E+00  1.1266461E+03  1.1266461E+03  0.0000000E+00  0.0000000E+00  1.0000000E+00
 21 -1  0  0 502 501  0.0000000E+00  0.0000000E+00 -2.1961811E+02  2.1961811E+02  0.0000000E+00  0.0000000E+00  1.0000000E+00
 39  2  1  2   0   0  2.8137492E-12  3.9790393E-12  9.0702803E+02  1.3462642E+03  9.9485053E+02  0.0000000E+00  1.0000000E+00
 23  2  3  3   0   0  1.3365612E+02  1.8442549E+02  1.0363276E+03  1.0649152E+03  9.0513108E+01  0.0000000E+00  1.0000000E+00
 23  2  3  3   0   0 -1.3365612E+02 -1.8442549E+02 -1.2929962E+02  2.8134907E+02  1.0277248E+02  0.0000000E+00  1.0000000E+00
-11  1  4  4   0   0  1.0970821E+01  2.3660568E+01  3.0588048E+02  3.0699030E+02  1.5258789E-05  0.0000000E+00  1.0000000E+00
 11  1  4  4   0   0  1.2268530E+02  1.6076493E+02  7.3044717E+02  7.5792488E+02  1.0092740E-05  0.0000000E+00  1.0000000E+00
-13  1  5  5   0   0 -9.1039339E+01 -5.7240621E+01 -2.2447481E+01  1.0985690E+02  4.2649612E-06  0.0000000E+00  1.0000000E+00
 13  1  5  5   0   0 -4.2616784E+01 -1.2718487E+02 -1.0685214E+02  1.7149216E+02  1.4305115E-06  0.0000000E+00  1.0000000E+00
</event>
<event>
9 100 1.0000000E+00 1.0000000E+03 7.8125000E-03 0.0000000E+00
 21 -1  0  0 501 502  0.0000000E+00  0.0000000E+00  2.1318873E+03  2.1318873E+03  0.0000000E+00  0.0000000E+00  1.0000000E+00
 21 -1  0  0 502 501  0.0000000E+00  0.0000000E+00 -1.1653910E+02  1.1653910E+02  0.0000000E+00  0.0000000E+00  1.0000000E+00
 39  2  1  2   0   0 -2.2026825E-12  3.7232439E-12  2.0153482E+03  2.2484264E+03  9.9689162E+02  0.0000000E+00  1.0000000E+00
 23  2  3  3   0   0  1.0485697E+02 -1.7620265E+02  2.8503238E+00  2.2356862E+02  8.9064273E+01  0.0000000E+00  1.0000000E+00
 23  2  3  3   0   0 -1.0485697E+02  1.7620265E+02  2.0124979E+03  2.0248578E+03  8.8650984E+01  0.0000000E+00  1.0000000E+00
-11  1  4  4   0   0  1.0997245E+02 -1.8163175E+02  1.0880200E+01  2.1260859E+02  4.6231078E-06  0.0000000E+00  1.0000000E+00
 11  1  4  4   0   0 -5.1154792E+00  5.4291047E+00 -8.0298761E+00  1.0960028E+01  2.1860852E-05  0.0000000E+00  1.0000000E+00
-13  1  5  5   0   0 -4.0788927E+01  2.5148319E+01  2.3708154E+02  2.4187565E+02  6.8239379E-05  0.0000000E+00  1.0000000E+00
 13  1  5  5   0   0 -6.4068042E+01  1.5105433E+02  1.7754163E+03  1.7829821E+03  1.4016093E-05  0.0000000E+00  1.0000000E+00
</event>
<event>
9 100 1.0000000E+00 1.0000000E+03 7.8125000E-03 0.0000000E+00
 21 -1  0  0 501 502  0.0000000E+00  0.0000000E+00  9.9475311E+02  9.9475311E+02  0.0000000E+00  0.0000000E+00  1.0000000E+00
 21 -1  0  0 502 501  0.0000000E+00  0.0000000E+00 -2.4817556E+02  2.4817556E+02  0.0000000E+00  0.0000000E+00  1.0000000E+00
 39  2  1  2   0   0 -2.5011104E-12  1.6768809E-12  7.4657756E+02  1.2429287E+03  9.9372714E+02  0.0000000E+00  1.0000000E+00
 23  2  3  3   0   0  2.8834875E+02 -1.9051498E+02 -5.8556737E+01  3.6204001E+02  9.0571060E+01  0.0000000E+00  1.0000000E+00
 23  2  3  3   0   0 -2.8834875E+02  1.9051498E+02  8.0513429E+02  8.8088866E+02  9.1008990E+01  0.0000000E+00  1.0000000E+00
-11  1  4  4   0   0  1.0788450E+02 -9.4791201E+01  1.6173372E+01  1.4451995E+02  1.1523291E-05  0.0000000E+00  1.0000000E+00
 11  1  4  4   0   0  1.8046426E+02 -9.5723775E+01 -7.4730109E+01  2.1752006E+02  8.4730890E-06  0.0000000E+00  1.0000000E+00
-13  1  5  5   0   0 -1.7775179E+02  1.0551904E+02  5.8331083E+02  6.1885498E+02  8.0921949E-06  0.0000000E+00  1.0000000E+00
 13  1  5  5   0   0 -1.1059697E+02  8.4995932E+01  2.2182347E+02  2.6203368E+02  0.0000000E+00  0.0000000E+00  1.0000000E+00
</event>
<event>
9 100 1.0000000E+00 1.0000000E+03 7.8125000E-03 0.0000000E+00
 21 -1  0  0 501 502  0.0000000E+00  0.0000000E+00  3.2180405E+02  3.2180405E+02  0.0000000E+00  0.0000000E+00  1.0000000E+00
 21 -1  0  0 502 501  0.0000000E+00  0.0000000E+00 -7.7474312E+02  7.7474312E+02  0.0000000E+00  0.0000000E+00  1.0000000E+00
 39  2  1  2   0   0 -5.1159077E-13  1.4210855E-13 -4.5293906E+02  1.0965472E+03  9.9863001E+02  0.0000000E+00  1.0000000E+00
 23  2  3  3   0   0  3.4883006E+02 -8.5188852E+01 -5.9337714E+02  6.9956304E+02  9.1391806E+01  0.0000000E+00  1.0000000E+00
 23  2  3  3   0   0 -3.4883006E+02  8.5188852E+01  1.4043808E+02  3.9698413E+02  9.4519804E+01  0.0000000E+00  1.0000000E+00
-11  1  4  4   0   0  1.7527875E+02 -2.3603138E+01 -2.1225854E+02  2.7628506E+02  9.3440618E-06  0.0000000E+00  1.0000000E+00
 11  1  4  4   0   0  1.7355131E+02 -6.1585714E+01 -3.8111860E+02  4.2327798E+02  6.0315660E-06  0.0000000E+00  1.0000000E+00
-13  1  5  5   0   0 -3.3671180E+02  1.0007640E+02  1.3887218E+02  3.7772424E+02  1.6900834E-06  0.0000000E+00  1.0000000E+00
 13  1  5  5   0   0 -1.2118260E+01 -1.4887543E+01  1.5658973E+00  1.9259886E+01  1.5258789E-05  0.0000000E+00  1.0000000E+00
</event>
<event>
9 100 1.0000000E+00 1.0000000E+03 7.8125000E-03 0.0000000E+00
 21 -1  0  0 501 502  0.0000000E+00  0.0000000E+00  1.1152547E+03  1.1152547E+03  0.0000000E+00  0.0000000E+00  1.0000000E+00
 21 -1  0  0 502 501  0.0000000E+00  0.0000000E+00 -2.2819839E+02  2.2819839E+02  0.0000000E+00  0.0000000E+00  1.0000000E+00
 39  2  1  2   0   0  1.8758328E-12  1.5916157E-12  8.8705629E+02  1.3434531E+03  1.0089585E+03  0.0000000E+00  1.0000000E+00
 23  2  3  3   0   0  3.7254234E+02  3.2628338E+02  4.0656111E+02  6.4760785E+02  9.4102924E+01  0.0000000E+00  1.0000000E+00
 23  2  3  3   0   0 -3.7254234E+02 -3.2628338E+02  4.8049519E+02  6.9584523E+02  8.9868343E+01  0.0000000E+00  1.0000000E+00
-11  1  4  4   0   0  2.5446228E+02  2.7305804E+02  3.2181322E+02  4.9282400E+02  3.6935647E-06  0.0000000E+00  1.0000000E+00
 11  1  4  4   0   0  1.1808006E+02  5.3225336E+01  8.4747889E+01  1.5478386E+02  9.3440618E-06  0.0000000E+00  1.0000000E+00
-13  1  5  5   0   0 -2.8690757E+02 -2.0811560E+02  3.7336270E+02  5.1480847E+02  7.2629672E-06  0.0000000E+00  1.0000000E+00
 13  1  5  5   0   0 -8.5634768E+01 -1.1816778E+02  1.0713249E+02  1.8103676E+02  9.3440618E-06  0.0000000E+00  1.0000000E+00
</event>
<event>
9 100 1.0000000E+00 1.0000000E+03 7.8125000E-03 0.0000000E+00
 21 -1  0  0 501 502  0.0000000E+00  0.0000000E+00  2.4399933E+02  2.4399933E+02  0.0000000E+00  0.0000000E+00  1.0000000E+00
 21 -1  0  0 502 501  0.0000000E+00  0.0000000E+00 -1.0317874E+03  1.0317874E+03  0.0000000E+00  0.0000000E+00  1.0000000E+00
 39  2  1  2   0   0 -1.9610980E-12  5.5422333E-13 -7.8778806E+02  1.2757867E+03  1.0035047E+03  0.0000000E+00  1.0000000E+00
 23  2  3  3   0   0 -2.3956457E+02  6.4258998E+01 -9.3668872E+02  9.7311223E+02  8.9672941E+01  0.0000000E+00  1.0000000E+00
 23  2  3  3   0   0  2.3956457E+02 -6.4258998E+01  1.4890066E+02  3.0267450E+02  8.8994604E+01  0.0000000E+00  1.0000000E+00
-11  1  4  4   0   0 -5.3926665E+01 -4.3538974E-01 -9.9742822E+01  1.1338829E+02  1.8688124E-05  0.0000000E+00  1.0000000E+00
 11  1  4  4   0   0 -1.8563791E+02  6.4694388E+01 -8.3694590E+02  8.5972393E+02  3.0157830E-06  0.0000000E+00  1.0000000E+00
-13  1  5  5   0   0  1.0305308E+02 -7.0622880E+01  5.2916315E+01  1.3567485E+02  3.3036247E-06  0.0000000E+00  1.0000000E+00
 13  1  5  5   0   0  1.3651150E+02  6.3638818E+00  9.5984345E+01  1.6699965E+02  2.8610229E-06  0.0000000E+00  1.0000000E+00
</event>
<event>
9 100 1.0000000E+00 1.0000000E+03 7.8125000E-03 0.0000000E+00
 21 -1  0  0 501 502  0.0000000E+00  0.0000000E+00  1.0242377E+03  1.0242377E+03  0.0000000E+00  0.0000000E+00  1.0000000E+00
 21 -1  0  0 502 501  0.0000000E+00  0.0000000E+00 -2.4566335E+02  2.4566335E+02  0.0000000E+00  0.0000000E+00  1.0000000E+00
 39  2  1  2   0   0  7.6738615E-13 -2.6147973E-12  7.7857440E+02  1.2699011E+03  1.0032301E+03  0.0000000E+00  1.0000000E+00
 23  2  3  3   0   0 -1.3013008E+02  4.7052341E+02  4.1718019E+02  6.5666266E+02  1.3726038E+02  0.0000000E+00  1.0000000E+00
 23  2  3  3   0   0  1.3013008E+02 -4.7052341E+02  3.6139421E+02  6.1323843E+02  8.4436253E+01  0.0000000E+00  1.0000000E+00
-11  1  4  4   0   0  1.3261121E+01  2.7424336E+00  2.9370089E+01  3.2341620E+01  1.8688124E-05  0.0000000E+00  1.0000000E+00
 11  1  4  4   0   0 -1.4339120E+02  4.6778098E+02  3.8781010E+02  6.2432104E+02  1.3902073E-06  0.0000000E+00  1.0000000E+00
-13  1  5  5   0   0  1.0381387E+02 -4.4288247E+02  3.1571013E+02  5.5371029E+02  2.5231851E-06  0.0000000E+00  1.0000000E+00
 13  1  5  5   0   0  2.6316207E+01 -2.7640948E+01  4.5684080E+01  5.9528144E+01  8.5299224E-06  0.0000000E+00  1.0000000E+00
</event>
<event>
9 100 1.0000000E+00 1.0000000E+03 7.8125000E-03 0.0000000E+00
 21 -1  0  0 501 502  0.0000000E+00  0.0000000E+00  3.3139249E+02  3.3139249E+02  0.0000000E+00  0.0000000E+00  1.0000000E+00
 21 -1  0  0 502 501  0.0000000E+00  0.0000000E+00 -7.5086357E+02  7.5086357E+02  0.0000000E+00  0.0000000E+00  1.0000000E+00
 39  2  1  2   0   0  1.4779289E-12  2.5579538E-13 -4.1947108E+02  1.0822561E+03  9.9765835E+02  0.0000000E+00  1.0000000E+00
 23  2  3  3   0   0  4.8151933E+02  8.0903342E+01 -2.6204364E+02  5.6178071E+02  9.2328098E+01  0.0000000E+00  1.0000000E+00
 23  2  3  3   0   0 -4.8151933E+02 -8.0903342E+01 -1.5742744E+02  5.2047534E+02  8.7777923E+01  0.0000000E+00  1.0000000E+00
-11  1  4  4   0   0  2.2332484E+02 -1.1308715E-01 -8.8004882E+01  2.4003928E+02  1.4273290E-05  0.0000000E+00  1.0000000E+00
 11  1  4  4   0   0  2.5819450E+02  8.1016429E+01 -1.7403876E+02  3.2174143E+02  1.3214499E-05  0.0000000E+00  1.0000000E+00
-13  1  5  5   0   0 -4.7625752E+02 -9.0105915E+01 -1.4949941E+02  5.0723798E+02  1.8371385E-06  0.0000000E+00  1.0000000E+00
 13  1  5  5   0   0 -5.2618187E+00  9.2025730E+00 -7.9280266E+00  1.3237360E+01  2.0275394E-05  0.0000000E+00  1.0000000E+00
</event>
<event>
9 100 1.0000000E+00 1.0000000E+03 7.8125000E-03 0.0000000E+00
 21 -1  0  0 501 502  0.0000000E+00  0.0000000E+00  1.4084942E+03  1.4084942E+03  0.0000000E+00  0.0000000E+00  1.0000000E+00
 21 -1  0  0 502 501  0.0000000E+00  0.0000000E+00 -1.7565895E+02  1.7565895E+02  0.0000000E+00  0.0000000E+00  1.0000000E+00
 39  2  1  2   0   0  4.8316906E-13  1.1937118E-12  1.2328352E+03  1.5841531E+03  9.9481577E+02  0.0000000E+00  1.0000000E+00
 23  2  3  3   0   0  1.4877174E+02  4.0176509E+02  9.9243491E+02  1.0842546E+03  8.4455800E+01  0.0000000E+00  1.0000000E+00
 23  2  3  3   0   0 -1.4877174E+02 -4.0176509E+02  2.4040031E+02  4.9989851E+02  9.2509445E+01  0.0000000E+00  1.0000000E+00
-11  1  4  4   0   0  3.9212316E+01  3.2580688E+01  9.8898190E+01  1.1126526E+02  4.7030746E-05  0.0000000E+00  1.0000000E+00
 11  1  4  4   0   0  1.0955942E+02  3.6918440E+02  8.9353672E+02  9.7298935E+02  6.0315660E-06  0.0000000E+00  1.0000000E+00
-13  1  5  5   0   0 -1.2090269E+02 -2.2502108E+02  1.0812548E+02  2.7738613E+02  1.1757687E-05  0.0000000E+00  1.0000000E+00
 13  1  5  5   0   0 -2.7869046E+01 -1.7674401E+02  1.3227483E+02  2.2251238E+02  1.6352108E-05  0.0000000E+00  1.0000000E+00
</event>
<event>
9 100 1.0000000E+00 1.0000000E+03 7.8125000E-03 0.0000000E+00
 21 -1  0  0 501 502  0.0000000E+00  0.0000000E+00  1.9378095E+02  1.9378095E+02  0.0000000E+00  0.0000000E+00  1.0000000E+00
 21 -1  0  0 502 501  0.0000000E+00  0.0000000E+00 -1.2698106E+03  1.2698106E+03  0.0000000E+00  0.0000000E+00  1.0000000E+00
 39  2  1  2   0   0  4.4906301E-12 -1.6200374E-12 -1.0760296E+03  1.4635915E+03  9.9209898E+02  0.0000000E+00  1.0000000E+00
 23  2  3  3   0   0  4.3263606E+02 -1.4952272E+02 -7.8567315E+02  9.1418111E+02  9.4412963E+01  0.0000000E+00  1.0000000E+00
 23  2  3  3   0   0 -4.3263606E+02  1.4952272E+02 -2.9035649E+02  5.4941042E+02  8.9520476E+01  0.0000000E+00  1.0000000E+00
-11  1  4  4   0   0  1.7055845E+02 -3.5588763E+01 -3.7911979E+02  4.1723922E+02  2.0185481E-05  0.0000000E+00  1.0000000E+00
 11  1  4  4   0   0  2.6207760E+02 -1.1393396E+02 -4.0655335E+02  4.9694190E+02  1.0789593E-05  0.0000000E+00  1.0000000E+00
-13  1  5  5   0   0 -3.2871833E+02  1.4713355E+02 -2.0162173E+02  4.1274126E+02  7.1366451E-06  0.0000000E+00  1.0000000E+00
 13  1  5  5   0   0 -1.0391772E+02  2.3891659E+00 -8.8734762E+01  1.3666916E+02  1.8492431E-05  0.0000000E+00  1.0000000E+00
</event>
<event>
9 100 1.0000000E+00 1.0000000E+03 7.8125000E-03 0.0000000E+00
 21 -1  0  0 501 502  0.0000000E+00  0.0000000E+00  1.1381979E+03  1.1381979E+03  0.0000000E+00  0.0000000E+00  1.0000000E+00
 21 -1  0  0 502 501  0.0000000E+00  0.0000000E+00 -2.1966019E+02  2.1966019E+02  0.0000000E+00  0.0000000E+00  1.0000000E+00
 39  2  1  2   0   0  4.2632564E-13 -3.9790393E-13  9.1853775E+02  1.3578581E+03  1.0000335E+03  0.0000000E+00  1.0000000E+00
 23  2  3  3   0   0  1.3695397E+02 -1.1991469E+02  1.0796630E+03  1.0985833E+03  8.9872634E+01  0.0000000E+00  1.0000000E+00
 23  2  3  3   0   0 -1.3695397E+02  1.1991469E+02 -1.6112523E+02  2.5927487E+02  9.0145416E+01  0.0000000E+00  1.0000000E+00
-11  1  4  4   0   0  1.0031745E+02 -4.5395346E+01  7.7592755E+02  7.8370140E+02  9.3440618E-06  0.0000000E+00  1.0000000E+00
 11  1  4  4   0   0  3.6636517E+01 -7.4519343E+01  3.0373543E+02  3.1488185E+02  2.1579186E-05  0.0000000E+00  1.0000000E+00
-13  1  5  5   0   0 -1.1760759E+02  8.2251559E+01 -7.1914348E+01  1.6052582E+02  2.6973983E-06  0.0000000E+00  1.0000000E+00
 13  1  5  5   0   0 -1.9346375E+01  3.7663131E+01 -8.9210882E+01  9.8749051E+01  4.0460975E-06  0.0000000E+00  1.0000000E+00
</event>
<event>
9 100 1.0000000E+00 1.0000000E+03 7.8125000E-03 0.0000000E+00
 21 -1  0  0 501 502  0.0000000E+00  0.0000000E+00  3.6264439E+02  3.6264439E+02  0.0000000E+00  0.0000000E+00  1.0000000E+00
 21 -1  0  0 502 501  0.0000000E+00  0.0000000E+00 -6.7396750E+02  6.7396750E+02  0.0000000E+00  0.0000000E+00  1.0000000E+00
 39  2  1  2   0   0 -4.2632564E-14  1.7053026E-13 -3.1132311E+02  1.0366119E+03  9.8875787E+02  0.0000000E+00  1.0000000E+00
 23  2  3  3   0   0 -1.0730715E+02  3.2639805E+02 -5.1565325E+02  6.2646959E+02  9.2278735E+01  0.0000000E+00  1.0000000E+00
 23  2  3  3   0   0  1.0730715E+02 -3.2639805E+02  2.0433014E+02  4.1014229E+02  9.1735383E+01  0.0000000E+00  1.0000000E+00
-11  1  4  4   0   0 -1.2074127E+02  3.0322953E+02 -4.9373551E+02  5.9186262E+02  1.2839233E-06  0.0000000E+00  1.0000000E+00
 11  1  4  4   0   0  1.3434112E+01  2.3168516E+01 -2.1917740E+01  3.4606976E+01  2.0185481E-05  0.0000000E+00  1.0000000E+00
-13  1  5  5   0   0 -1.3811038E+01 -7.7948744E+01  4.2425515E+01  8.9814675E+01  9.9108742E-06  0.0000000E+00  1.0000000E+00
 13  1  5  5   0   0  1.2111819E+02 -2.4844930E+02  1.6190463E+02  3.2032761E+02  3.8146973E-06  0.0000000E+00  1.0000000E+00
</event>
<event>
9 100 1.0000000E+00 1.0000000E+03 7.8125000E-03 0.0000000E+00
 21 -1  0  0 501 502  0.0000000E+00  0.0000000E+00  2.1316018E+02  2.1316018E+02  0.0000000E+00  0.0000000E+00  1.0000000E+00
 21 -1  0  0 502 501  0.0000000E+00  0.0000000E+00 -1.1871337E+03  1.1871337E+03  0.0000000E+00  0.0000000E+00  1.0000000E+00
 39  2  1  2   0   0 -5.1159077E-13 -9.0949470E-13 -9.7397349E+02  1.4002939E+03  1.0060808E+03  0.0000000E+00  1.0000000E+00
 23  2  3  3   0   0 -1.3256268E+02 -2.4307196E+02 -1.0414126E+03  1.0777772E+03  2.0168088E+01  0.0000000E+00  1.0000000E+00
 23  2  3  3   0   0  1.3256268E+02  2.4307196E+02  6.7439081E+01  3.2251664E+02  1.5103678E+02  0.0000000E+00  1.0000000E+00
-11  1  4  4   0   0 -1.4780843E+00 -1.5398358E+00 -1.7410257E+01  1.7540606E+01  2.6428998E-05  0.0000000E+00  1.0000000E+00
 11  1  4  4   0   0 -1.3108460E+02 -2.4153212E+02 -1.0240023E+03  1.0602366E+03  1.3058723E-06  0.0000000E+00  1.0000000E+00
-13  1  5  5   0   0  4.6893619E+01  1.2264382E+02  1.0716019E+02  1.6948105E+02  4.7444698E-06  0.0000000E+00  1.0000000E+00
 13  1  5  5   0   0  8.5669064E+01  1.2042814E+02 -3.9721114E+01  1.5303559E+02  6.1805160E-06  0.0000000E+00  1.0000000E+00
</event>
<event>
9 100 1.0000000E+00 1.0000000E+03 7.8125000E-03 0.0000000E+00
 21 -1  0  0 501 502  0.0000000E+00  0.0000000E+00  1.0710863E+03  1.0710863E+03  0.0000000E+00  0.0000000E+00  1.0000000E+00
 21 -1  0  0 502 501  0.0000000E+00  0.0000000E+00 -2.3068384E+02  2.3068384E+02  0.0000000E+00  0.0000000E+00  1.0000000E+00
 39  2  1  2   0   0 -2.8421709E-12  1.8651747E-13  8.4040245E+02  1.3017701E+03  9.9414747E+02  0.0000000E+00  1.0000000E+00
 23  2  3  3   0   0  2.1087641E+02 -1.4029720E+01 -1.5663959E+02  2.7919703E+02  9.3537863E+01  0.0000000E+00  1.0000000E+00
 23  2  3  3   0   0 -2.1087641E+02  1.4029720E+01  9.9704204E+02  1.0225731E+03  8.3049527E+01  0.0000000E+00  1.0000000E+00
-11  1  4  4   0   0  2.0656218E+02 -2.5983838E+01 -1.1973550E+02  2.4016595E+02  2.0230487E-06  0.0000000E+00  1.0000000E+00
 11  1  4  4   0   0  4.3142234E+00  1.1954118E+01 -3.6904091E+01  3.9031083E+01  5.0463701E-06  0.0000000E+00  1.0000000E+00
-13  1  5  5   0   0 -1.4971217E+02  1.6703253E+01  8.5079765E+02  8.6403088E+02  1.9073486E-06  0.0000000E+00  1.0000000E+00
 13  1  5  5   0   0 -6.1164239E+01 -2.6735338E+00  1.4624439E+02  1.5854222E+02  1.5258789E-05  0.0000000E+00  1.0000000E+00
</event>
<event>
9 100 1.0000000E+00 1.0000000E+03 7.8125000E-03 0.0000000E+00
 21 -1  0  0 501 502  0.0000000E+00  0.0000000E+00  1.5330671E+02  1.5330671E+02  0.0000000E+00  0.0000000E+00  1.0000000E+00
 21 -1  0  0 502 501  0.0000000E+00  0.0000000E+00 -1.6354443E+03  1.6354443E+03  0.0000000E+00  0.0000000E+00  1.0000000E+00
 39  2  1  2   0   0 -3.0411229E-12 -1.2576606E-12 -1.4821376E+03  1.7887510E+03  1.0014481E+03  0.0000000E+00  1.0000000E+00
 23  2  3  3   0   0  1.5410360E+02  6.3651292E+01 -1.5689123E+03  1.5802930E+03  8.9669057E+01  0.0000000E+00  1.0000000E+00
 23  2  3  3   0   0 -1.5410360E+02 -6.3651292E+01  8.6774767E+01  2.0845802E+02  9.0141440E+01  0.0000000E+00  1.0000000E+00
-11  1  4  4   0   0  4.6404812E+00  1.6995859E+01 -4.6480052E+02  4.6513430E+02  3.4119690E-05  0.0000000E+00  1.0000000E+00
 11  1  4  4   0   0  1.4946312E+02  4.6655432E+01 -1.1041118E+03  1.1151587E+03  7.6293945E-06  0.0000000E+00  1.0000000E+00
-13  1  5  5   0   0 -1.4874219E+02 -2.5395517E+01  7.0119475E+01  1.6639084E+02  6.5943321E-06  0.0000000E+00  1.0000000E+00
 13  1  5  5   0   0 -5.3614148E+00 -3.8255775E+01  1.6655292E+01  4.2067182E+01  1.5228958E-05  0.0000000E+00  1.0000000E+00
</event>
<event>
9 100 1.0000000E+00 1.0000000E+03 7.8125000E-03 0.0000000E+00
 21 -1  0  0 501 502  0.0000000E+00  0.0000000E+00  4.7920392E+02  4.7920392E+02  0.0000000E+00  0.0000000E+00  1.0000000E+00
 21 -1  0  0 502 501  0.0000000E+00  0.0000000E+00 -5.1552838E+02  5.1552838E+02  0.0000000E+00  0.0000000E+00  1.0000000E+00
 39  2  1  2   0   0  4.5474735E-13 -9.6633812E-13 -3.6324456E+01  9.9473230E+02  9.9406885E+02  0.0000000E+00  1.0000000E+00
 23  2  3  3   0   0 -1.7008897E+02  3.6264268E+02  2.6224362E+02  4.8716033E+02  9.0074946E+01  0.0000000E+00  1.0000000E+00
 23  2  3  3   0   0  1.7008897E+02 -3.6264268E+02 -2.9856807E+02  5.0757197E+02  8.9701919E+01  0.0000000E+00  1.0000000E+00
-11  1  4  4   0   0 -1.6281459E+02  2.5677858E+02  2.0361333E+02  3.6592652E+02  7.7476868E-06  0.0000000E+00  1.0000000E+00
 11  1  4  4   0   0 -7.2743777E+00  1.0586411E+02  5.8630284E+01  1.2123381E+02  1.8881788E-05  0.0000000E+00  1.0000000E+00
-13  1  5  5   0   0  3.7601160E+01 -5.2892885E+01 -1.3571643E+01  6.6300030E+01  1.9451216E-05  0.0000000E+00  1.0000000E+00
 13  1  5  5   0   0  1.3248781E+02 -3.0974980E+02 -2.8499643E+02  4.4127194E+02  3.9067196E-06  0.0000000E+00  1.0000000E+00
</event>
<event>
9 100 1.0000000E+00 1.0000000E+03 7.8125000E-03 0.0000000E+00
 21 -1  0  0 501 502  0.0000000E+00  0.0000000E+00  4.9015023E+02  4.9015023E+02  0.0000000E+00  0.0000000E+00  1.0000000E+00
 21 -1  0  0 502 501  0.0000000E+00  0.0000000E+00 -5.1173381E+02  5.1173381E+02  0.0000000E+00  0.0000000E+00  1.0000000E+00
 39  2  1  2   0   0 -1.1368684E-12 -6.5369932E-13 -2.1583579E+01  1.0018840E+03  1.0016515E+03  0.0000000E+00  1.0000000E+00
 23  2  3  3   0   0  3.6423742E+02  2.0216296E+02 -2.7357360E+02  5.0620040E+02  8.8642901E+01  0.0000000E+00  1.0000000E+00
 23  2  3  3   0   0 -3.6423742E+02 -2.0216296E+02  2.5199002E+02  4.9568365E+02  9.3083573E+01  0.0000000E+00  1.0000000E+00
-11  1  4  4   0   0  1.7148967E+02  9.2273081E+01 -1.8074549E+02  2.6569148E+02  3.0157830E-06  0.0000000E+00  1.0000000E+00
 11  1  4  4   0   0  1.9274775E+02  1.0988988E+02 -9.2828105E+01  2.4050892E+02  8.0921949E-06  0.0000000E+00  1.0000000E+00
-13  1  5  5   0   0 -2.4928726E+02 -1.5365939E+02  2.2169797E+02  3.6729462E+02  4.1019083E-06  0.0000000E+00  1.0000000E+00
 13  1  5  5   0   0 -1.1495016E+02 -4.8503572E+01  3.0292045E+01  1.2838903E+02  6.6072495E-06  0.0000000E+00  1.0000000E+00
</event>
<event>
9 100 1.0000000E+00 1.0000000E+03 7.8125000E-03 0.0000000E+00
 21 -1  0  0 501 502  0.0000000E+00  0.0000000E+00  3.3814874E+02  3.3814874E+02  0.0000000E+00  0.0000000E+00  1.0000000E+00
 21 -1  0  0 502 501  0.0000000E+00  0.0000000E+00 -7.4893133E+02  7.4893133E+02  0.0000000E+00  0.0000000E+00  1.0000000E+00
 39  2  1  2   0   0 -7.1054274E-14  1.4210855E-12 -4.1078259E+02  1.0870801E+03  1.0064794E+03  0.0000000E+00  1.0000000E+00
 23  2  3  3   0   0  2.1965729E+01 -4.3706513E+02  4.4110998E+01  4.4941297E+02  9.2291991E+01  0.0000000E+00  1.0000000E+00
 23  2  3  3   0   0 -2.1965729E+01  4.3706513E+02 -4.5489359E+02  6.3766710E+02  9.0458410E+01  0.0000000E+00  1.0000000E+00
-11  1  4  4   0   0 -3.6316190E+01 -1.8063854E+02  2.0440669E+01  1.8538330E+02  1.1858778E-05  0.0000000E+00  1.0000000E+00
 11  1  4  4   0   0  5.8281919E+01 -2.5642659E+02  2.3670329E+01  2.6402967E+02  7.6256683E-06  0.0000000E+00  1.0000000E+00
-13  1  5  5   0   0  2.5179938E+00  1.9504223E+02 -2.6509731E+02  3.2912672E+02  9.3440618E-06  0.0000000E+00  1.0000000E+00
 13  1  5  5   0   0 -2.4483723E+01  2.4202290E+02 -1.8979628E+02  3.0854038E+02  8.5299224E-06  0.0000000E+00  1.0000000E+00
</event>
<event>
9 100 1.0000000E+00 1.0000000E+03 7.8125000E-03 0.0000000E+00
 21 -1  0  0 501 502  0.0000000E+00  0.0000000E+00  8.0411030E+02  8.0411030E+02  0.0000000E+00  0.0000000E+00  1.0000000E+00
 21 -1  0  0 502 501  0.0000000E+00  0.0000000E+00 -3.1092310E+02  3.1092310E+02  0.0000000E+00  0.0000000E+00  1.0000000E+00
 39  2  1  2   0   0  5.6843419E-13 -4.5474735E-13  4.9318719E+02  1.1150334E+03  1.0000329E+03  0.0000000E+00  1.0000000E+00
 23  2  3  3   0   0  3.3215309E+02 -2.6129176E+02  5.2694279E+02  6.8184999E+02  9.3014253E+01  0.0000000E+00  1.0000000E+00
 23  2  3  3   0   0 -3.3215309E+02  2.6129176E+02 -3.3755595E+01  4.3318341E+02  8.8934633E+01  0.0000000E+00  1.0000000E+00
-11  1  4  4   0   0  9.7939593E+01 -8.7412839E+01  2.3482157E+02  2.6902479E+02  1.0092740E-05  0.0000000E+00  1.0000000E+00
 11  1  4  4   0   0  2.3421350E+02 -1.7387892E+02  2.9212122E+02  4.1282520E+02  5.3947966E-06  0.0000000E+00  1.0000000E+00
-13  1  5  5   0   0 -2.7994998E+02  1.7269878E+02 -2.1663840E+01  3.2964554E+02  5.5863259E-06  0.0000000E+00  1.0000000E+00
 13  1  5  5   0   0 -5.2203114E+01  8.8592977E+01 -1.2091755E+01  1.0353787E+02  1.2397766E-05  0.0000000E+00  1.0000000E+00
</event>
<event>
9 100 1.0000000E+00 1.0000000E+03 7.8125000E-03 0.0000000E+00
 21 -1  0  0 501 502  0.0000000E+00  0.0000000E+00  9.6241363E+02  9.6241363E+02  0.0000000E+00  0.0000000E+00  1.0000000E+00
 21 -1  0  0 502 501  0.0000000E+00  0.0000000E+00 -2.5431978E+02  2.5431978E+02  0.0000000E+00  0.0000000E+00  1.0000000E+00
 39  2  1  2   0   0  9.5923269E-14 -4.1211479E-13  7.0809384E+02  1.2167334E+03  9.8946617E+02  0.0000000E+00  1.0000000E+00
 23  2  3  3   0   0  2.3050943E+01 -1.0988040E+02  9.3588502E+02  9.4723831E+02  9.3672848E+01  0.0000000E+00  1.0000000E+00
 23  2  3  3   0   0 -2.3050943E+01  1.0988040E+02 -2.2779117E+02  2.6949510E+02  9.0187266E+01  0.0000000E+00  1.0000000E+00
-11  1  4  4   0   0  6.4105138E+00 -1.1106837E+02  5.5786092E+02  5.6884627E+02  1.8688124E-05  0.0000000E+00  1.0000000E+00
 11  1  4  4   0   0  1.6640430E+01  1.1879669E+00  3.7802410E+02  3.7839204E+02  1.8688124E-05  0.0000000E+00  1.0000000E+00
-13  1  5  5   0   0  2.9810122E+01  3.4039607E+01 -1.1549582E+02  1.2404283E+02  7.6293945E-06  0.0000000E+00  1.0000000E+00
 13  1  5  5   0   0 -5.2861065E+01  7.5840796E+01 -1.1229535E+02  1.4545228E+02  8.5299224E-06  0.0000000E+00  1.0000000E+00
</event>
<event>
9 100 1.0000000E+00 1.0000000E+03 7.8125000E-03 0.0000000E+00
 21 -1  0  0 501 502  0.0000000E+00  0.0000000E+00  2.1487405E+02  2.1487405E+02  0.0000000E+00  0.0000000E+00  1.0000000E+00
 21 -1  0  0 502 501  0.0000000E+00  0.0000000E+00 -1.1677824E+03  1.1677824E+03  0.0000000E+00  0.0000000E+00  1.0000000E+00
 39  2  1  2   0   0 -2.2737368E-12 -2.5579538E-12 -9.5290839E+02  1.3826565E+03  1.0018506E+03  0.0000000E+00  1.0000000E+00
 23  2  3  3   0   0 -2.6221671E+02 -2.9724114E+02 -8.8155305E+02  9.7083209E+02  9.0935451E+01  0.0000000E+00  1.0000000E+00
 23  2  3  3   0   0  2.6221671E+02  2.9724114E+02 -7.1355341E+01  4.1182441E+02  8.6010821E+01  0.0000000E+00  1.0000000E+00
-11  1  4  4   0   0 -1.3152555E+02 -1.2212082E+02 -4.9865910E+02  5.2997487E+02  5.3947966E-06  0.0000000E+00  1.0000000E+00
 11  1  4  4   0   0 -1.3069116E+02 -1.7512032E+02 -3.8289395E+02  4.4085722E+02  7.6293945E-06  0.0000000E+00  1.0000000E+00
-13  1  5  5   0   0  1.7885972E+02  1.9584711E+02 -8.8149508E+01  2.7949459E+02  5.6520794E-06  0.0000000E+00  1.0000000E+00
 13  1  5  5   0   0  8.3356988E+01  1.0139403E+02  1.6794167E+01  1.3232982E+02  1.0956884E-05  0.0000000E+00  1.0000000E+00
</event>
<event>
9 100 1.0000000E+00 1.0000000E+03 7.8125000E-03 0.0000000E+00
 21 -1  0  0 501 502  0.0000000E+00  0.0000000E+00  2.8107415E+02  2.8107415E+02  0.0000000E+00  0.0000000E+00  1.0000000E+00
 21 -1  0  0 502 501  0.0000000E+00  0.0000000E+00 -9.3939751E+02  9.3939751E+02  0.0000000E+00  0.0000000E+00  1.0000000E+00
 39  2  1  2   0   0  8.5265128E-14  6.2527761E-13 -6.5832336E+02  1.2204717E+03  1.0276971E+03  0.0000000E+00  1.0000000E+00
 23  2  3  3   0   0  4.4963778E+01  3.7727343E+02 -7.2632913E+02  8.2481954E+02  9.1740329E+01  0.0000000E+00  1.0000000E+00
 23  2  3  3   0   0 -4.4963778E+01 -3.7727343E+02  6.8005768E+01  3.9565212E+02  8.6941528E+01  0.0000000E+00  1.0000000E+00
-11  1  4  4   0   0 -2.3462623E+01  1.8477206E+02 -3.3013061E+02  3.7904806E+02  5.3947966E-06  0.0000000E+00  1.0000000E+00
 11  1  4  4   0   0  6.8426401E+01  1.9250137E+02 -3.9619852E+02  4.4577148E+02  0.0000000E+00  0.0000000E+00  1.0000000E+00
-13  1  5  5   0   0 -3.1938063E+01 -2.5417573E+02  8.6732554E+01  2.7045865E+02  3.5523568E-06  0.0000000E+00  1.0000000E+00
 13  1  5  5   0   0 -1.3025715E+01 -1.2309770E+02 -1.8726786E+01  1.2519347E+02  4.5736613E-06  0.0000000E+00  1.0000000E+00
</event>
<event>
9 100 1.0000000E+00 1.0000000E+03 7.8125000E-03 0.0000000E+00
 21 -1  0  0 501 502  0.0000000E+00  0.0000000E+00  1.9575596E+02  1.9575596E+02  0.0000000E+00  0.0000000E+00  1.0000000E+00
 21 -1  0  0 502 501  0.0000000E+00  0.0000000E+00 -1.2535342E+03  1.2535342E+03  0.0000000E+00  0.0000000E+00  1.0000000E+00
 39  2  1  2   0   0 -1.1795009E-12 -5.8264504E-13 -1.0577783E+03  1.4492902E+03  9.9073063E+02  0.0000000E+00  1.0000000E+00
 23  2  3  3   0   0 -1.1111537E+02 -5.4431124E+01  1.5827512E+02  2.2365842E+02  9.8299057E+01  0.0000000E+00  1.0000000E+00
 23  2  3  3   0   0  1.1111537E+02  5.4431124E+01 -1.2160534E+03  1.2256318E+03  8.9877737E+01  0.0000000E+00  1.0000000E+00
-11  1  4  4   0   0 -2.5099781E+01  2.8416889E+01  4.7407589E+01  6.0704185E+01  4.2649612E-06  0.0000000E+00  1.0000000E+00
 11  1  4  4   0   0 -8.6015590E+01 -8.2848013E+01  1.1086753E+02  1.6295424E+02  2.2365645E-06  0.0000000E+00  1.0000000E+00
-13  1  5  5   0   0  7.8172689E+01  7.1522000E+01 -1.0574148E+03  1.0627099E+03  4.2649612E-06  0.0000000E+00  1.0000000E+00
 13  1  5  5   0   0  3.2942681E+01 -1.7090876E+01 -1.5863862E+02  1.6292185E+02  2.6428998E-05  0.0000000E+00  1.0000000E+00
</event>
<event>
9 100 1.0000000E+00 1.0000000E+03 7.8125000E-03 0.0000000E+00
 21 -1  0  0 501 502  0.0000000E+00  0.0000000E+00  5.6083785E+01  5.6083785E+01  0.0000000E+00  0.0000000E+00  1.0000000E+00
 21 -1  0  0 502 501  0.0000000E+00  0.0000000E+00 -4.4822712E+03  4.4822712E+03  0.0000000E+00  0.0000000E+00  1.0000000E+00
 39  2  1  2   0   0 -1.7621460E-12 -1.1368684E-12 -4.4261875E+03  4.5383550E+03  1.0027617E+03  0.0000000E+00  1.0000000E+00
 23  2  3  3   0   0 -2.8182982E+02 -1.7913544E+02 -5.7315319E+02  6.6961275E+02  9.1428126E+01  0.0000000E+00  1.0000000E+00
 23  2  3  3   0   0  2.8182982E+02  1.7913544E+02 -3.8530343E+03  3.8687423E+03  9.8874672E+01  0.0000000E+00  1.0000000E+00
-11  1  4  4   0   0 -2.0953504E+02 -1.7594888E+02 -4.4254627E+02  5.2029813E+02  1.2063132E-05  0.0000000E+00  1.0000000E+00
 11  1  4  4   0   0 -7.2294772E+01 -3.1865662E+00 -1.3060692E+02  1.4931462E+02  3.6984862E-05  0.0000000E+00  1.0000000E+00
-13  1  5  5   0   0  2.8036652E+02  1.6743567E+02 -3.4218698E+03  3.4374167E+03  2.2888184E-05  0.0000000E+00  1.0000000E+00
 13  1  5  5   0   0  1.4632913E+00  1.1699770E+01 -4.3116443E+02  4.3132562E+02  1.3647876E-04  0.0000000E+00  1.0000000E+00
</event>
<event>
9 100 1.0000000E+00 1.0000000E+03 7.8125000E-03 0.0000000E+00
 21 -1  0  0 501 502  0.0000000E+00  0.0000000E+00  1.7315994E+03  1.7315994E+03  0.0000000E+00  0.0000000E+00  1.0000000E+00
 21 -1  0  0 502 501  0.0000000E+00  0.0000000E+00 -1.4584480E+02  1.4584480E+02  0.0000000E+00  0.0000000E+00  1.0000000E+00
 39  2  1  2   0   0 -5.5422333E-12 -5.8832939E-12  1.5857546E+03  1.8774442E+03  1.0050766E+03  0.0000000E+00  1.0000000E+00
 23  2  3  3   0   0 -1.4373231E+02 -1.5375995E+02  1.6279270E+03  1.6441456E+03  9.3634021E+01  0.0000000E+00  1.0000000E+00
 23  2  3  3   0   0  1.4373231E+02  1.5375995E+02 -4.2172421E+01  2.3329859E+02  9.1370763E+01  0.0000000E+00  1.0000000E+00
-11  1  4  4   0   0  1.3709280E+01 -8.9863032E+00  1.0473333E+02  1.0600834E+02  4.3158373E-05  0.0000000E+00  1.0000000E+00
 11  1  4  4   0   0 -1.5744159E+02 -1.4477365E+02  1.5231936E+03  1.5381372E+03  3.0157830E-06  0.0000000E+00  1.0000000E+00
-13  1  5  5   0   0  9.9665225E+01  1.4498440E+02 -6.7211853E+00  1.7606478E+02  6.1250842E-06  0.0000000E+00  1.0000000E+00
 13  1  5  5   0   0  4.4067087E+01  8.7755577E+00 -3.5451236E+01  5.7233807E+01  1.3947232E-05  0.0000000E+00  1.0000000E+00
</event>
<event>
9 100 1.0000000E+00 1.0000000E+03 7.8125000E-03 0.0000000E+00
 21 -1  0  0 501 502  0.0000000E+00  0.0000000E+00  2.1231595E+02  2.1231595E+02  0.0000000E+00  0.0000000E+00  1.0000000E+00
 21 -1  0  0 502 501  0.0000000E+00  0.0000000E+00 -1.1141029E+03  1.1141029E+03  0.0000000E+00  0.0000000E+00  1.0000000E+00
 39  2  1  2   0   0  8.8107299E-13  1.0658141E-13 -9.0178698E+02  1.3264189E+03  9.7271131E+02  0.0000000E+00  1.0000000E+00
 23  2  3  3   0   0  2.2881829E+02  2.6529832E+01 -1.0222664E+03  1.0519944E+03  9.2747506E+01  0.0000000E+00  1.0000000E+00
 23  2  3  3   0   0 -2.2881829E+02 -2.6529832E+01  1.2047940E+02  2.7442444E+02  8.7930917E+01  0.0000000E+00  1.0000000E+00
-11  1  4  4   0   0  2.0811435E+01  4.8801340E+00 -2.4356061E+01  3.2406007E+01  3.2368780E-05  0.0000000E+00  1.0000000E+00
 11  1  4  4   0   0  2.0800686E+02  2.1649698E+01 -9.9791032E+02  1.0195884E+03  3.1629799E-06  0.0000000E+00  1.0000000E+00
-13  1  5  5   0   0 -2.1314847E+02  2.7348582E+00  1.0038277E+02  2.3561929E+02  3.4959026E-06  0.0000000E+00  1.0000000E+00
 13  1  5  5   0   0 -1.5669825E+01 -2.9264690E+01  2.0096626E+01  3.8805153E+01  1.1834787E-05  0.0000000E+00  1.0000000E+00
</event>
<event>
9 100 1.0000000E+00 1.0000000E+03 7.8125000E-03 0.0000000E+00
 21 -1  0  0 501 502  0.0000000E+00  0.0000000E+00  2.5098408E+03  2.5098408E+03  0.0000000E+00  0.0000000E+00  1.0000000E+00
 21 -1  0  0 502 501  0.0000000E+00  0.0000000E+00 -9.7956981E+01  9.7956981E+01  0.0000000E+00  0.0000000E+00  1.0000000E+00
 39  2  1  2   0   0  9.8339115E-12 -1.0146550E-11  2.4118839E+03  2.6077978E+03  9.9167824E+02  0.0000000E+00  1.0000000E+00
 23  2  3  3   0   0 -1.3978618E+02  1.4462923E+02  3.8731048E+01  2.2449138E+02  9.1861264E+01  0.0000000E+00  1.0000000E+00
 23  2  3  3   0   0  1.3978618E+02 -1.4462923E+02  2.3731528E+03  2.3833065E+03  8.8529922E+01  0.0000000E+00  1.0000000E+00
-11  1  4  4   0   0 -1.1409720E+02  1.2561543E+02  6.6392226E+01  1.8222331E+02  7.2942059E-06  0.0000000E+00  1.0000000E+00
 11  1  4  4   0   0 -2.5688983E+01  1.9013803E+01 -2.7661178E+01  4.2268065E+01  1.8566058E-05  0.0000000E+00  1.0000000E+00
-13  1  5  5   0   0  1.4505933E+02 -1.1646448E+02  1.8388348E+03  1.8482207E+03  1.5258789E-05  0.0000000E+00  1.0000000E+00
 13  1  5  5   0   0 -5.2731471E+00 -2.8164751E+01  5.3431800E+02  5.3508577E+02  5.2857996E-05  0.0000000E+00  1.0000000E+00
</event>
<event>
9 100 1.0000000E+00 1.0000000E+03 7.8125000E-03 0.0000000E+00
 21 -1  0  0 501 502  0.0000000E+00  0.0000000E+00  4.2387246E+02  4.2387246E+02  0.0000000E+00  0.0000000E+00  1.0000000E+00
 21 -1  0  0 502 501  0.0000000E+00  0.0000000E+00 -5.9351935E+02  5.9351935E+02  0.0000000E+00  0.0000000E+00  1.0000000E+00
 39  2  1  2   0   0 -1.2505552E-12  3.6948222E-13 -1.6964689E+02  1.0173918E+03  1.0031481E+03  0.0000000E+00  1.0000000E+00
 23  2  3  3   0   0 -2.9492337E+02  9.2844247E+01  3.0487256E+02  4.4389941E+02  9.2193043E+01  0.0000000E+00  1.0000000E+00
 23  2  3  3   0   0  2.9492337E+02 -9.2844247E+01 -4.7451945E+02  5.7349240E+02  9.0138617E+01  0.0000000E+00  1.0000000E+00
-11  1  4  4   0   0 -1.5360126E+01 -1.6229885E+01  2.5379253E+01  3.3814925E+01  2.2568053E-05  0.0000000E+00  1.0000000E+00
 11  1  4  4   0   0 -2.7956325E+02  1.0907413E+02  2.7949331E+02  4.1008449E+02  3.4052984E-06  0.0000000E+00  1.0000000E+00
-13  1  5  5   0   0  5.9137623E+01 -5.7911022E+01 -1.4207276E+02  1.6442510E+02  1.4774259E-05  0.0000000E+00  1.0000000E+00
 13  1  5  5   0   0  2.3578575E+02 -3.4933225E+01 -3.3244670E+02  4.0906730E+02  7.8641999E-06  0.0000000E+00  1.0000000E+00
</event>
<event>
9 100 1.0000000E+00 1.0000000E+03 7.8125000E-03 0.0000000E+00
 21 -1  0  0 501 502  0.0000000E+00  0.0000000E+00  4.6057070E+02  4.6057070E+02  0.0000000E+00  0.0000000E+00  1.0000000E+00
 21 -1  0  0 502 501  0.0000000E+00  0.0000000E+00 -5.4522739E+02  5.4522739E+02  0.0000000E+00  0.0000000E+00  1.0000000E+00
 39  2  1  2   0   0  5.1159077E-13 -4.2632564E-13 -8.4656689E+01  1.0057981E+03  1.0022290E+03  0.0000000E+00  1.0000000E+00
 23  2  3  3   0   0  2.1510246E+02 -1.9016237E+02 -4.4251437E+02  5.3537167E+02  9.1504429E+01  0.0000000E+00  1.0000000E+00
 23  2  3  3   0   0 -2.1510246E+02  1.9016237E+02  3.5785768E+02  4.7042643E+02  1.0396206E+02  0.0000000E+00  1.0000000E+00
-11  1  4  4   0   0  1.9458282E+02 -1.3411864E+02 -3.0806405E+02  3.8827019E+02  4.6720309E-06  0.0000000E+00  1.0000000E+00
 11  1  4  4   0   0  2.0519635E+01 -5.6043735E+01 -1.3445032E+02  1.4710148E+02  8.5299224E-06  0.0000000E+00  1.0000000E+00
-13  1  5  5   0   0 -1.6684519E+02  1.7645259E+02  3.3862098E+02  4.1669774E+02  2.3602235E-06  0.0000000E+00  1.0000000E+00
 13  1  5  5   0   0 -4.8257264E+01  1.3709778E+01  1.9236703E+01  5.3728691E+01  6.6072495E-06  0.0000000E+00  1.0000000E+00
</event>
<event>
9 100 1.0000000E+00 1.0000000E+03 7.8125000E-03 0.0000000E+00
 21 -1  0  0 501 502  0.0000000E+00  0.0000000E+00  3.1382915E+02  3.1382915E+02  0.0000000E+00  0.0000000E+00  1.0000000E+00
 21 -1  0  0 502 501  0.0000000E+00  0.0000000E+00 -8.0073041E+02  8.0073041E+02  0.0000000E+00  0.0000000E+00  1.0000000E+00
 39  2  1  2   0   0  1.6697754E-13  9.2370556E-13 -4.8690126E+02  1.1145596E+03  1.0025817E+03  0.0000000E+00  1.0000000E+00
 23  2  3  3   0   0  1.8549098E+01  1.0351355E+02  2.9177113E+02  3.2358977E+02  9.2308317E+01  0.0000000E+00  1.0000000E+00
 23  2  3  3   0   0 -1.8549098E+01 -1.0351355E+02 -7.7867239E+02  7.9096978E+02  9.0793061E+01  0.0000000E+00  1.0000000E+00
-11  1  4  4   0   0 -1.5976250E+01  2.8385739E+01  1.8852149E+02  1.9131477E+02  4.8628039E-06  0.0000000E+00  1.0000000E+00
 11  1  4  4   0   0  3.4525348E+01  7.5127809E+01  1.0324964E+02  1.3227500E+02  5.3947966E-06  0.0000000E+00  1.0000000E+00
-13  1  5  5   0   0 -1.3798355E+01 -1.0552685E+02 -7.7856886E+02  7.8580900E+02  8.4094664E-07  0.0000000E+00  1.0000000E+00
 13  1  5  5   0   0 -4.7507429E+00  2.0133046E+00 -1.0352881E-01  5.1607821E+00  1.8688124E-05  0.0000000E+00  1.0000000E+00
</event>
<event>
9 100 1.0000000E+00 1.0000000E+03 7.8125000E-03 0.0000000E+00
 21 -1  0  0 501 502  0.0000000E+00  0.0000000E+00  2.8593491E+02  2.8593491E+02  0.0000000E+00  0.0000000E+00  1.0000000E+00
 21 -1  0  0 502 501  0.0000000E+00  0.0000000E+00 -8.6946347E+02  8.6946347E+02  0.0000000E+00  0.0000000E+00  1.0000000E+00
 39  2  1  2   0   0 -5.2580162E-13 -6.5369932E-13 -5.8352856E+02  1.1553984E+03  9.9721604E+02  0.0000000E+00  1.0000000E+00
 23  2  3  3   0   0  1.2746622E+02  1.7210710E+02  2.2112343E+02  3.2152524E+02  9.2813858E+01  0.0000000E+00  1.0000000E+00
 23  2  3  3   0   0 -1.2746622E+02 -1.7210710E+02 -8.0465199E+02  8.3387314E+02  4.4845116E+01  0.0000000E+00  1.0000000E+00
-11  1  4  4   0   0  1.3877605E+02  1.6351566E+02  1.8692410E+02  2.8449391E+02  8.2590618E-07  0.0000000E+00  1.0000000E+00
 11  1  4  4   0   0 -1.1309828E+01  8.5914409E+00  3.4199329E+01  3.7031326E+01  3.8146973E-06  0.0000000E+00  1.0000000E+00
-13  1  5  5   0   0 -3.3728157E+01 -3.9744769E+01 -2.7676262E+02  2.8162881E+02  1.0789593E-05  0.0000000E+00  1.0000000E+00
 13  1  5  5   0   0 -9.3738067E+01 -1.3236233E+02 -5.2788937E+02  5.5224433E+02  6.6072495E-06  0.0000000E+00  1.0000000E+00
</event>
<event>
9 100 1.0000000E+00 1.0000000E+03 7.8125000E-03 0.0000000E+00
 21 -1  0  0 501 502  0.0000000E+00  0.0000000E+00  3.6130846E+02  3.6130846E+02  0.0000000E+00  0.0000000E+00  1.0000000E+00
 21 -1  0  0 502 501  0.0000000E+00  0.0000000E+00 -7.0198669E+02  7.0198669E+02  0.0000000E+00  0.0000000E+00  1.0000000E+00
 39  2  1  2   0   0 -9.9475983E-14  5.1159077E-13 -3.4067823E+02  1.0632952E+03  1.0072412E+03  0.0000000E+00  1.0000000E+00
 23  2  3  3   0   0 -1.0156322E+02  4.7909184E+02 -8.8192747E+01  5.0533055E+02  8.7959788E+01  0.0000000E+00  1.0000000E+00
 23  2  3  3   0   0  1.0156322E+02 -4.7909184E+02 -2.5248548E+02  5.5796461E+02  8.7929007E+01  0.0000000E+00  1.0000000E+00
-11  1  4  4   0   0 -8.0767338E+01  3.8669852E+02 -3.4704079E+01  3.9656460E+02  6.7434958E-07  0.0000000E+00  1.0000000E+00
 11  1  4  4   0   0 -2.0795878E+01  9.2393322E+01 -5.3488668E+01  1.0876595E+02  7.0404163E-06  0.0000000E+00  1.0000000E+00
-13  1  5  5   0   0  7.7425071E+00 -1.9298334E+02 -6.7568395E+01  2.0461673E+02  1.2063132E-05  0.0000000E+00  1.0000000E+00
 13  1  5  5   0   0  9.3820709E+01 -2.8610850E+02 -1.8491709E+02  3.5334788E+02  9.5367432E-07  0.0000000E+00  1.0000000E+00
</event>
<event>
9 100 1.0000000E+00 1.0000000E+03 7.8125000E-03 0.0000000E+00
 21 -1  0  0 501 502  0.0000000E+00  0.0000000E+00  1.9007332E+03  1.9007332E+03  0.0000000E+00  0.0000000E+00  1.0000000E+00
 21 -1  0  0 502 501  0.0000000E+00  0.0000000E+00 -1.3601394E+02  1.3601394E+02  0.0000000E+00  0.0000000E+00  1.0000000E+00
 39  2  1  2   0   0  2.4868996E-13 -4.4053650E-13  1.7647193E+03  2.0367472E+03  1.0169095E+03  0.0000000E+00  1.0000000E+00
 23  2  3  3   0   0 -4.8979427E+01  9.2084890E+01 -1.0031447E+02  1.6653866E+02  8.2422805E+01  0.0000000E+00  1.0000000E+00
 23  2  3  3   0   0  4.8979427E+01 -9.2084890E+01  1.8650338E+03  1.8702085E+03  9.1925683E+01  0.0000000E+00  1.0000000E+00
-11  1  4  4   0   0 -3.2406464E+01  2.6497394E+01 -8.8452304E+01  9.7857554E+01  9.6213049E-06  0.0000000E+00  1.0000000E+00
 11  1  4  4   0   0 -1.6572963E+01  6.5587496E+01 -1.1862171E+01  6.8681102E+01  1.2579828E-05  0.0000000E+00  1.0000000E+00
-13  1  5  5   0   0  7.0493777E+01 -4.0228460E+01  9.5396424E+02  9.5741082E+02  1.8688124E-05  0.0000000E+00  1.0000000E+00
 13  1  5  5   0   0 -2.1514350E+01 -5.1856430E+01  9.1106952E+02  9.1279769E+02  3.0517578E-05  0.0000000E+00  1.0000000E+00
</event>
<event>
9 100 1.0000000E+00 1.0000000E+03 7.8125000E-03 0.0000000E+00
 21 -1  0  0 501 502  0.0000000E+00  0.0000000E+00  6.4135733E+02  6.4135733E+02  0.0000000E+00  0.0000000E+00  1.0000000E+00
 21 -1  0  0 502 501  0.0000000E+00  0.0000000E+00 -3.8662942E+02  3.8662942E+02  0.0000000E+00  0.0000000E+00  1.0000000E+00
 39  2  1  2   0   0 -1.5347723E-12 -6.9633188E-13  2.5472791E+02  1.0279868E+03  9.9592693E+02  0.0000000E+00  1.0000000E+00
 23  2  3  3   0   0  2.0916105E+02  9.8130661E+01 -3.1810911E+02  4.0306273E+02  8.8815433E+01  0.0000000E+00  1.0000000E+00
 23  2  3  3   0   0 -2.0916105E+02 -9.8130661E+01  5.7283702E+02  6.2492403E+02  9.4920016E+01  0.0000000E+00  1.0000000E+00
-11  1  4  4   0   0  1.2565487E+02  1.0036637E+01 -1.6723910E+02  2.0942491E+02  1.9073486E-06  0.0000000E+00  1.0000000E+00
 11  1  4  4   0   0  8.3506185E+01  8.8094024E+01 -1.5087002E+02  1.9363781E+02  3.3036247E-06  0.0000000E+00  1.0000000E+00
-13  1  5  5   0   0 -2.1281388E+02 -9.8184137E+01  5.7482239E+02  6.2076618E+02  1.7888842E-06  0.0000000E+00  1.0000000E+00
 13  1  5  5   0   0  3.6528310E+00  5.3476016E-02 -1.9853613E+00  4.1578472E+00  2.1579186E-05  0.0000000E+00  1.0000000E+00
</event>
<event>
9 100 1.0000000E+00 1.0000000E+03 7.8125000E-03 0.0000000E+00
 21 -1  0  0 501 502  0.0000000E+00  0.0000000E+00  2.1324403E+02  2.1324403E+02  0.0000000E+00  0.0000000E+00  1.0000000E+00
 21 -1  0  0 502 501  0.0000000E+00  0.0000000E+00 -1.2914636E+03  1.2914636E+03  0.0000000E+00  0.0000000E+00  1.0000000E+00
 39  2  1  2   0   0  9.0949470E-13 -1.1937118E-12 -1.0782195E+03  1.5047076E+03  1.0495654E+03  0.0000000E+00  1.0000000E+00
 23  2  3  3   0   0  2.1289488E+02 -2.7641355E+02  7.0915581E+00  3.6064848E+02  9.1040402E+01  0.0000000E+00  1.0000000E+00
 23  2  3  3   0   0 -2.1289488E+02  2.7641355E+02 -1.0853111E+03  1.1440591E+03  9.6137543E+01  0.0000000E+00  1.0000000E+00
-11  1  4  4   0   0  4.2820520E+01 -1.1391158E+01  1.1269924E+01  4.5720528E+01  7.8842775E-06  0.0000000E+00  1.0000000E+00
 11  1  4  4   0   0  1.7007436E+02 -2.6502239E+02 -4.1783657E+00  3.1492795E+02  1.8544613E-06  0.0000000E+00  1.0000000E+00
-13  1  5  5   0   0 -4.9196168E+01  1.0368249E+02 -2.4233062E+02  2.6813140E+02  2.1579186E-05  0.0000000E+00  1.0000000E+00
 13  1  5  5   0   0 -1.6369871E+02  1.7273106E+02 -8.4298047E+02  8.7592771E+02  4.6720309E-06  0.0000000E+00  1.0000000E+00
</event>
<event>
9 100 1.0000000E+00 1.0000000E+03 7.8125000E-03 0.0000000E+00
 21 -1  0  0 501 502  0.0000000E+00  0.0000000E+00  4.6612245E+02  4.6612245E+02  0.0000000E+00  0.0000000E+00  1.0000000E+00
 21 -1  0  0 502 501  0.0000000E+00  0.0000000E+00 -5.4349748E+02  5.4349748E+02  0.0000000E+00  0.0000000E+00  1.0000000E+00
 39  2  1  2   0   0  6.2527761E-13 -1.5631940E-13 -7.7375030E+01  1.0096199E+03  1.0066506E+03  0.0000000E+00  1.0000000E+00
 23  2  3  3   0   0 -1.7807573E+02  4.3379027E+01  4.2251346E+02  4.6946498E+02  9.1033150E+01  0.0000000E+00  1.0000000E+00
 23  2  3  3   0   0  1.7807573E+02 -4.3379027E+01 -4.9988849E+02  5.4015495E+02  9.1028338E+01  0.0000000E+00  1.0000000E+00
-11  1  4  4   0   0 -1.8778019E+02  4.7814372E+01  4.0475852E+02  4.4875057E+02  1.4502436E-06  0.0000000E+00  1.0000000E+00
 11  1  4  4   0   0  9.7044581E+00 -4.4353454E+00  1.7754945E+01  2.0714412E+01  5.3947966E-06  0.0000000E+00  1.0000000E+00
-13  1  5  5   0   0  1.7206754E+02 -4.2791751E+01 -3.7169917E+02  4.1182356E+02  5.3947966E-06  0.0000000E+00  1.0000000E+00
 13  1  5  5   0   0  6.0081965E+00 -5.8727614E-01 -1.2818933E+02  1.2833139E+02  5.3947966E-06  0.0000000E+00  1.0000000E+00
</event>
<event>
9 100 1.0000000E+00 1.0000000E+03 7.8125000E-03 0.0000000E+00
 21 -1  0  0 501 502  0.0000000E+00  0.0000000E+00  2.7760738E+02  2.7760738E+02  0.0000000E+00  0.0000000E+00  1.0000000E+00
 21 -1  0  0 502 501  0.0000000E+00  0.0000000E+00 -9.0857473E+02  9.0857473E+02  0.0000000E+00  0.0000000E+00  1.0000000E+00
 39  2  1  2   0   0 -1.5916157E-12 -9.0949470E-13 -6.3096735E+02  1.1861821E+03  1.0044442E+03  0.0000000E+00  1.0000000E+00
 23  2  3  3   0   0 -3.0828543E+02 -1.7338144E+02 -7.2145675E+02  8.1004881E+02  1.0285039E+02  0.0000000E+00  1.0000000E+00
 23  2  3  3   0   0  3.0828543E+02  1.7338144E+02  9.0489402E+01  3.7613330E+02  9.0481489E+01  0.0000000E+00  1.0000000E+00
-11  1  4  4   0   0 -2.1860872E+01 -7.5827656E-01 -1.1903349E+02  1.2102663E+02  1.7059845E-05  0.0000000E+00  1.0000000E+00
 11  1  4  4   0   0 -2.8642456E+02 -1.7262317E+02 -6.0242326E+02  6.8902218E+02  3.8146973E-06  0.0000000E+00  1.0000000E+00
-13  1  5  5   0   0  2.1391008E+01  2.9009311E+01  3.4927878E+01  5.0190358E+01  1.9251470E-05  0.0000000E+00  1.0000000E+00
 13  1  5  5   0   0  2.8689442E+02  1.4437213E+02  5.5561524E+01  3.2594294E+02  4.6720309E-06  0.0000000E+00  1.0000000E+00
</event>
<event>
9 100 1.0000000E+00 1.0000000E+03 7.8125000E-03 0.0000000E+00
 21 -1  0  0 501 502  0.0000000E+00  0.0000000E+00  8.7896260E+02  8.7896260E+02  0.0000000E+00  0.0000000E+00  1.0000000E+00
 21 -1  0  0 502 501  0.0000000E+00  0.0000000E+00 -2.8369568E+02  2.8369568E+02  0.0000000E+00  0.0000000E+00  1.0000000E+00
 39  2  1  2   0   0 -1.5916157E-12 -4.9737992E-14  5.9526692E+02  1.1626583E+03  9.9871496E+02  0.0000000E+00  1.0000000E+00
 23  2  3  3   0   0  3.7507497E+02  1.0947179E+01 -7.1017114E+01  3.9249711E+02  9.0606187E+01  0.0000000E+00  1.0000000E+00
 23  2  3  3   0   0 -3.7507497E+02 -1.0947179E+01  6.6628403E+02  7.7016117E+02  9.1720981E+01  0.0000000E+00  1.0000000E+00
-11  1  4  4   0   0  1.0092232E+02 -2.0074046E+01 -5.3658041E+01  1.1604942E+02  1.1233539E-05  0.0000000E+00  1.0000000E+00
 11  1  4  4   0   0  2.7415265E+02  3.1021225E+01 -1.7359073E+01  2.7644770E+02  6.7771294E-06  0.0000000E+00  1.0000000E+00
-13  1  5  5   0   0 -1.8694548E+02  3.5013817E+01  2.8710530E+02  3.4438936E+02  1.2063132E-05  0.0000000E+00  1.0000000E+00
 13  1  5  5   0   0 -1.8812949E+02 -4.5960996E+01  3.7917874E+02  4.2577181E+02  7.6293945E-06  0.0000000E+00  1.0000000E+00
</event>
<event>
9 100 1.0000000E+00 1.0000000E+03 7.8125000E-03 0.0000000E+00
 21 -1  0  0 501 502  0.0000000E+00  0.0000000E+00  5.7671903E+02  5.7671903E+02  0.0000000E+00  0.0000000E+00  1.0000000E+00
 21 -1  0  0 502 501  0.0000000E+00  0.0000000E+00 -4.3021022E+02  4.3021022E+02  0.0000000E+00  0.0000000E+00  1.0000000E+00
 39  2  1  2   0   0 -5.6843419E-14 -8.5265128E-14  1.4650880E+02  1.0069293E+03  9.9621368E+02  0.0000000E+00  1.0000000E+00
 23  2  3  3   0   0  1.3581684E+02  1.8310252E+02 -3.6504241E+02  4.3938536E+02  8.8491732E+01  0.0000000E+00  1.0000000E+00
 23  2  3  3   0   0 -1.3581684E+02 -1.8310252E+02  5.1155121E+02  5.6754389E+02  9.1916703E+01  0.0000000E+00  1.0000000E+00
-11  1  4  4   0   0 -4.8262441E+00  3.9828948E+01 -9.2961349E+01  1.0124945E+02  5.3947966E-06  0.0000000E+00  1.0000000E+00
 11  1  4  4   0   0  1.4064308E+02  1.4327357E+02 -2.7208106E+02  3.3813591E+02  1.3486992E-06  0.0000000E+00  1.0000000E+00
-13  1  5  5   0   0 -4.9397629E+01 -1.4187705E+01  1.6008954E+02  1.6813708E+02  1.4774259E-05  0.0000000E+00  1.0000000E+00
 13  1  5  5   0   0 -8.6419206E+01 -1.6891482E+02  3.5146167E+02  3.9940681E+02  5.7220459E-06  0.0000000E+00  1.0000000E+00
</event>
<event>
9 100 1.0000000E+00 1.0000000E+03 7.8125000E-03 0.0000000E+00
 21 -1  0  0 501 502  0.0000000E+00  0.0000000E+00  4.5234411E+02  4.5234411E+02  0.0000000E+00  0.0000000E+00  1.0000000E+00
 21 -1  0  0 502 501  0.0000000E+00  0.0000000E+00 -5.2441439E+02  5.2441439E+02  0.0000000E+00  0.0000000E+00  1.0000000E+00
 39  2  1  2   0   0 -4.2632564E-14 -7.1054274E-15 -7.2070279E+01  9.7675850E+02  9.7409602E+02  0.0000000E+00  1.0000000E+00
 23  2  3  3   0   0 -7.0905656E+01 -6.3044303E+01  4.3432486E+02  4.5342347E+02  8.9177166E+01  0.0000000E+00  1.0000000E+00
 23  2  3  3   0   0  7.0905656E+01  6.3044303E+01 -5.0639514E+02  5.2333503E+02  9.1876703E+01  0.0000000E+00  1.0000000E+00
-11  1  4  4   0   0 -8.9571343E+01 -3.5945090E+01  3.0084307E+02  3.1594561E+02  4.2649612E-06  0.0000000E+00  1.0000000E+00
 11  1  4  4   0   0  1.8665687E+01 -2.7099213E+01  1.3348179E+02  1.3747786E+02  0.0000000E+00  0.0000000E+00  1.0000000E+00
-13  1  5  5   0   0  2.6381289E+00 -1.7816539E+01 -1.6329892E+02  1.6428916E+02  7.6293945E-06  0.0000000E+00  1.0000000E+00
 13  1  5  5   0   0  6.8267527E+01  8.0860842E+01 -3.4309621E+02  3.5904588E+02  4.2649612E-06  0.0000000E+00  1.0000000E+00
</event>
<event>
9 100 1.0000000E+00 1.0000000E+03 7.8125000E-03 0.0000000E+00
 21 -1  0  0 501 502  0.0000000E+00  0.0000000E+00  2.7188347E+02  2.7188347E+02  0.0000000E+00  0.0000000E+00  1.0000000E+00
 21 -1  0  0 502 501  0.0000000E+00  0.0000000E+00 -9.3003745E+02  9.3003745E+02  0.0000000E+00  0.0000000E+00  1.0000000E+00
 39  2  1  2   0   0  2.1316282E-13  3.0198066E-14 -6.5815398E+02  1.2019209E+03  1.0057073E+03  0.0000000E+00  1.0000000E+00
 23  2  3  3   0   0 -7.7827622E+01 -1.0894291E+01  2.5460556E+02  2.8128789E+02  9.0128016E+01  0.0000000E+00  1.0000000E+00
 23  2  3  3   0   0  7.7827622E+01  1.0894291E+01 -9.1275955E+02  9.2063303E+02  9.0881008E+01  0.0000000E+00  1.0000000E+00
-11  1  4  4   0   0 -8.6151996E+01 -3.4370705E+01  2.1901569E+02  2.3784740E+02  8.2590618E-07  0.0000000E+00  1.0000000E+00
 11  1  4  4   0   0  8.3243743E+00  2.3476414E+01  3.5589871E+01  4.3440489E+01  2.6973983E-06  0.0000000E+00  1.0000000E+00
-13  1  5  5   0   0 -1.8287503E+01  1.3153362E+01 -1.2329861E+02  1.2533950E+02  1.5258789E-05  0.0000000E+00  1.0000000E+00
 13  1  5  5   0   0  9.6115125E+01 -2.2590710E+00 -7.8946094E+02  7.9529353E+02  4.2649612E-06  0.0000000E+00  1.0000000E+00
</event>
<event>
9 100 1.0000000E+00 1.0000000E+03 7.8125000E-03 0.0000000E+00
 21 -1  0  0 501 502  0.0000000E+00  0.0000000E+00  1.5001358E+03  1.5001358E+03  0.0000000E+00  0.0000000E+00  1.0000000E+00
 21 -1  0  0 502 501  0.0000000E+00  0.0000000E+00 -1.6372087E+02  1.6372087E+02  0.0000000E+00  0.0000000E+00  1.0000000E+00
 39  2  1  2   0   0 -4.2632564E-12  7.6738615E-13  1.3364149E+03  1.6638566E+03  9.9116806E+02  0.0000000E+00  1.0000000E+00
 23  2  3  3   0   0  4.3253253E+02 -8.0352300E+01  3.2009769E+02  5.5258365E+02  9.6670992E+01  0.0000000E+00  1.0000000E+00
 23  2  3  3   0   0 -4.3253253E+02  8.0352300E+01  1.0163172E+03  1.1112730E+03  9.2120102E+01  0.0000000E+00  1.0000000E+00
-11  1  4  4   0   0  2.7483487E+02 -8.2755748E+01  2.4734595E+02  3.7889674E+02  8.4226235E-06  0.0000000E+00  1.0000000E+00
 11  1  4  4   0   0  1.5769766E+02  2.4034487E+00  7.2751740E+01  1.7368691E+02  1.5258789E-05  0.0000000E+00  1.0000000E+00
-13  1  5  5   0   0 -2.5805594E+02  1.7335482E+00  5.7612490E+02  6.3128106E+02  1.4273290E-05  0.0000000E+00  1.0000000E+00
 13  1  5  5   0   0 -1.7447658E+02  7.8618751E+01  4.4019229E+02  4.7999192E+02  2.0185481E-05  0.0000000E+00  1.0000000E+00
</event>
<event>
9 100 1.0000000E+00 1.0000000E+03 7.8125000E-03 0.0000000E+00
 21 -1  0  0 501 502  0.0000000E+00  0.0000000E+00  4.1903740E+02  4.1903740E+02  0.0000000E+00  0.0000000E+00  1.0000000E+00
 21 -1  0  0 502 501  0.0000000E+00  0.0000000E+00 -6.1382760E+02  6.1382760E+02  0.0000000E+00  0.0000000E+00  1.0000000E+00
 39  2  1  2   0   0 -1.1368684E-13  2.8421709E-13 -1.9479020E+02  1.0328650E+03  1.0143308E+03  0.0000000E+00  1.0000000E+00
 23  2  3  3   0   0  7.4574270E+01 -2.3417953E+02  3.4434558E+02  4.3323053E+02  9.3345827E+01  0.0000000E+00  1.0000000E+00
 23  2  3  3   0   0 -7.4574270E+01  2.3417953E+02 -5.3913578E+02  5.9963447E+02  9.2156030E+01  0.0000000E+00  1.0000000E+00
-11  1  4  4   0   0  4.5196704E+01 -3.7506405E+01  4.5609124E+01  7.4361715E+01  1.9821748E-05  0.0000000E+00  1.0000000E+00
 11  1  4  4   0   0  2.9377566E+01 -1.9667312E+02  2.9873645E+02  3.5886881E+02  6.2536607E-06  0.0000000E+00  1.0000000E+00
-13  1  5  5   0   0 -4.1341587E+01  1.9305623E+02 -4.8646879E+02  5.2500640E+02  3.8738434E-06  0.0000000E+00  1.0000000E+00
 13  1  5  5   0   0 -3.3232683E+01  4.1123301E+01 -5.2666987E+01  7.4628069E+01  1.7059845E-05  0.0000000E+00  1.0000000E+00
</event>
<event>
9 100 1.0000000E+00 1.0000000E+03 7.8125000E-03 0.0000000E+00
 21 -1  0  0 501 502  0.0000000E+00  0.0000000E+00  5.0787207E+02  5.0787207E+02  0.0000000E+00  0.0000000E+00  1.0000000E+00
 21 -1  0  0 502 501  0.0000000E+00  0.0000000E+00 -5.0153768E+02  5.0153768E+02  0.0000000E+00  0.0000000E+00  1.0000000E+00
 39  2  1  2   0   0 -9.0949470E-13 -5.6843419E-13  6.3343886E+00  1.0094098E+03  1.0093899E+03  0.0000000E+00  1.0000000E+00
 23  2  3  3   0   0 -3.8669484E+02 -2.4001678E+02  2.0131456E+02  5.0592287E+02  9.1046380E+01  0.0000000E+00  1.0000000E+00
 23  2  3  3   0   0  3.8669484E+02  2.4001678E+02 -1.9498017E+02  5.0348688E+02  9.1328068E+01  0.0000000E+00  1.0000000E+00
-11  1  4  4   0   0 -2.8841886E+02 -1.7946371E+02  1.0490498E+02  3.5552457E+02  6.3259598E-06  0.0000000E+00  1.0000000E+00
 11  1  4  4   0   0 -9.8275977E+01 -6.0553076E+01  9.6409580E+01  1.5039830E+02  9.7256079E-06  0.0000000E+00  1.0000000E+00
-13  1  5  5   0   0  1.3461406E+02  1.0025899E+02 -1.1793138E+02  2.0513562E+02  1.1121658E-05  0.0000000E+00  1.0000000E+00
 13  1  5  5   0   0  2.5208078E+02  1.3975780E+02 -7.7048789E+01  2.9835127E+02  7.7476868E-06  0.0000000E+00  1.0000000E+00
</event>
<event>
9 100 1.0000000E+00 1.0000000E+03 7.8125000E-03 0.0000000E+00
 21 -1  0  0 501 502  0.0000000E+00  0.0000000E+00  6.0297313E+02  6.0297313E+02  0.0000000E+00  0.0000000E+00  1.0000000E+00
 21 -1  0  0 502 501  0.0000000E+00  0.0000000E+00 -4.1353831E+02  4.1353831E+02  0.0000000E+00  0.0000000E+00  1.0000000E+00
 39  2  1  2   0   0  7.1054274E-14  2.5579538E-13  1.8943482E+02  1.0165114E+03  9.9870413E+02  0.0000000E+00  1.0000000E+00
 23  2  3  3   0   0  6.1047712E+01  1.8878840E+02  5.5179062E+02  5.9351700E+02  9.1769576E+01  0.0000000E+00  1.0000000E+00
 23  2  3  3   0   0 -6.1047712E+01 -1.8878840E+02 -3.6235581E+02  4.2299443E+02  9.0855251E+01  0.0000000E+00  1.0000000E+00
-11  1  4  4   0   0 -1.1657932E+01  3.9748857E+01  2.0467587E+02  2.0882550E+02  1.4273290E-05  0.0000000E+00  1.0000000E+00
 11  1  4  4   0   0  7.2705645E+01  1.4903955E+02  3.4711475E+02  3.8469150E+02  9.3440618E-06  0.0000000E+00  1.0000000E+00
-13  1  5  5   0   0  1.5961901E+01 -8.7502524E+01 -1.2126601E+02  1.5038923E+02  1.1757687E-05  0.0000000E+00  1.0000000E+00
 13  1  5  5   0   0 -7.7009613E+01 -1.0128588E+02 -2.4108979E+02  2.7260521E+02  6.6072495E-06  0.0000000E+00  1.0000000E+00
</event>
<event>
9 100 1.0000000E+00 1.0000000E+03 7.8125000E-03 0.0000000E+00
 21 -1  0  0 501 502  0.0000000E+00  0.0000000E+00  2.7366362E+02  2.7366362E+02  0.0000000E+00  0.0000000E+00  1.0000000E+00
 21 -1  0  0 502 501  0.0000000E+00  0.0000000E+00 -9.1065819E+02  9.1065819E+02  0.0000000E+00  0.0000000E+00  1.0000000E+00
 39  2  1  2   0   0  9.6633812E-13  1.3642421E-12 -6.3699456E+02  1.1843218E+03  9.9842680E+02  0.0000000E+00  1.0000000E+00
 23  2  3  3   0   0 -2.8481084E+02 -3.9953510E+02 -3.3119186E+02  5.9874476E+02  8.9787161E+01  0.0000000E+00  1.0000000E+00
 23  2  3  3   0   0  2.8481084E+02  3.9953510E+02 -3.0580271E+02  5.8557705E+02  9.2949821E+01  0.0000000E+00  1.0000000E+00
-11  1  4  4   0   0 -5.4234761E+01 -9.1043323E+01 -1.1775106E+02  1.5841593E+02  9.7256079E-06  0.0000000E+00  1.0000000E+00
 11  1  4  4   0   0 -2.3057608E+02 -3.0849178E+02 -2.1344080E+02  4.4032883E+02  6.8770433E-06  0.0000000E+00  1.0000000E+00
-13  1  5  5   0   0  2.2587335E+02  3.5840742E+02 -2.8560018E+02  5.1092281E+02  3.3293343E-06  0.0000000E+00  1.0000000E+00
 13  1  5  5   0   0  5.8937488E+01  4.1127680E+01 -2.0202529E+01  7.4654241E+01  1.3214499E-05  0.0000000E+00  1.0000000E+00
</event>
<event>
9 100 1.0000000E+00 1.0000000E+03 7.8125000E-03 0.0000000E+00
 21 -1  0  0 501 502  0.0000000E+00  0.0000000E+00  3.7877566E+02  3.7877566E+02  0.0000000E+00  0.0000000E+00  1.0000000E+00
 21 -1  0  0 502 501  0.0000000E+00  0.0000000E+00 -6.6260906E+02  6.6260906E+02  0.0000000E+00  0.0000000E+00  1.0000000E+00
 39  2  1  2   0   0  6.2527761E-13 -3.4106051E-13 -2.8383340E+02  1.0413847E+03  1.0019585E+03  0.0000000E+00  1.0000000E+00
 23  2  3  3   0   0  3.9203584E+02 -2.2428956E+02  6.3462100E+01  4.6461127E+02  8.8534134E+01  0.0000000E+00  1.0000000E+00
 23  2  3  3   0   0 -3.9203584E+02  2.2428956E+02 -3.4729550E+02  5.7677345E+02  8.9752709E+01  0.0000000E+00  1.0000000E+00
-11  1  4  4   0   0  2.7762929E+02 -1.6115457E+02  8.5243543E+01  3.3213745E+02  3.4632299E-06  0.0000000E+00  1.0000000E+00
 11  1  4  4   0   0  1.1440655E+02 -6.3134984E+01 -2.1781443E+01  1.3247383E+02  7.7476868E-06  0.0000000E+00  1.0000000E+00
-13  1  5  5   0   0 -3.3523181E+02  1.8444239E+02 -2.4919829E+02  4.5661707E+02  2.6973983E-06  0.0000000E+00  1.0000000E+00
 13  1  5  5   0   0 -5.6804034E+01  3.9847168E+01 -9.8097206E+01  1.2015639E+02  2.6973983E-06  0.0000000E+00  1.0000000E+00
</event>
<event>
9 100 1.0000000E+00 1.0000000E+03 7.8125000E-03 0.0000000E+00
 21 -1  0  0 501 502  0.0000000E+00  0.0000000E+00  1.3410342E+03  1.3410342E+03  0.0000000E+00  0.0000000E+00  1.0000000E+00
 21 -1  0  0 502 501  0.0000000E+00  0.0000000E+00 -1.8957220E+02  1.8957220E+02  0.0000000E+00  0.0000000E+00  1.0000000E+00
 39  2  1  2   0   0 -5.5138116E-12 -7.8443918E-12  1.1514620E+03  1.5306064E+03  1.0084102E+03  0.0000000E+00  1.0000000E+00
 23  2  3  3   0   0  2.7143364E+02  3.8085340E+02  3.2529506E+02  5.7694059E+02  9.1203236E+01  0.0000000E+00  1.0000000E+00
 23  2  3  3   0   0 -2.7143364E+02 -3.8085340E+02  8.2616692E+02  9.5366579E+02  9.0560134E+01  0.0000000E+00  1.0000000E+00
-11  1  4  4   0   0  2.7001771E+02  3.7292415E+02  2.9789834E+02  5.4838436E+02  3.3885647E-06  0.0000000E+00  1.0000000E+00
 11  1  4  4   0   0  1.4159390E+00  7.9292470E+00  2.7396722E+01  2.8556229E+01  2.8546580E-05  0.0000000E+00  1.0000000E+00
-13  1  5  5   0   0 -2.1420995E+02 -3.3170800E+02  6.3023148E+02  7.4371218E+02  7.1366451E-06  0.0000000E+00  1.0000000E+00
 13  1  5  5   0   0 -5.7223698E+01 -4.9145399E+01  1.9593544E+02  2.0995361E+02  2.7508173E-05  0.0000000E+00  1.0000000E+00
</event>
<event>
9 100 1.0000000E+00 1.0000000E+03 7.8125000E-03 0.0000000E+00
 21 -1  0  0 501 502  0.0000000E+00  0.0000000E+00  3.3168931E+03  3.3168931E+03  0.0000000E+00  0.0000000E+00  1.0000000E+00
 21 -1  0  0 502 501  0.0000000E+00  0.0000000E+00 -7.5522087E+01  7.5522087E+01  0.0000000E+00  0.0000000E+00  1.0000000E+00
 39  2  1  2   0   0  1.0459189E-11 -3.1548097E-12  3.2413710E+03  3.3924152E+03  1.0009969E+03  0.0000000E+00  1.0000000E+00
 23  2  3  3   0   0 -4.6760278E+02  1.3973967E+02  1.3784992E+03  1.4651143E+03  9.0112477E+01  0.0000000E+00  1.0000000E+00
 23  2  3  3   0   0  4.6760278E+02 -1.3973967E+02  1.8628718E+03  1.9273009E+03  7.7574934E+01  0.0000000E+00  1.0000000E+00
-11  1  4  4   0   0 -2.7392478E+02  7.3351861E+01  9.2607767E+02  9.6852214E+02  2.2888184E-05  0.0000000E+00  1.0000000E+00
 11  1  4  4   0   0 -1.9367801E+02  6.6387804E+01  4.5242152E+02  4.9659213E+02  3.5785032E-05  0.0000000E+00  1.0000000E+00
-13  1  5  5   0   0  2.8471654E+02 -9.0450349E+01  1.2811532E+03  1.3155220E+03  1.0789593E-05  0.0000000E+00  1.0000000E+00
 13  1  5  5   0   0  1.8288625E+02 -4.9289316E+01  5.8171864E+02  6.1177887E+02  3.0517578E-05  0.0000000E+00  1.0000000E+00
</event>
<event>
9 100 1.0000000E+00 1.0000000E+03 7.8125000E-03 0.0000000E+00
 21 -1  0  0 501 502  0.0000000E+00  0.0000000E+00  8.0314392E+02  8.0314392E+02  0.0000000E+00  0.0000000E+00  1.0000000E+00
 21 -1  0  0 502 501  0.0000000E+00  0.0000000E+00 -2.8270967E+02  2.8270967E+02  0.0000000E+00  0.0000000E+00  1.0000000E+00
 39  2  1  2   0   0 -1.1937118E-12 -1.7621460E-12  5.2043425E+02  1.0858536E+03  9.5300904E+02  0.0000000E+00  1.0000000E+00
 23  2  3  3   0   0 -1.3512344E+02 -1.9121893E+02  7.2058629E+02  7.6482453E+02  1.0435001E+02  0.0000000E+00  1.0000000E+00
 23  2  3  3   0   0  1.3512344E+02  1.9121893E+02 -2.0015205E+02  3.2102907E+02  9.0420095E+01  0.0000000E+00  1.0000000E+00
-11  1  4  4   0   0  1.0110096E+00 -2.4483498E+01  1.9137844E+01  3.1092135E+01  1.3214499E-05  0.0000000E+00  1.0000000E+00
 11  1  4  4   0   0 -1.3613445E+02 -1.6673544E+02  7.0144845E+02  7.3373239E+02  1.2388593E-06  0.0000000E+00  1.0000000E+00
-13  1  5  5   0   0  1.1877612E+02  1.4127141E+02 -1.0504428E+02  2.1236685E+02  1.0271387E-05  0.0000000E+00  1.0000000E+00
 13  1  5  5   0   0  1.6347325E+01  4.9947526E+01 -9.5107769E+01  1.0866222E+02  1.5958024E-05  0.0000000E+00  1.0000000E+00
</event>
<event>
9 100 1.0000000E+00 1.0000000E+03 7.8125000E-03 0.0000000E+00
 21 -1  0  0 501 502  0.0000000E+00  0.0000000E+00  1.4890146E+03  1.4890146E+03  0.0000000E+00  0.0000000E+00  1.0000000E+00
 21 -1  0  0 502 501  0.0000000E+00  0.0000000E+00 -1.7025259E+02  1.7025259E+02  0.0000000E+00  0.0000000E+00  1.0000000E+00
 39  2  1  2   0   0 -2.6716407E-12  1.0658141E-14  1.3187620E+03  1.6592672E+03  1.0069927E+03  0.0000000E+00  1.0000000E+00
 23  2  3  3   0   0 -3.8541806E+02  1.3121028E+00  1.1726897E+03  1.2376315E+03  8.9340594E+01  0.0000000E+00  1.0000000E+00
 23  2  3  3   0   0  3.8541806E+02 -1.3121028E+00  1.4607234E+02  4.2163574E+02  8.8829997E+01  0.0000000E+00  1.0000000E+00
-11  1  4  4   0   0 -1.3739881E+00 -1.1278894E+01  3.6158830E+01  3.7902008E+01  2.6428998E-05  0.0000000E+00  1.0000000E+00
 11  1  4  4   0   0 -3.8404407E+02  1.2590997E+01  1.1365309E+03  1.1997295E+03  9.5367432E-07  0.0000000E+00  1.0000000E+00
-13  1  5  5   0   0  2.3753523E+02  1.0832194E+01  4.4737920E+01  2.4195414E+02  3.3036247E-06  0.0000000E+00  1.0000000E+00
 13  1  5  5   0   0  1.4788282E+02 -1.2144297E+01  1.0133442E+02  1.7968160E+02  4.9783261E-06  0.0000000E+00  1.0000000E+00
</event>
<event>
9 100 1.0000000E+00 1.0000000E+03 7.8125000E-03 0.0000000E+00
 21 -1  0  0 501 502  0.0000000E+00  0.0000000E+00  3.6643277E+02  3.6643277E+02  0.0000000E+00  0.0000000E+00  1.0000000E+00
 21 -1  0  0 502 501  0.0000000E+00  0.0000000E+00 -6.9498007E+02  6.9498007E+02  0.0000000E+00  0.0000000E+00  1.0000000E+00
 39  2  1  2   0   0 -1.7053026E-13  1.1368684E-13 -3.2854729E+02  1.0614128E+03  1.0092838E+03  0.0000000E+00  1.0000000E+00
 23  2  3  3   0   0  1.8903040E+02 -1.3499569E+02 -6.2577376E+02  6.7352612E+02  8.9934986E+01  0.0000000E+00  1.0000000E+00
 23  2  3  3   0   0 -1.8903040E+02  1.3499569E+02  2.9722647E+02  3.8788672E+02  9.0311711E+01  0.0000000E+00  1.0000000E+00
-11  1  4  4   0   0  1.2301824E+02 -8.6927662E+01 -5.1050201E+02  5.3226141E+02  3.8146973E-06  0.0000000E+00  1.0000000E+00
 11  1  4  4   0   0  6.6012165E+01 -4.8068026E+01 -1.1527175E+02  1.4126470E+02  0.0000000E+00  0.0000000E+00  1.0000000E+00
-13  1  5  5   0   0 -1.5164645E+02  5.6887404E+01  2.0693025E+02  2.6277928E+02  3.8146973E-06  0.0000000E+00  1.0000000E+00
 13  1  5  5   0   0 -3.7383952E+01  7.8108284E+01  9.0296216E+01  1.2510744E+02  4.6720309E-06  0.0000000E+00  1.0000000E+00
</event>
<event>
9 100 1.0000000E+00 1.0000000E+03 7.8125000E-03 0.0000000E+00
 21 -1  0  0 501 502  0.0000000E+00  0.0000000E+00  1.5869712E+03  1.5869712E+03  0.0000000E+00  0.0000000E+00  1.0000000E+00
 21 -1  0  0 502 501  0.0000000E+00  0.0000000E+00 -1.5928382E+02  1.5928382E+02  0.0000000E+00  0.0000000E+00  1.0000000E+00
 39  2  1  2   0   0  4.9737992E-13  2.3305802E-12  1.4276873E+03  1.7462550E+03  1.0055423E+03  0.0000000E+00  1.0000000E+00
 23  2  3  3   0   0 -9.5370083E+01 -4.5987439E+02  4.5102221E+02  6.5763820E+02  9.2125188E+01  0.0000000E+00  1.0000000E+00
 23  2  3  3   0   0  9.5370083E+01  4.5987439E+02  9.7666513E+02  1.0886168E+03  1.0311078E+02  0.0000000E+00  1.0000000E+00
-11  1  4  4   0   0 -6.2001184E+01 -1.0367066E+02  1.1798860E+02  1.6885811E+02  2.2888184E-05  0.0000000E+00  1.0000000E+00
 11  1  4  4   0   0 -3.3368899E+01 -3.5620373E+02  3.3303362E+02  4.8878008E+02  7.0080464E-06  0.0000000E+00  1.0000000E+00
-13  1  5  5   0   0  1.0117806E+02  2.3581973E+02  5.3273081E+02  5.9131215E+02  1.0789593E-05  0.0000000E+00  1.0000000E+00
 13  1  5  5   0   0 -5.8079789E+00  2.2405466E+02  4.4393431E+02  4.9730463E+02  1.7059845E-05  0.0000000E+00  1.0000000E+00
</event>
<event>
9 100 1.0000000E+00 1.0000000E+03 7.8125000E-03 0.0000000E+00
 21 -1  0  0 501 502  0.0000000E+00  0.0000000E+00  1.2820593E+02  1.2820593E+02  0.0000000E+00  0.0000000E+00  1.0000000E+00
 21 -1  0  0 502 501  0.0000000E+00  0.0000000E+00 -1.9467393E+03  1.9467393E+03  0.0000000E+00  0.0000000E+00  1.0000000E+00
 39  2  1  2   0   0  1.4708235E-12  5.2295945E-12 -1.8185334E+03  2.0749452E+03  9.9916670E+02  0.0000000E+00  1.0000000E+00
 23  2  3  3   0   0 -4.2211061E+01 -1.5045148E+02  5.7606925E+01  1.9012901E+02  9.1722737E+01  0.0000000E+00  1.0000000E+00
 23  2  3  3   0   0  4.2211061E+01  1.5045148E+02 -1.8761403E+03  1.8848162E+03  9.0622176E+01  0.0000000E+00  1.0000000E+00
-11  1  4  4   0   0 -1.1952480E+01  1.1400901E+01  4.4988503E+00  1.7119637E+01  1.4666134E-05  0.0000000E+00  1.0000000E+00
 11  1  4  4   0   0 -3.0258581E+01 -1.6185238E+02  5.3108075E+01  1.7300937E+02  4.5311293E-06  0.0000000E+00  1.0000000E+00
-13  1  5  5   0   0  5.7096987E+00  3.2106903E+01 -9.3422749E+02  9.3479648E+02  3.4119690E-05  0.0000000E+00  1.0000000E+00
 13  1  5  5   0   0  3.6501362E+01  1.1834457E+02 -9.4191280E+02  9.5001974E+02  3.5785032E-05  0.0000000E+00  1.0000000E+00
</event>
<event>
9 100 1.0000000E+00 1.0000000E+03 7.8125000E-03 0.0000000E+00
 21 -1  0  0 501 502  0.0000000E+00  0.0000000E+00  5.3802315E+02  5.3802315E+02  0.0000000E+00  0.0000000E+00  1.0000000E+00
 21 -1  0  0 502 501  0.0000000E+00  0.0000000E+00 -3.0212084E+02  3.0212084E+02  0.0000000E+00  0.0000000E+00  1.0000000E+00
 39  2  1  2   0   0 -1.0231815E-12  4.5474735E-13  2.3590231E+02  8.4014399E+02  8.0634485E+02  0.0000000E+00  1.0000000E+00
 23  2  3  3   0   0  3.5196442E+02 -1.4009860E+02  1.5938602E+01  3.9080342E+02  9.4692689E+01  0.0000000E+00  1.0000000E+00
 23  2  3  3   0   0 -3.5196442E+02  1.4009860E+02  2.1996371E+02  4.4934056E+02  1.0008163E+02  0.0000000E+00  1.0000000E+00
-11  1  4  4   0   0  1.7638164E+02 -1.0517757E+02 -2.5816779E+01  2.0697660E+02  4.1569700E-06  0.0000000E+00  1.0000000E+00
 11  1  4  4   0   0  1.7558278E+02 -3.4921028E+01  4.1755381E+01  1.8382683E+02  7.7769787E-06  0.0000000E+00  1.0000000E+00
-13  1  5  5   0   0 -1.6952371E+02  2.1732047E+01  1.2649703E+02  2.1263130E+02  7.9790118E-06  0.0000000E+00  1.0000000E+00
 13  1  5  5   0   0 -1.8244071E+02  1.1836656E+02  9.3466685E+01  2.3670926E+02  9.4408941E-06  0.0000000E+00  1.0000000E+00
</event>
<event>
9 100 1.0000000E+00 1.0000000E+03 7.8125000E-03 0.0000000E+00
 21 -1  0  0 501 502  0.0000000E+00  0.0000000E+00  1.7984711E+03  1.7984711E+03  0.0000000E+00  0.0000000E+00  1.0000000E+00
 21 -1  0  0 502 501  0.0000000E+00  0.0000000E+00 -1.4068315E+02  1.4068315E+02  0.0000000E+00  0.0000000E+00  1.0000000E+00
 39  2  1  2   0   0 -8.5265128E-13  3.1263880E-13  1.6577879E+03  1.9391542E+03  1.0060111E+03  0.0000000E+00  1.0000000E+00
 23  2  3  3   0   0 -2.3628374E+02  7.8729365E+01  1.6523780E+03  1.6738370E+03  9.6690044E+01  0.0000000E+00  1.0000000E+00
 23  2  3  3   0   0  2.3628374E+02 -7.8729365E+01  5.4099603E+00  2.6531724E+02  9.1299782E+01  0.0000000E+00  1.0000000E+00
-11  1  4  4   0   0  7.9011173E+00  1.1305435E+01  9.2779954E+01  9.3799575E+01  2.1579186E-05  0.0000000E+00  1.0000000E+00
 11  1  4  4   0   0 -2.4418486E+02  6.7423930E+01  1.5595980E+03  1.5800374E+03  5.7220459E-06  0.0000000E+00  1.0000000E+00
-13  1  5  5   0   0  1.2157046E+01 -2.4457776E+01  2.0605031E+01  3.4213212E+01  1.1869558E-05  0.0000000E+00  1.0000000E+00
 13  1  5  5   0   0  2.2412670E+02 -5.4271589E+01 -1.5195071E+01  2.3110403E+02  2.7906179E-06  0.0000000E+00  1.0000000E+00
</event>
<event>
9 100 1.0000000E+00 1.0000000E+03 7.8125000E-03 0.0000000E+00
 21 -1  0  0 501 502  0.0000000E+00  0.0000000E+00  6.6637305E+02  6.6637305E+02  0.0000000E+00  0.0000000E+00  1.0000000E+00
 21 -1  0  0 502 501  0.0000000E+00  0.0000000E+00 -3.6772864E+02  3.6772864E+02  0.0000000E+00  0.0000000E+00  1.0000000E+00
 39  2  1  2   0   0  6.8212103E-13  1.5347723E-12  2.9864440E+02  1.0341017E+03  9.9003930E+02  0.0000000E+00  1.0000000E+00
 23  2  3  3   0   0  1.1262798E+02  2.4947034E+02 -2.7026718E+02  3.9555774E+02  9.2201226E+01  0.0000000E+00  1.0000000E+00
 23  2  3  3   0   0 -1.1262798E+02 -2.4947034E+02  5.6891159E+02  6.3854394E+02  9.5694637E+01  0.0000000E+00  1.0000000E+00
-11  1  4  4   0   0  6.7767339E+01  2.3026353E+02 -2.2456005E+02  3.2869579E+02  2.1324806E-06  0.0000000E+00  1.0000000E+00
 11  1  4  4   0   0  4.4860643E+01  1.9206805E+01 -4.5707132E+01  6.6861951E+01  9.7256079E-06  0.0000000E+00  1.0000000E+00
-13  1  5  5   0   0 -2.6568862E+01 -1.0594248E+01  1.1438902E+02  1.1791095E+02  0.0000000E+00  0.0000000E+00  1.0000000E+00
 13  1  5  5   0   0 -8.6059120E+01 -2.3887609E+02  4.5452256E+02  5.2063300E+02  3.5683226E-06  0.0000000E+00  1.0000000E+00
</event>
<event>
9 100 1.0000000E+00 1.0000000E+03 7.8125000E-03 0.0000000E+00
 21 -1  0  0 501 502  0.0000000E+00  0.0000000E+00  2.3039784E+02  2.3039784E+02  0.0000000E+00  0.0000000E+00  1.0000000E+00
 21 -1  0  0 502 501  0.0000000E+00  0.0000000E+00 -1.0817802E+03  1.0817802E+03  0.0000000E+00  0.0000000E+00  1.0000000E+00
 39  2  1  2   0   0  3.1832315E-12  2.1671553E-13 -8.5138236E+02  1.3121780E+03  9.9847849E+02  0.0000000E+00  1.0000000E+00
 23  2  3  3   0   0  3.8089947E+02  2.5712272E+01 -8.3000308E+02  9.1813684E+02  9.1239355E+01  0.0000000E+00  1.0000000E+00
 23  2  3  3   0   0 -3.8089947E+02 -2.5712272E+01 -2.1379282E+01  3.9404120E+02  9.5214854E+01  0.0000000E+00  1.0000000E+00
-11  1  4  4   0   0  8.7172379E-01  1.2201748E+01 -2.4415551E+01  2.7308638E+01  1.0789593E-05  0.0000000E+00  1.0000000E+00
 11  1  4  4   0   0  3.8002775E+02  1.3510524E+01 -8.0558753E+02  8.9082820E+02  1.7192608E-06  0.0000000E+00  1.0000000E+00
-13  1  5  5   0   0 -5.0297491E+01 -2.0415213E+01  2.5704701E+01  6.0061220E+01  1.4957797E-05  0.0000000E+00  1.0000000E+00
 13  1  5  5   0   0 -3.3060198E+02 -5.2970592E+00 -4.7083983E+01  3.3397998E+02  3.7847776E-06  0.0000000E+00  1.0000000E+00
</event>
<event>
9 100 1.0000000E+00 1.0000000E+03 7.8125000E-03 0.0000000E+00
 21 -1  0  0 501 502  0.0000000E+00  0.0000000E+00  3.3617016E+02  3.3617016E+02  0.0000000E+00  0.0000000E+00  1.0000000E+00
 21 -1  0  0 502 501  0.0000000E+00  0.0000000E+00 -7.2016376E+02  7.2016376E+02  0.0000000E+00  0.0000000E+00  1.0000000E+00
 39  2  1  2   0   0 -9.0949470E-13  4.5474735E-13 -3.8399361E+02  1.0563339E+03  9.8406822E+02  0.0000000E+00  1.0000000E+00
 23  2  3  3   0   0  4.1879148E+02 -2.0450755E+02 -3.2751176E+02  5.7735749E+02  9.4170474E+01  0.0000000E+00  1.0000000E+00
 23  2  3  3   0   0 -4.1879148E+02  2.0450755E+02 -5.6481849E+01  4.7897643E+02  9.4966160E+01  0.0000000E+00  1.0000000E+00
-11  1  4  4   0   0  1.5582149E+02 -1.1362301E+02 -1.7314670E+02  2.5917234E+02  1.0271387E-05  0.0000000E+00  1.0000000E+00
 11  1  4  4   0   0  2.6297000E+02 -9.0884546E+01 -1.5436506E+02  3.1818515E+02  6.8770433E-06  0.0000000E+00  1.0000000E+00
-13  1  5  5   0   0 -2.5341109E+02  7.2314571E+01 -4.0911524E+01  2.6668396E+02  1.0344454E-05  0.0000000E+00  1.0000000E+00
 13  1  5  5   0   0 -1.6538039E+02  1.3219298E+02 -1.5570325E+01  2.1229247E+02  1.1344316E-05  0.0000000E+00  1.0000000E+00
</event>
<event>
9 100 1.0000000E+00 1.0000000E+03 7.8125000E-03 0.0000000E+00
 21 -1  0  0 501 502  0.0000000E+00  0.0000000E+00  2.7431828E+02  2.7431828E+02  0.0000000E+00  0.0000000E+00  1.0000000E+00
 21 -1  0  0 502 501  0.0000000E+00  0.0000000E+00 -9.0385366E+02  9.0385366E+02  0.0000000E+00  0.0000000E+00  1.0000000E+00
 39  2  1  2   0   0 -6.2527761E-13 -1.3358203E-12 -6.2953538E+02  1.1781719E+03  9.9587867E+02  0.0000000E+00  1.0000000E+00
 23  2  3  3   0   0  1.0801220E+02  2.3556083E+02  1.7648602E+02  3.2677315E+02  9.2075169E+01  0.0000000E+00  1.0000000E+00
 23  2  3  3   0   0 -1.0801220E+02 -2.3556083E+02 -8.0602140E+02  8.5139879E+02  8.9743323E+01  0.0000000E+00  1.0000000E+00
-11  1  4  4   0   0  7.9062602E+01  1.0259069E+02  1.2856875E+02  1.8249841E+02  4.2649612E-06  0.0000000E+00  1.0000000E+00
 11  1  4  4   0   0  2.8949594E+01  1.3297013E+02  4.7917268E+01  1.4427474E+02  6.3259598E-06  0.0000000E+00  1.0000000E+00
-13  1  5  5   0   0  1.9959764E+00 -5.7305485E+01 -2.6743249E+02  2.7351059E+02  1.0789593E-05  0.0000000E+00  1.0000000E+00
 13  1  5  5   0   0 -1.1000817E+02 -1.7825534E+02 -5.3858891E+02  5.7788821E+02  5.3947966E-06  0.0000000E+00  1.0000000E+00
</event>
<event>
9 100 1.0000000E+00 1.0000000E+03 7.8125000E-03 0.0000000E+00
 21 -1  0  0 501 502  0.0000000E+00  0.0000000E+00  3.3810557E+02  3.3810557E+02  0.0000000E+00  0.0000000E+00  1.0000000E+00
 21 -1  0  0 502 501  0.0000000E+00  0.0000000E+00 -7.8744358E+02  7.8744358E+02  0.0000000E+00  0.0000000E+00  1.0000000E+00
 39  2  1  2   0   0 -2.5579538E-13  1.7053026E-13 -4.4933801E+02  1.1255492E+03  1.0319672E+03  0.0000000E+00  1.0000000E+00
 23  2  3  3   0   0  2.0723956E+02 -1.2860674E+02  2.6120152E+02  3.6888885E+02  9.1459377E+01  0.0000000E+00  1.0000000E+00
 23  2  3  3   0   0 -2.0723956E+02  1.2860674E+02 -7.1053954E+02  7.5666030E+02  9.0445826E+01  0.0000000E+00  1.0000000E+00
-11  1  4  4   0   0  2.0743732E+02 -9.9615155E+01  2.1886876E+02  3.1757984E+02  9.5367432E-07  0.0000000E+00  1.0000000E+00
 11  1  4  4   0   0 -1.9776213E-01 -2.8991590E+01  4.2332768E+01  5.1309011E+01  8.5299224E-06  0.0000000E+00  1.0000000E+00
-13  1  5  5   0   0 -1.1614276E+02  1.2177773E+02 -4.3781203E+02  4.6903979E+02  7.6293945E-06  0.0000000E+00  1.0000000E+00
 13  1  5  5   0   0 -9.1096800E+01  6.8290170E+00 -2.7272751E+02  2.8762051E+02  5.3947966E-06  0.0000000E+00  1.0000000E+00
</event>
<event>
9 100 1.0000000E+00 1.0000000E+03 7.8125000E-03 0.0000000E+00
 21 -1  0  0 501 502  0.0000000E+00  0.0000000E+00  6.3225873E+02  6.3225873E+02  0.0000000E+00  0.0000000E+00  1.0000000E+00
 21 -1  0  0 502 501  0.0000000E+00  0.0000000E+00 -3.9417302E+02  3.9417302E+02  0.0000000E+00  0.0000000E+00  1.0000000E+00
 39  2  1  2   0   0  1.1368684E-13  2.8421709E-14  2.3808571E+02  1.0264317E+03  9.9843744E+02  0.0000000E+00  1.0000000E+00
 23  2  3  3   0   0 -2.0528718E+02 -5.3819265E+01 -3.3556212E+02  4.0789206E+02  9.3459389E+01  0.0000000E+00  1.0000000E+00
 23  2  3  3   0   0  2.0528718E+02  5.3819265E+01  5.7364783E+02  6.1853969E+02  9.2087837E+01  0.0000000E+00  1.0000000E+00
-11  1  4  4   0   0 -1.4091353E+01 -2.6729068E+01 -9.3380953E+01  9.8147907E+01  1.5258789E-05  0.0000000E+00  1.0000000E+00
 11  1  4  4   0   0 -1.9119583E+02 -2.7090197E+01 -2.4218117E+02  3.0974416E+02  4.8628039E-06  0.0000000E+00  1.0000000E+00
-13  1  5  5   0   0  4.8403968E+01 -1.6785636E+01  2.1133516E+02  2.1745632E+02  1.0789593E-05  0.0000000E+00  1.0000000E+00
 13  1  5  5   0   0  1.5688321E+02  7.0604901E+01  3.6231267E+02  4.0108337E+02  4.6720309E-06  0.0000000E+00  1.0000000E+00
</event>
<event>
9 100 1.0000000E+00 1.0000000E+03 7.8125000E-03 0.0000000E+00
 21 -1  0  0 501 502  0.0000000E+00  0.0000000E+00  1.7867003E+03  1.7867003E+03  0.0000000E+00  0.0000000E+00  1.0000000E+00
 21 -1  0  0 502 501  0.0000000E+00  0.0000000E+00 -1.3891681E+02  1.3891681E+02  0.0000000E+00  0.0000000E+00  1.0000000E+00
 39  2  1  2   0   0 -9.8054898E-13  1.0572876E-11  1.6477835E+03  1.9256171E+03  9.9639894E+02  0.0000000E+00  1.0000000E+00
 23  2  3  3   0   0  3.2331737E+01 -3.4908866E+02  1.6238715E+02  3.9674832E+02  9.0174311E+01  0.0000000E+00  1.0000000E+00
 23  2  3  3   0   0 -3.2331737E+01  3.4908866E+02  1.4853964E+03  1.5288688E+03  9.0162536E+01  0.0000000E+00  1.0000000E+00
-11  1  4  4   0   0  2.6029866E+01 -1.4543263E+02  2.2141415E+01  1.4939359E+02  5.0463701E-06  0.0000000E+00  1.0000000E+00
 11  1  4  4   0   0  6.3018710E+00 -2.0365603E+02  1.4024574E+02  2.4735473E+02  1.8000208E-06  0.0000000E+00  1.0000000E+00
-13  1  5  5   0   0 -5.5339678E+01  3.1928990E+02  1.3486543E+03  1.3870390E+03  3.8146973E-06  0.0000000E+00  1.0000000E+00
 13  1  5  5   0   0  2.3007941E+01  2.9798756E+01  1.3674203E+02  1.4182988E+02  3.0517578E-05  0.0000000E+00  1.0000000E+00
</event>
<event>
9 100 1.0000000E+00 1.0000000E+03 7.8125000E-03 0.0000000E+00
 21 -1  0  0 501 502  0.0000000E+00  0.0000000E+00  1.2390261E+02  1.2390261E+02  0.0000000E+00  0.0000000E+00  1.0000000E+00
 21 -1  0  0 502 501  0.0000000E+00  0.0000000E+00 -2.0448521E+03  2.0448521E+03  0.0000000E+00  0.0000000E+00  1.0000000E+00
 39  2  1  2   0   0  7.3328010E-12  1.9184654E-13 -1.9209494E+03  2.1687547E+03  1.0067026E+03  0.0000000E+00  1.0000000E+00
 23  2  3  3   0   0  2.9281247E+02  7.5828672E+00 -1.8196311E+03  1.8448167E+03  8.0590053E+01  0.0000000E+00  1.0000000E+00
 23  2  3  3   0   0 -2.9281247E+02 -7.5828672E+00 -1.0131832E+02  3.2393792E+02  9.4200489E+01  0.0000000E+00  1.0000000E+00
-11  1  4  4   0   0  4.7174734E+01 -1.1894086E+01 -1.6788896E+02  1.7479596E+02  4.8252528E-05  0.0000000E+00  1.0000000E+00
 11  1  4  4   0   0  2.4563774E+02  1.9476953E+01 -1.6517422E+03  1.6700208E+03  4.6720309E-06  0.0000000E+00  1.0000000E+00
-13  1  5  5   0   0 -1.0610098E+02 -1.1594013E+01  8.8689613E+00  1.0710041E+02  1.2434392E-05  0.0000000E+00  1.0000000E+00
 13  1  5  5   0   0 -1.8671149E+02  4.0111455E+00 -1.1018728E+02  2.1683751E+02  7.7879348E-06  0.0000000E+00  1.0000000E+00
</event>
<event>
9 100 1.0000000E+00 1.0000000E+03 7.8125000E-03 0.0000000E+00
 21 -1  0  0 501 502  0.0000000E+00  0.0000000E+00  7.5083047E+02  7.5083047E+02  0.0000000E+00  0.0000000E+00  1.0000000E+00
 21 -1  0  0 502 501  0.0000000E+00  0.0000000E+00 -5.7328630E+02  5.7328630E+02  0.0000000E+00  0.0000000E+00  1.0000000E+00
 39  2  1  2   0   0  3.6948222E-13  6.3948846E-14  1.7754416E+02  1.3241168E+03  1.3121598E+03  0.0000000E+00  1.0000000E+00
 23  2  3  3   0   0 -2.0057821E+02 -3.1521534E+01  7.1155280E+02  7.4554049E+02  9.1093383E+01  0.0000000E+00  1.0000000E+00
 23  2  3  3   0   0  2.0057821E+02  3.1521534E+01 -5.3400864E+02  5.7857628E+02  9.1433396E+01  0.0000000E+00  1.0000000E+00
-11  1  4  4   0   0 -7.7252657E+01 -6.2090517E+00  4.3268599E+02  4.3957217E+02  1.2651920E-05  0.0000000E+00  1.0000000E+00
 11  1  4  4   0   0 -1.2332555E+02 -2.5312482E+01  2.7886681E+02  3.0596831E+02  1.3214499E-05  0.0000000E+00  1.0000000E+00
-13  1  5  5   0   0  2.4323449E+01  7.8575704E+00 -1.8613892E+02  1.8788578E+02  1.4774259E-05  0.0000000E+00  1.0000000E+00
 13  1  5  5   0   0  1.7625476E+02  2.3663964E+01 -3.4786972E+02  3.9069050E+02  8.9462581E-06  0.0000000E+00  1.0000000E+00
</event>
<event>
9 100 1.0000000E+00 1.0000000E+03 7.8125000E-03 0.0000000E+00
 21 -1  0  0 501 502  0.0000000E+00  0.0000000E+00  5.7847937E+02  5.7847937E+02  0.0000000E+00  0.0000000E+00  1.0000000E+00
 21 -1  0  0 502 501  0.0000000E+00  0.0000000E+00 -4.4872189E+02  4.4872189E+02  0.0000000E+00  0.0000000E+00  1.0000000E+00
 39  2  1  2   0   0  7.1054274E-13  7.3896445E-13  1.2975748E+02  1.0272013E+03  1.0189727E+03  0.0000000E+00  1.0000000E+00
 23  2  3  3   0   0 -2.0917390E+02 -2.2666370E+02  4.6276238E+02  5.6379497E+02  9.2658501E+01  0.0000000E+00  1.0000000E+00
 23  2  3  3   0   0  2.0917390E+02  2.2666370E+02 -3.3300490E+02  4.6340629E+02  9.3396861E+01  0.0000000E+00  1.0000000E+00
-11  1  4  4   0   0 -1.6491709E+02 -2.1591449E+02  4.2600297E+02  5.0526750E+02  3.2690309E-06  0.0000000E+00  1.0000000E+00
 11  1  4  4   0   0 -4.4256813E+01 -1.0749206E+01  3.6759402E+01  5.8527469E+01  1.5258789E-05  0.0000000E+00  1.0000000E+00
-13  1  5  5   0   0  1.7985489E+02  1.7831724E+02 -3.1473953E+02  4.0398736E+02  2.4546695E-06  0.0000000E+00  1.0000000E+00
 13  1  5  5   0   0  2.9319016E+01  4.8346460E+01 -1.8265363E+01  5.9418922E+01  7.6293945E-06  0.0000000E+00  1.0000000E+00
</event>
<event>
9 100 1.0000000E+00 1.0000000E+03 7.8125000E-03 0.0000000E+00
 21 -1  0  0 501 502  0.0000000E+00  0.0000000E+00  4.2410339E+02  4.2410339E+02  0.0000000E+00  0.0000000E+00  1.0000000E+00
 21 -1  0  0 502 501  0.0000000E+00  0.0000000E+00 -5.8946096E+02  5.8946096E+02  0.0000000E+00  0.0000000E+00  1.0000000E+00
 39  2  1  2   0   0  3.4106051E-13 -1.4210855E-13 -1.6535756E+02  1.0135643E+03  9.9998478E+02  0.0000000E+00  1.0000000E+00
 23  2  3  3   0   0 -1.3410742E+02  7.1340724E+01 -5.5768216E+02  5.8433085E+02  8.5783767E+01  0.0000000E+00  1.0000000E+00
 23  2  3  3   0   0  1.3410742E+02 -7.1340724E+01  3.9232460E+02  4.2923350E+02  8.5138137E+01  0.0000000E+00  1.0000000E+00
-11  1  4  4   0   0 -4.8337349E+01 -1.6231574E+01 -1.3822140E+02  1.4732657E+02  1.4273290E-05  0.0000000E+00  1.0000000E+00
 11  1  4  4   0   0 -8.5770072E+01  8.7572297E+01 -4.1946076E+02  4.3700428E+02  4.2649612E-06  0.0000000E+00  1.0000000E+00
-13  1  5  5   0   0  2.7465754E+00  1.0475829E+01  7.9372854E+01  8.0108280E+01  7.6293945E-06  0.0000000E+00  1.0000000E+00
 13  1  5  5   0   0  1.3136085E+02 -8.1816553E+01  3.1295175E+02  3.4912521E+02  2.6973983E-06  0.0000000E+00  1.0000000E+00
</event>
<event>
9 100 1.0000000E+00 1.0000000E+03 7.8125000E-03 0.0000000E+00
 21 -1  0  0 501 502  0.0000000E+00  0.0000000E+00  1.4095965E+03  1.4095965E+03  0.0000000E+00  0.0000000E+00  1.0000000E+00
 21 -1  0  0 502 501  0.0000000E+00  0.0000000E+00 -1.7927455E+02  1.7927455E+02  0.0000000E+00  0.0000000E+00  1.0000000E+00
 39  2  1  2   0   0 -5.6843419E-14  2.8421709E-14  1.2303220E+03  1.5888711E+03  1.0053950E+03  0.0000000E+00  1.0000000E+00
 23  2  3  3   0   0  3.1197929E+02 -1.1347384E+02  3.5433780E+01  3.4535261E+02  8.8348662E+01  0.0000000E+00  1.0000000E+00
 23  2  3  3   0   0 -3.1197929E+02  1.1347384E+02  1.1948882E+03  1.2435184E+03  9.1503950E+01  0.0000000E+00  1.0000000E+00
-11  1  4  4   0   0  1.4701046E+01 -3.1800028E+01  3.8457637E-02  3.5033755E+01  1.5078915E-06  0.0000000E+00  1.0000000E+00
 11  1  4  4   0   0  2.9727824E+02 -8.1673816E+01  3.5395322E+01  3.1031886E+02  1.9020759E-06  0.0000000E+00  1.0000000E+00
-13  1  5  5   0   0 -8.7046413E-01  1.9141530E+01  6.0005153E+01  6.2990271E+01  2.1579186E-05  0.0000000E+00  1.0000000E+00
 13  1  5  5   0   0 -3.1110882E+02  9.4332314E+01  1.1348830E+03  1.1805282E+03  4.4220059E-06  0.0000000E+00  1.0000000E+00
</event>
<event>
9 100 1.0000000E+00 1.0000000E+03 7.8125000E-03 0.0000000E+00
 21 -1  0  0 501 502  0.0000000E+00  0.0000000E+00  4.6621555E+02  4.6621555E+02  0.0000000E+00  0.0000000E+00  1.0000000E+00
 21 -1  0  0 502 501  0.0000000E+00  0.0000000E+00 -5.3322018E+02  5.3322018E+02  0.0000000E+00  0.0000000E+00  1.0000000E+00
 39  2  1  2   0   0  1.0800250E-12  2.4158453E-13 -6.7004630E+01  9.9943572E+02  9.9718712E+02  0.0000000E+00  1.0000000E+00
 23  2  3  3   0   0 -2.6841576E+02 -5.8881260E+01 -4.4043229E+02  5.2671724E+02  8.9086607E+01  0.0000000E+00  1.0000000E+00
 23  2  3  3   0   0  2.6841576E+02  5.8881260E+01  3.7342766E+02  4.7271849E+02  9.2198314E+01  0.0000000E+00  1.0000000E+00
-11  1  4  4   0   0 -1.4665900E+01  1.9770285E+00 -1.4298851E-02  1.4798563E+01  0.0000000E+00  0.0000000E+00  1.0000000E+00
 11  1  4  4   0   0 -2.5374986E+02 -6.0858288E+01 -4.4041799E+02  5.1191867E+02  3.5058617E-07  0.0000000E+00  1.0000000E+00
-13  1  5  5   0   0  1.9272183E+02 -1.8047733E+00  2.4234183E+02  3.0963611E+02  3.8146973E-06  0.0000000E+00  1.0000000E+00
 13  1  5  5   0   0  7.5693928E+01  6.0686033E+01  1.3108583E+02  1.6308237E+02  7.6293945E-06  0.0000000E+00  1.0000000E+00
</event>
<event>
9 100 1.0000000E+00 1.0000000E+03 7.8125000E-03 0.0000000E+00
 21 -1  0  0 501 502  0.0000000E+00  0.0000000E+00  2.5514128E+02  2.5514128E+02  0.0000000E+00  0.0000000E+00  1.0000000E+00
 21 -1  0  0 502 501  0.0000000E+00  0.0000000E+00 -9.8485808E+02  9.8485808E+02  0.0000000E+00  0.0000000E+00  1.0000000E+00
 39  2  1  2   0   0  1.1368684E-13 -1.4210855E-13 -7.2971679E+02  1.2399994E+03  1.0025526E+03  0.0000000E+00  1.0000000E+00
 23  2  3  3   0   0  1.4262923E+02 -2.4083442E+02  1.3703412E+02  3.2474629E+02  9.1309848E+01  0.0000000E+00  1.0000000E+00
 23  2  3  3   0   0 -1.4262923E+02  2.4083442E+02 -8.6675091E+02  9.1525307E+02  8.9926137E+01  0.0000000E+00  1.0000000E+00
-11  1  4  4   0   0  1.4769426E+02 -2.4456101E+02  1.2644156E+02  3.1242783E+02  2.0988961E-06  0.0000000E+00  1.0000000E+00
 11  1  4  4   0   0 -5.0650362E+00  3.7265860E+00  1.0592567E+01  1.2318462E+01  1.0446979E-05  0.0000000E+00  1.0000000E+00
-13  1  5  5   0   0 -8.7759798E+01  1.5607083E+02 -6.7737216E+02  7.0063752E+02  3.8146973E-06  0.0000000E+00  1.0000000E+00
 13  1  5  5   0   0 -5.4869429E+01  8.4763594E+01 -1.8937875E+02  2.1461555E+02  2.1579186E-05  0.0000000E+00  1.0000000E+00
</event>
<event>
9 100 1.0000000E+00 1.0000000E+03 7.8125000E-03 0.0000000E+00
 21 -1  0  0 501 502  0.0000000E+00  0.0000000E+00  1.9470004E+02  1.9470004E+02  0.0000000E+00  0.0000000E+00  1.0000000E+00
 21 -1  0  0 502 501  0.0000000E+00  0.0000000E+00 -1.2360616E+03  1.2360616E+03  0.0000000E+00  0.0000000E+00  1.0000000E+00
 39  2  1  2   0   0 -2.3874236E-12  6.3096195E-12 -1.0413616E+03  1.4307617E+03  9.8114473E+02  0.0000000E+00  1.0000000E+00
 23  2  3  3   0   0 -1.6391782E+02  4.2635796E+02 -7.4523192E+02  8.7860946E+02  8.9071877E+01  0.0000000E+00  1.0000000E+00
 23  2  3  3   0   0  1.6391782E+02 -4.2635796E+02 -2.9612967E+02  5.5215221E+02  9.2353204E+01  0.0000000E+00  1.0000000E+00
-11  1  4  4   0   0 -1.1696315E+02  3.7898646E+02 -6.0647095E+02  7.2465035E+02  5.3947966E-06  0.0000000E+00  1.0000000E+00
 11  1  4  4   0   0 -4.6954671E+01  4.7371507E+01 -1.3876097E+02  1.5395911E+02  1.3214499E-05  0.0000000E+00  1.0000000E+00
-13  1  5  5   0   0 -1.8774004E+00 -3.2728908E+01 -6.5375450E-01  3.2789228E+01  1.5728400E-05  0.0000000E+00  1.0000000E+00
 13  1  5  5   0   0  1.6579522E+02 -3.9362906E+02 -2.9547592E+02  5.1936298E+02  1.0511130E-06  0.0000000E+00  1.0000000E+00
</event>
<event>
9 100 1.0000000E+00 1.0000000E+03 7.8125000E-03 0.0000000E+00
 21 -1  0  0 501 502  0.0000000E+00  0.0000000E+00  2.1522039E+03  2.1522039E+03  0.0000000E+00  0.0000000E+00  1.0000000E+00
 21 -1  0  0 502 501  0.0000000E+00  0.0000000E+00 -1.2289478E+02  1.2289478E+02  0.0000000E+00  0.0000000E+00  1.0000000E+00
 39  2  1  2   0   0  2.4442670E-12 -6.1959327E-12  2.0293091E+03  2.2750987E+03  1.0285808E+03  0.0000000E+00  1.0000000E+00
 23  2  3  3   0   0  1.7395478E+02 -4.4022724E+02  1.4084852E+03  1.4886966E+03  9.1251300E+01  0.0000000E+00  1.0000000E+00
 23  2  3  3   0   0 -1.7395478E+02  4.4022724E+02  6.2082390E+02  7.8640204E+02  9.4581017E+01  0.0000000E+00  1.0000000E+00
-11  1  4  4   0   0  1.3844301E+02 -2.7877071E+02  8.0820530E+02  8.6606893E+02  1.0789593E-05  0.0000000E+00  1.0000000E+00
 11  1  4  4   0   0  3.5511766E+01 -1.6145653E+02  6.0027988E+02  6.2262769E+02  2.1579186E-05  0.0000000E+00  1.0000000E+00
-13  1  5  5   0   0 -9.0964333E+01  2.7106403E+02  4.4339459E+02  5.2758789E+02  1.4400166E-05  0.0000000E+00  1.0000000E+00
 13  1  5  5   0   0 -8.2990444E+01  1.6916321E+02  1.7742931E+02  2.5881415E+02  2.2888184E-05  0.0000000E+00  1.0000000E+00
</event>
<event>
9 100 1.0000000E+00 1.0000000E+03 7.8125000E-03 0.0000000E+00
 21 -1  0  0 501 502  0.0000000E+00  0.0000000E+00  7.1901580E+02  7.1901580E+02  0.0000000E+00  0.0000000E+00  1.0000000E+00
 21 -1  0  0 502 501  0.0000000E+00  0.0000000E+00 -3.4045626E+02  3.4045626E+02  0.0000000E+00  0.0000000E+00  1.0000000E+00
 39  2  1  2   0   0  2.4868996E-14 -7.9580786E-13  3.7855954E+02  1.0594721E+03  9.8953207E+02  0.0000000E+00  1.0000000E+00
 23  2  3  3   0   0 -1.7046060E+01  4.6877235E+02  3.2458303E+02  5.7828999E+02  9.5010945E+01  0.0000000E+00  1.0000000E+00
 23  2  3  3   0   0  1.7046060E+01 -4.6877235E+02  5.3976507E+01  4.8118207E+02  9.2653276E+01  0.0000000E+00  1.0000000E+00
-11  1  4  4   0   0 -3.0680746E+01  4.3693353E+02  2.7287948E+02  5.1605758E+02  1.5078915E-06  0.0000000E+00  1.0000000E+00
 11  1  4  4   0   0  1.3634686E+01  3.1838828E+01  5.1703553E+01  6.2232411E+01  1.5258789E-05  0.0000000E+00  1.0000000E+00
-13  1  5  5   0   0  2.2227776E+01 -1.3387992E+02  5.4505968E+01  1.4624913E+02  9.0992059E-06  0.0000000E+00  1.0000000E+00
 13  1  5  5   0   0 -5.1817160E+00 -3.3489244E+02 -5.2946071E-01  3.3493294E+02  7.4484345E-06  0.0000000E+00  1.0000000E+00
</event>
<event>
9 100 1.0000000E+00 1.0000000E+03 7.8125000E-03 0.0000000E+00
 21 -1  0  0 501 502  0.0000000E+00  0.0000000E+00  1.8783268E+02  1.8783268E+02  0.0000000E+00  0.0000000E+00  1.0000000E+00
 21 -1  0  0 502 501  0.0000000E+00  0.0000000E+00 -1.3232893E+03  1.3232893E+03  0.0000000E+00  0.0000000E+00  1.0000000E+00
 39  2  1  2   0   0 -5.6132876E-13  3.4674486E-12 -1.1354566E+03  1.5111220E+03  9.9710976E+02  0.0000000E+00  1.0000000E+00
 23  2  3  3   0   0 -5.8086112E+01  3.7005543E+02 -1.0473959E+03  1.1160106E+03  9.0146302E+01  0.0000000E+00  1.0000000E+00
 23  2  3  3   0   0  5.8086112E+01 -3.7005543E+02 -8.8060684E+01  3.9511139E+02  8.9684501E+01  0.0000000E+00  1.0000000E+00
-11  1  4  4   0   0  8.6329369E+00  1.1290245E+02 -4.1281801E+02  4.2806565E+02  2.7508173E-05  0.0000000E+00  1.0000000E+00
 11  1  4  4   0   0 -6.6719049E+01  2.5715298E+02 -6.3457790E+02  6.8794491E+02  1.6184390E-05  0.0000000E+00  1.0000000E+00
-13  1  5  5   0   0  3.7406718E+01 -1.2229182E+02 -7.0102298E+01  1.4583856E+02  1.1060155E-05  0.0000000E+00  1.0000000E+00
 13  1  5  5   0   0  2.0679395E+01 -2.4776361E+02 -1.7958386E+01  2.4927284E+02  8.0358026E-06  0.0000000E+00  1.0000000E+00
</event>
<event>
9 100 1.0000000E+00 1.0000000E+03 7.8125000E-03 0.0000000E+00
 21 -1  0  0 501 502  0.0000000E+00  0.0000000E+00  3.4951363E+02  3.4951363E+02  0.0000000E+00  0.0000000E+00  1.0000000E+00
 21 -1  0  0 502 501  0.0000000E+00  0.0000000E+00 -7.2336903E+02  7.2336903E+02  0.0000000E+00  0.0000000E+00  1.0000000E+00
 39  2  1  2   0   0 -7.1054274E-15 -1.7053026E-13 -3.7385540E+02  1.0728827E+03  1.0056388E+03  0.0000000E+00  1.0000000E+00
 23  2  3  3   0   0 -4.3467908E+01 -4.8980095E+02 -2.4130706E+02  5.5543804E+02  9.2129767E+01  0.0000000E+00  1.0000000E+00
 23  2  3  3   0   0  4.3467908E+01  4.8980095E+02 -1.3254835E+02  5.1744462E+02  9.1572043E+01  0.0000000E+00  1.0000000E+00
-11  1  4  4   0   0  6.7350137E+00 -3.7346242E+02 -1.8361533E+02  4.1621404E+02  7.3253114E-06  0.0000000E+00  1.0000000E+00
 11  1  4  4   0   0 -5.0202922E+01 -1.1633853E+02 -5.7691732E+01  1.3922400E+02  1.8881788E-05  0.0000000E+00  1.0000000E+00
-13  1  5  5   0   0 -8.2996599E+00  1.4931877E+01  8.8959306E+00  1.9260916E+01  1.3621194E-05  0.0000000E+00  1.0000000E+00
 13  1  5  5   0   0  5.1767568E+01  4.7486907E+02 -1.4144428E+02  4.9818370E+02  1.9732649E-06  0.0000000E+00  1.0000000E+00
</event>
<event>
9 100 1.0000000E+00 1.0000000E+03 7.8125000E-03 0.0000000E+00
 21 -1  0  0 501 502  0.0000000E+00  0.0000000E+00  7.3331094E+02  7.3331094E+02  0.0000000E+00  0.0000000E+00  1.0000000E+00
 21 -1  0  0 502 501  0.0000000E+00  0.0000000E+00 -3.4070415E+02  3.4070415E+02  0.0000000E+00  0.0000000E+00  1.0000000E+00
 39  2  1  2   0   0 -6.2527761E-13 -1.2789769E-13  3.9260679E+02  1.0740151E+03  9.9968411E+02  0.0000000E+00  1.0000000E+00
 23  2  3  3   0   0  3.9329595E+02  8.5461826E+01  5.0022891E+02  6.4829093E+02  8.9815060E+01  0.0000000E+00  1.0000000E+00
 23  2  3  3   0   0 -3.9329595E+02 -8.5461826E+01 -1.0762211E+02  4.2572416E+02  8.7596280E+01  0.0000000E+00  1.0000000E+00
-11  1  4  4   0   0  3.5201013E+01  3.6102047E+00  1.2117946E+01  3.7403068E+01  2.3515373E-05  0.0000000E+00  1.0000000E+00
 11  1  4  4   0   0  3.5809494E+02  8.1851621E+01  4.8811096E+02  6.1088787E+02  2.5678467E-06  0.0000000E+00  1.0000000E+00
-13  1  5  5   0   0 -3.4029870E+00 -2.3566187E+00  9.3840391E+00  1.0256421E+01  2.1409935E-05  0.0000000E+00  1.0000000E+00
 13  1  5  5   0   0 -3.8989296E+02 -8.3105207E+01 -1.1700615E+02  4.1546774E+02  2.5650781E-06  0.0000000E+00  1.0000000E+00
</event>
<event>
9 100 1.0000000E+00 1.0000000E+03 7.8125000E-03 0.0000000E+00
 21 -1  0  0 501 502  0.0000000E+00  0.0000000E+00  8.1786766E+02  8.1786766E+02  0.0000000E+00  0.0000000E+00  1.0000000E+00
 21 -1  0  0 502 501  0.0000000E+00  0.0000000E+00 -3.2951801E+02  3.2951801E+02  0.0000000E+00  0.0000000E+00  1.0000000E+00
 39  2  1  2   0   0  7.8159701E-14 -4.8316906E-13  4.8834964E+02  1.1473857E+03  1.0382719E+03  0.0000000E+00  1.0000000E+00
 23  2  3  3   0   0 -3.8686069E+01  2.4502572E+02 -2.4947087E+02  3.6306056E+02  8.9683005E+01  0.0000000E+00  1.0000000E+00
 23  2  3  3   0   0  3.8686069E+01 -2.4502572E+02  7.3782052E+02  7.8432510E+02  9.6190118E+01  0.0000000E+00  1.0000000E+00
-11  1  4  4   0   0  2.5111260E+01  3.6284090E+01 -2.8906014E+01  5.2751002E+01  6.6072495E-06  0.0000000E+00  1.0000000E+00
 11  1  4  4   0   0 -6.3797329E+01  2.0874163E+02 -2.2056486E+02  3.1030956E+02  1.8773098E-06  0.0000000E+00  1.0000000E+00
-13  1  5  5   0   0  5.2525803E+01 -1.0951978E+02  2.5159213E+02  2.7937813E+02  1.3214499E-05  0.0000000E+00  1.0000000E+00
 13  1  5  5   0   0 -1.3839734E+01 -1.3550594E+02  4.8622839E+02  5.0494697E+02  4.6720309E-06  0.0000000E+00  1.0000000E+00
</event>
<event>
9 100 1.0000000E+00 1.0000000E+03 7.8125000E-03 0.0000000E+00
 21 -1  0  0 501 502  0.0000000E+00  0.0000000E+00  2.6182129E+02  2.6182129E+02  0.0000000E+00  0.0000000E+00  1.0000000E+00
 21 -1  0  0 502 501  0.0000000E+00  0.0000000E+00 -9.5571925E+02  9.5571925E+02  0.0000000E+00  0.0000000E+00  1.0000000E+00
 39  2  1  2   0   0  1.1937118E-12 -1.6342483E-13 -6.9389796E+02  1.2175405E+03  1.0004552E+03  0.0000000E+00  1.0000000E+00
 23  2  3  3   0   0  3.4068362E+02 -4.5071624E+01 -7.7522659E+02  8.5280848E+02  9.0605005E+01  0.0000000E+00  1.0000000E+00
 23  2  3  3   0   0 -3.4068362E+02  4.5071624E+01  8.1328632E+01  3.6473206E+02  9.1204956E+01  0.0000000E+00  1.0000000E+00
-11  1  4  4   0   0  2.3551756E+02 -1.6421890E+01 -6.1741329E+02  6.6101238E+02  2.6973983E-06  0.0000000E+00  1.0000000E+00
 11  1  4  4   0   0  1.0516606E+02 -2.8649734E+01 -1.5781330E+02  1.9179610E+02  2.1579186E-05  0.0000000E+00  1.0000000E+00
-13  1  5  5   0   0 -2.1047188E+02 -1.4895068E+01  3.3713010E+01  2.1367461E+02  6.0691462E-06  0.0000000E+00  1.0000000E+00
 13  1  5  5   0   0 -1.3021175E+02  5.9966692E+01  4.7615622E+01  1.5105744E+02  3.1987209E-06  0.0000000E+00  1.0000000E+00
</event>
<event>
9 100 1.0000000E+00 1.0000000E+03 7.8125000E-03 0.0000000E+00
 21 -1  0  0 501 502  0.0000000E+00  0.0000000E+00  1.2669028E+03  1.2669028E+03  0.0000000E+00  0.0000000E+00  1.0000000E+00
 21 -1  0  0 502 501  0.0000000E+00  0.0000000E+00 -1.9744159E+02  1.9744159E+02  0.0000000E+00  0.0000000E+00  1.0000000E+00
 39  2  1  2   0   0  2.5011104E-12  8.6686214E-13  1.0694612E+03  1.4643444E+03  1.0002786E+03  0.0000000E+00  1.0000000E+00
 23  2  3  3   0   0 -1.2555259E+02 -4.4284946E+01 -1.5547858E+02  2.2110628E+02  8.3604955E+01  0.0000000E+00  1.0000000E+00
 23  2  3  3   0   0  1.2555259E+02  4.4284946E+01  1.2249398E+03  1.2432381E+03  1.6564689E+02  0.0000000E+00  1.0000000E+00
-11  1  4  4   0   0 -1.6869034E+01 -3.9117269E+01 -1.9218280E+01  4.6734006E+01  1.1601949E-05  0.0000000E+00  1.0000000E+00
 11  1  4  4   0   0 -1.0868356E+02 -5.1676776E+00 -1.3626030E+02  1.7437228E+02  4.6353870E-06  0.0000000E+00  1.0000000E+00
-13  1  5  5   0   0  3.5620212E+01  1.0034867E+02  5.9945160E+02  6.0883567E+02  2.1579186E-05  0.0000000E+00  1.0000000E+00
 13  1  5  5   0   0  8.9932379E+01 -5.6063724E+01  6.2548823E+02  6.3440247E+02  7.6293945E-06  0.0000000E+00  1.0000000E+00
</event>
<event>
9 100 1.0000000E+00 1.0000000E+03 7.8125000E-03 0.0000000E+00
 21 -1  0  0 501 502  0.0000000E+00  0.0000000E+00  3.3434025E+02  3.3434025E+02  0.0000000E+00  0.0000000E+00  1.0000000E+00
 21 -1  0  0 502 501  0.0000000E+00  0.0000000E+00 -7.5497368E+02  7.5497368E+02  0.0000000E+00  0.0000000E+00  1.0000000E+00
 39  2  1  2   0   0 -5.1159077E-13  3.1263880E-13 -4.2063344E+02  1.0893139E+03  1.0048245E+03  0.0000000E+00  1.0000000E+00
 23  2  3  3   0   0  3.4770576E+02 -2.2092835E+02  8.5316412E+01  4.3035527E+02  9.0653976E+01  0.0000000E+00  1.0000000E+00
 23  2  3  3   0   0 -3.4770576E+02  2.2092835E+02 -5.0594985E+02  6.5895865E+02  9.2372229E+01  0.0000000E+00  1.0000000E+00
-11  1  4  4   0   0  2.4291913E+02 -1.8868043E+02  3.4505141E+01  3.0951674E+02  5.1356934E-06  0.0000000E+00  1.0000000E+00
 11  1  4  4   0   0  1.0478663E+02 -3.2247915E+01  5.0811271E+01  1.2083853E+02  1.1354333E-05  0.0000000E+00  1.0000000E+00
-13  1  5  5   0   0 -3.3751904E+02  2.0083016E+02 -4.9970668E+02  6.3557739E+02  1.5102457E-06  0.0000000E+00  1.0000000E+00
 13  1  5  5   0   0 -1.0186717E+01  2.0098185E+01 -6.2431720E+00  2.3381262E+01  0.0000000E+00  0.0000000E+00  1.0000000E+00
</event>
<event>
9 100 1.0000000E+00 1.0000000E+03 7.8125000E-03 0.0000000E+00
 21 -1  0  0 501 502  0.0000000E+00  0.0000000E+00  5.6157377E+02  5.6157377E+02  0.0000000E+00  0.0000000E+00  1.0000000E+00
 21 -1  0  0 502 501  0.0000000E+00  0.0000000E+00 -4.8252858E+02  4.8252858E+02  0.0000000E+00  0.0000000E+00  1.0000000E+00
 39  2  1  2   0   0 -5.6843419E-14 -2.8421709E-13  7.9045182E+01  1.0441024E+03  1.0411059E+03  0.0000000E+00  1.0000000E+00
 23  2  3  3   0   0 -1.2183597E+02 -4.3030812E+02  2.9216974E+02  5.4213087E+02  9.2377696E+01  0.0000000E+00  1.0000000E+00
 23  2  3  3   0   0  1.2183597E+02  4.3030812E+02 -2.1312456E+02  5.0197148E+02  8.0896238E+01  0.0000000E+00  1.0000000E+00
-11  1  4  4   0   0 -2.6402663E+01 -2.2263687E+02  1.0927308E+02  2.4940906E+02  1.4016093E-05  0.0000000E+00  1.0000000E+00
 11  1  4  4   0   0 -9.5433309E+01 -2.0767125E+02  1.8289666E+02  2.9272181E+02  8.7405695E-06  0.0000000E+00  1.0000000E+00
-13  1  5  5   0   0  1.1179677E+02  4.2888156E+02 -2.0249267E+02  4.8727938E+02  1.6388568E-06  0.0000000E+00  1.0000000E+00
 13  1  5  5   0   0  1.0039204E+01  1.4265628E+00 -1.0631892E+01  1.4692101E+01  1.8094698E-05  0.0000000E+00  1.0000000E+00
</event>
<event>
9 100 1.0000000E+00 1.0000000E+03 7.8125000E-03 0.0000000E+00
 21 -1  0  0 501 502  0.0000000E+00  0.0000000E+00  3.1989849E+03  3.1989849E+03  0.0000000E+00  0.0000000E+00  1.0000000E+00
 21 -1  0  0 502 501  0.0000000E+00  0.0000000E+00 -7.6254969E+01  7.6254969E+01  0.0000000E+00  0.0000000E+00  1.0000000E+00
 39  2  1  2   0   0  1.4551915E-11 -4.4053650E-12  3.1227299E+03  3.2752398E+03  9.8780259E+02  0.0000000E+00  1.0000000E+00
 23  2  3  3   0   0  3.6777741E+02 -1.1103954E+02  2.5433943E+03  2.5741712E+03  9.9562265E+01  0.0000000E+00  1.0000000E+00
 23  2  3  3   0   0 -3.6777741E+02  1.1103954E+02  5.7933556E+02  7.0106863E+02  9.0980901E+01  0.0000000E+00  1.0000000E+00
-11  1  4  4   0   0  1.3939349E+02  5.7513012E+00  9.7756193E+02  9.8746693E+02  2.1579186E-05  0.0000000E+00  1.0000000E+00
 11  1  4  4   0   0  2.2838392E+02 -1.1679085E+02  1.5658324E+03  1.5867043E+03  3.2368780E-05  0.0000000E+00  1.0000000E+00
-13  1  5  5   0   0 -3.2119967E+02  9.4023031E+01  4.3761803E+02  5.5092568E+02  1.0956884E-05  0.0000000E+00  1.0000000E+00
 13  1  5  5   0   0 -4.6577737E+01  1.7016513E+01  1.4171753E+02  1.5014295E+02  3.4119690E-05  0.0000000E+00  1.0000000E+00
</event>
<event>
9 100 1.0000000E+00 1.0000000E+03 7.8125000E-03 0.0000000E+00
 21 -1  0  0 501 502  0.0000000E+00  0.0000000E+00  2.7471949E+02  2.7471949E+02  0.0000000E+00  0.0000000E+00  1.0000000E+00
 21 -1  0  0 502 501  0.0000000E+00  0.0000000E+00 -9.0839905E+02  9.0839905E+02  0.0000000E+00  0.0000000E+00  1.0000000E+00
 39  2  1  2   0   0 -1.1084467E-12 -1.5631940E-13 -6.3367956E+02  1.1831185E+03  9.9910945E+02  0.0000000E+00  1.0000000E+00
 23  2  3  3   0   0  1.3981726E+02  1.9675941E+01  2.4052915E+02  2.9279803E+02  8.9108944E+01  0.0000000E+00  1.0000000E+00
 23  2  3  3   0   0 -1.3981726E+02 -1.9675941E+01 -8.7420871E+02  8.9032051E+02  9.2161441E+01  0.0000000E+00  1.0000000E+00
-11  1  4  4   0   0  9.6098235E+01 -4.4749583E+00  2.1744451E+02  2.3777512E+02  2.5898887E-06  0.0000000E+00  1.0000000E+00
 11  1  4  4   0   0  4.3719030E+01  2.4150899E+01  2.3084646E+01  5.5022908E+01  7.6293945E-06  0.0000000E+00  1.0000000E+00
-13  1  5  5   0   0 -6.6779938E+01  8.4019614E+00 -6.3684456E+02  6.4039140E+02  4.6720309E-06  0.0000000E+00  1.0000000E+00
 13  1  5  5   0   0 -7.3037327E+01 -2.8077903E+01 -2.3736416E+02  2.4992912E+02  1.5258789E-05  0.0000000E+00  1.0000000E+00
</event>
<event>
9 100 1.0000000E+00 1.0000000E+03 7.8125000E-03 0.0000000E+00
 21 -1  0  0 501 502  0.0000000E+00  0.0000000E+00  5.5699876E+02  5.5699876E+02  0.0000000E+00  0.0000000E+00  1.0000000E+00
 21 -1  0  0 502 501  0.0000000E+00  0.0000000E+00 -4.4901534E+02  4.4901534E+02  0.0000000E+00  0.0000000E+00  1.0000000E+00
 39  2  1  2   0   0 -5.1159077E-13 -2.5579538E-13  1.0798342E+02  1.0060141E+03  1.0002020E+03  0.0000000E+00  1.0000000E+00
 23  2  3  3   0   0  4.1425258E+02  2.1234836E+02 -1.0527884E+02  4.8582715E+02  9.0814992E+01  0.0000000E+00  1.0000000E+00
 23  2  3  3   0   0 -4.1425258E+02 -2.1234836E+02  2.1326226E+02  5.2018696E+02  9.1742328E+01  0.0000000E+00  1.0000000E+00
-11  1  4  4   0   0  9.6158898E+01  8.6653070E+01 -5.5693676E+00  1.2956198E+02  7.5092391E-06  0.0000000E+00  1.0000000E+00
 11  1  4  4   0   0  3.1809368E+02  1.2569529E+02 -9.9709470E+01  3.5626517E+02  3.1279663E-06  0.0000000E+00  1.0000000E+00
-13  1  5  5   0   0 -4.8031213E+01 -2.6236069E+01  6.1312980E+01  8.2186436E+01  1.0446979E-05  0.0000000E+00  1.0000000E+00
 13  1  5  5   0   0 -3.6622136E+02 -1.8611229E+02  1.5194928E+02  4.3800052E+02  6.7434958E-07  0.0000000E+00  1.0000000E+00
</event>
<event>
9 100 1.0000000E+00 1.0000000E+03 7.8125000E-03 0.0000000E+00
 21 -1  0  0 501 502  0.0000000E+00  0.0000000E+00  1.9766774E+02  1.9766774E+02  0.0000000E+00  0.0000000E+00  1.0000000E+00
 21 -1  0  0 502 501  0.0000000E+00  0.0000000E+00 -1.2680519E+03  1.2680519E+03  0.0000000E+00  0.0000000E+00  1.0000000E+00
 39  2  1  2   0   0 -6.5369932E-13  1.0800250E-12 -1.0703841E+03  1.4657196E+03  1.0013050E+03  0.0000000E+00  1.0000000E+00
 23  2  3  3   0   0 -1.7948059E+02  2.8262671E+02 -1.0635483E+03  1.1188530E+03  9.2767516E+01  0.0000000E+00  1.0000000E+00
 23  2  3  3   0   0  1.7948059E+02 -2.8262671E+02 -6.8357916E+00  3.4686662E+02  9.0435534E+01  0.0000000E+00  1.0000000E+00
-11  1  4  4   0   0 -6.3181641E+01  8.5016123E+01 -2.1220292E+02  2.3717027E+02  3.4119690E-05  0.0000000E+00  1.0000000E+00
 11  1  4  4   0   0 -1.1629895E+02  1.9761059E+02 -8.5134542E+02  8.8168272E+02  1.0446979E-05  0.0000000E+00  1.0000000E+00
-13  1  5  5   0   0  1.8921750E+02 -2.7033500E+02 -1.2449852E+01  3.3021095E+02  3.1590462E-06  0.0000000E+00  1.0000000E+00
 13  1  5  5   0   0 -9.7369123E+00 -1.2291710E+01  5.6140601E+00  1.6655668E+01  1.7871059E-05  0.0000000E+00  1.0000000E+00
</event>
<event>
9 100 1.0000000E+00 1.0000000E+03 7.8125000E-03 0.0000000E+00
 21 -1  0  0 501 502  0.0000000E+00  0.0000000E+00  1.3983781E+03  1.3983781E+03  0.0000000E+00  0.0000000E+00  1.0000000E+00
 21 -1  0  0 502 501  0.0000000E+00  0.0000000E+00 -1.7854315E+02  1.7854315E+02  0.0000000E+00  0.0000000E+00  1.0000000E+00
 39  2  1  2   0   0 -2.9558578E-12  1.5631940E-13  1.2198349E+03  1.5769213E+03  9.9934145E+02  0.0000000E+00  1.0000000E+00
 23  2  3  3   0   0 -3.1849790E+02  1.6004213E+01  1.1995636E+03  1.2457094E+03  1.0555505E+02  0.0000000E+00  1.0000000E+00
 23  2  3  3   0   0  3.1849790E+02 -1.6004213E+01  2.0271320E+01  3.3121189E+02  8.7139795E+01  0.0000000E+00  1.0000000E+00
-11  1  4  4   0   0 -2.5637524E+02  2.1859981E+01  1.0866871E+03  1.1167341E+03  7.5092391E-06  0.0000000E+00  1.0000000E+00
 11  1  4  4   0   0 -6.2122662E+01 -5.8557677E+00  1.1287649E+02  1.2897526E+02  4.0370961E-05  0.0000000E+00  1.0000000E+00
-13  1  5  5   0   0  9.9003058E+01 -3.4187498E+01  3.5105380E+01  1.1046619E+02  1.3323738E-05  0.0000000E+00  1.0000000E+00
 13  1  5  5   0   0  2.1949484E+02  1.8183284E+01 -1.4834060E+01  2.2074571E+02  7.8207109E-06  0.0000000E+00  1.0000000E+00
</event>
<event>
9 100 1.0000000E+00 1.0000000E+03 7.8125000E-03 0.0000000E+00
 21 -1  0  0 501 502  0.0000000E+00  0.0000000E+00  8.5573619E+02  8.5573619E+02  0.0000000E+00  0.0000000E+00  1.0000000E+00
 21 -1  0  0 502 501  0.0000000E+00  0.0000000E+00 -2.8022881E+02  2.8022881E+02  0.0000000E+00  0.0000000E+00  1.0000000E+00
 39  2  1  2   0   0  2.8421709E-14 -8.5265128E-14  5.7550738E+02  1.1359650E+03  9.7939151E+02  0.0000000E+00  1.0000000E+00
 23  2  3  3   0   0  1.2697763E+02 -1.6159679E+02 -2.1752367E+02  3.1168403E+02  8.7140956E+01  0.0000000E+00  1.0000000E+00
 23  2  3  3   0   0 -1.2697763E+02  1.6159679E+02  7.9303105E+02  8.2428097E+02  9.1126468E+01  0.0000000E+00  1.0000000E+00
-11  1  4  4   0   0  6.5177503E+01 -1.3908992E+02 -1.2431477E+02  1.9760636E+02  5.5608291E-06  0.0000000E+00  1.0000000E+00
 11  1  4  4   0   0  6.1800125E+01 -2.2506869E+01 -9.3208902E+01  1.1407767E+02  5.5608291E-06  0.0000000E+00  1.0000000E+00
-13  1  5  5   0   0 -6.2226882E+00 -1.1891350E+01  4.9702992E+01  5.1483137E+01  1.0789593E-05  0.0000000E+00  1.0000000E+00
 13  1  5  5   0   0 -1.2075494E+02  1.7348814E+02  7.4332806E+02  7.7279783E+02  1.5078915E-06  0.0000000E+00  1.0000000E+00
</event>
<event>
9 100 1.0000000E+00 1.0000000E+03 7.8125000E-03 0.0000000E+00
 21 -1  0  0 501 502  0.0000000E+00  0.0000000E+00  1.4240770E+03  1.4240770E+03  0.0000000E+00  0.0000000E+00  1.0000000E+00
 21 -1  0  0 502 501  0.0000000E+00  0.0000000E+00 -1.7578279E+02  1.7578279E+02  0.0000000E+00  0.0000000E+00  1.0000000E+00
 39  2  1  2   0   0 -7.1054274E-15  6.9633188E-13  1.2482943E+03  1.5998598E+03  1.0006562E+03  0.0000000E+00  1.0000000E+00
 23  2  3  3   0   0 -7.2290015E-01  6.0011097E+01  1.4040283E+03  1.4081811E+03  8.9870469E+01  0.0000000E+00  1.0000000E+00
 23  2  3  3   0   0  7.2290015E-01 -6.0011097E+01 -1.5573404E+02  1.9167872E+02  9.4264444E+01  0.0000000E+00  1.0000000E+00
-11  1  4  4   0   0 -2.3210640E+01  4.8806732E+01  1.3014178E+03  1.3025395E+03  5.3947966E-06  0.0000000E+00  1.0000000E+00
 11  1  4  4   0   0  2.2487739E+01  1.1204365E+01  1.0261051E+02  1.0564163E+02  2.6428998E-05  0.0000000E+00  1.0000000E+00
-13  1  5  5   0   0  2.6817221E+01 -5.9006691E+01 -1.5207356E+02  1.6530977E+02  2.4332278E-06  0.0000000E+00  1.0000000E+00
 13  1  5  5   0   0 -2.6094321E+01 -1.0044064E+00 -3.6604847E+00  2.6368951E+01  7.1366451E-06  0.0000000E+00  1.0000000E+00
</event>
<event>
9 100 1.0000000E+00 1.0000000E+03 7.8125000E-03 0.0000000E+00
 21 -1  0  0 501 502  0.0000000E+00  0.0000000E+00  1.2635690E+02  1.2635690E+02  0.0000000E+00  0.0000000E+00  1.0000000E+00
 21 -1  0  0 502 501  0.0000000E+00  0.0000000E+00 -1.9581525E+03  1.9581525E+03  0.0000000E+00  0.0000000E+00  1.0000000E+00
 39  2  1  2   0   0 -2.9558578E-12  4.6043169E-12 -1.8317956E+03  2.0845094E+03  9.9483884E+02  0.0000000E+00  1.0000000E+00
 23  2  3  3   0   0 -2.1930377E+02  3.4179033E+02 -3.4563992E+02  5.4094786E+02  9.0790222E+01  0.0000000E+00  1.0000000E+00
 23  2  3  3   0   0  2.1930377E+02 -3.4179033E+02 -1.4861557E+03  1.5435615E+03  9.4914403E+01  0.0000000E+00  1.0000000E+00
-11  1  4  4   0   0 -7.0371654E+01  1.5604389E+02 -9.7207579E+01  1.9685319E+02  1.0789593E-05  0.0000000E+00  1.0000000E+00
 11  1  4  4   0   0 -1.4893212E+02  1.8574643E+02 -2.4843234E+02  3.4409467E+02  8.5299224E-06  0.0000000E+00  1.0000000E+00
-13  1  5  5   0   0  4.8510767E+01 -1.4781090E+02 -4.7124003E+02  4.9625450E+02  1.5258789E-05  0.0000000E+00  1.0000000E+00
 13  1  5  5   0   0  1.7079300E+02 -1.9397943E+02 -1.0149157E+03  1.0473070E+03  0.0000000E+00  0.0000000E+00  1.0000000E+00
</event>
<event>
9 100 1.0000000E+00 1.0000000E+03 7.8125000E-03 0.0000000E+00
 21 -1  0  0 501 502  0.0000000E+00  0.0000000E+00  9.2653884E+02  9.2653884E+02  0.0000000E+00  0.0000000E+00  1.0000000E+00
 21 -1  0  0 502 501  0.0000000E+00  0.0000000E+00 -2.6927708E+02  2.6927708E+02  0.0000000E+00  0.0000000E+00  1.0000000E+00
 39  2  1  2   0   0 -7.3896445E-13 -1.1368684E-13  6.5726176E+02  1.1958159E+03  9.9899084E+02  0.0000000E+00  1.0000000E+00
 23  2  3  3   0   0 -3.3926043E+02 -6.5497702E+01  7.4615856E+02  8.2741259E+02  9.2040273E+01  0.0000000E+00  1.0000000E+00
 23  2  3  3   0   0  3.3926043E+02  6.5497702E+01 -8.8896799E+01  3.6840333E+02  9.1819290E+01  0.0000000E+00  1.0000000E+00
-11  1  4  4   0   0 -1.2344442E+02 -6.1850252E+01  3.5034620E+02  3.7657196E+02  1.3214499E-05  0.0000000E+00  1.0000000E+00
 11  1  4  4   0   0 -2.1581601E+02 -3.6474501E+00  3.9581236E+02  4.5084063E+02  1.0789593E-05  0.0000000E+00  1.0000000E+00
-13  1  5  5   0   0  2.8654552E+02  8.2508157E+01 -9.4313921E+01  3.1274758E+02  2.1802594E-06  0.0000000E+00  1.0000000E+00
 13  1  5  5   0   0  5.2714910E+01 -1.7010455E+01  5.4171222E+00  5.5655751E+01  7.9790118E-06  0.0000000E+00  1.0000000E+00
</event>
<event>
9 100 1.0000000E+00 1.0000000E+03 7.8125000E-03 0.0000000E+00
 21 -1  0  0 501 502  0.0000000E+00  0.0000000E+00  1.2671990E+03  1.2671990E+03  0.0000000E+00  0.0000000E+00  1.0000000E+00
 21 -1  0  0 502 501  0.0000000E+00  0.0000000E+00 -1.9671895E+02  1.9671895E+02  0.0000000E+00  0.0000000E+00  1.0000000E+00
 39  2  1  2   0   0 -4.8316906E-13  1.1937118E-12  1.0704800E+03  1.4639179E+03  9.9856307E+02  0.0000000E+00  1.0000000E+00
 23  2  3  3   0   0  1.2838640E+02 -2.9078265E+02 -1.2664648E+01  3.3135241E+02  9.2716831E+01  0.0000000E+00  1.0000000E+00
 23  2  3  3   0   0 -1.2838640E+02  2.9078265E+02  1.0831447E+03  1.1325655E+03  9.2003473E+01  0.0000000E+00  1.0000000E+00
-11  1  4  4   0   0  1.5574917E+01 -7.3172601E+00  1.7785966E+01  2.4747948E+01  6.4328850E-06  0.0000000E+00  1.0000000E+00
 11  1  4  4   0   0  1.1281148E+02 -2.8346539E+02 -3.0450614E+01  3.0660446E+02  1.2615925E-06  0.0000000E+00  1.0000000E+00
-13  1  5  5   0   0  3.4022839E+00  8.3612329E+01  3.2794966E+02  3.3845764E+02  2.1579186E-05  0.0000000E+00  1.0000000E+00
 13  1  5  5   0   0 -1.3178868E+02  2.0717032E+02  7.5519503E+02  7.9410788E+02  0.0000000E+00  0.0000000E+00  1.0000000E+00
</event>
<event>
9 100 1.0000000E+00 1.0000000E+03 7.8125000E-03 0.0000000E+00
 21 -1  0  0 501 502  0.0000000E+00  0.0000000E+00  2.6838000E+02  2.6838000E+02  0.0000000E+00  0.0000000E+00  1.0000000E+00
 21 -1  0  0 502 501  0.0000000E+00  0.0000000E+00 -9.3186838E+02  9.3186838E+02  0.0000000E+00  0.0000000E+00  1.0000000E+00
 39  2  1  2   0   0 -1.4779289E-12 -1.0942358E-12 -6.6348837E+02  1.2002484E+03  1.0001897E+03  0.0000000E+00  1.0000000E+00
 23  2  3  3   0   0 -1.6524661E+02 -1.2416965E+02 -8.6729829E+02  8.9622336E+02  9.1024411E+01  0.0000000E+00  1.0000000E+00
 23  2  3  3   0   0  1.6524661E+02  1.2416965E+02  2.0380991E+02  3.0402502E+02  9.0378037E+01  0.0000000E+00  1.0000000E+00
-11  1  4  4   0   0  8.3455476E+00 -9.1964547E+00 -1.8653551E+01  2.2409326E+01  1.5258789E-05  0.0000000E+00  1.0000000E+00
 11  1  4  4   0   0 -1.7359215E+02 -1.1497319E+02 -8.4864474E+02  8.7381403E+02  1.6858739E-06  0.0000000E+00  1.0000000E+00
-13  1  5  5   0   0  1.7205784E+02  1.3011551E+02  1.8967876E+02  2.8724898E+02  8.2590618E-07  0.0000000E+00  1.0000000E+00
 13  1  5  5   0   0 -6.8112291E+00 -5.9458581E+00  1.4131153E+01  1.6776041E+01  0.0000000E+00  0.0000000E+00  1.0000000E+00
</event>
<event>
9 100 1.0000000E+00 1.0000000E+03 7.8125000E-03 0.0000000E+00
 21 -1  0  0 501 502  0.0000000E+00  0.0000000E+00  1.5265298E+02  1.5265298E+02  0.0000000E+00  0.0000000E+00  1.0000000E+00
 21 -1  0  0 502 501  0.0000000E+00  0.0000000E+00 -1.6487314E+03  1.6487314E+03  0.0000000E+00  0.0000000E+00  1.0000000E+00
 39  2  1  2   0   0 -4.0927262E-12  2.7853275E-12 -1.4960784E+03  1.8013844E+03  1.0033619E+03  0.0000000E+00  1.0000000E+00
 23  2  3  3   0   0  3.0594532E+02 -2.0942556E+02 -1.6365387E+02  4.1530790E+02  9.0754971E+01  0.0000000E+00  1.0000000E+00
 23  2  3  3   0   0 -3.0594532E+02  2.0942556E+02 -1.3324245E+03  1.3860765E+03  9.1603567E+01  0.0000000E+00  1.0000000E+00
-11  1  4  4   0   0  1.6537596E+02 -1.0160551E+02 -1.3357033E+02  2.3561392E+02  8.5365838E-06  0.0000000E+00  1.0000000E+00
 11  1  4  4   0   0  1.4056936E+02 -1.0782004E+02 -3.0083535E+01  1.7969398E+02  1.1284027E-05  0.0000000E+00  1.0000000E+00
-13  1  5  5   0   0 -1.9992111E+02  1.0092526E+02 -6.6753924E+02  7.0410439E+02  7.6293945E-06  0.0000000E+00  1.0000000E+00
 13  1  5  5   0   0 -1.0602421E+02  1.0850030E+02 -6.6488529E+02  6.8197206E+02  2.1579186E-05  0.0000000E+00  1.0000000E+00
</event>
<event>
9 100 1.0000000E+00 1.0000000E+03 7.8125000E-03 0.0000000E+00
 21 -1  0  0 501 502  0.0000000E+00  0.0000000E+00  1.2524322E+03  1.2524322E+03  0.0000000E+00  0.0000000E+00  1.0000000E+00
 21 -1  0  0 502 501  0.0000000E+00  0.0000000E+00 -1.9732826E+02  1.9732826E+02  0.0000000E+00  0.0000000E+00  1.0000000E+00
 39  2  1  2   0   0  2.5579538E-13 -1.0231815E-12  1.0551040E+03  1.4497605E+03  9.9426409E+02  0.0000000E+00  1.0000000E+00
 23  2  3  3   0   0  4.9261330E+01 -2.0645021E+02 -1.1432182E+02  2.5731266E+02  8.9955311E+01  0.0000000E+00  1.0000000E+00
 23  2  3  3   0   0 -4.9261330E+01  2.0645021E+02  1.1694258E+03  1.1924478E+03  9.6575309E+01  0.0000000E+00  1.0000000E+00
-11  1  4  4   0   0 -2.0652988E+01 -9.3855654E+01 -6.4416255E+01  1.1569306E+02  1.0598235E-05  0.0000000E+00  1.0000000E+00
 11  1  4  4   0   0  6.9914318E+01 -1.1259456E+02 -4.9905560E+01  1.4161960E+02  9.0974732E-06  0.0000000E+00  1.0000000E+00
-13  1  5  5   0   0 -4.6299453E+00 -1.0606253E+01  5.5217090E+01  5.6416806E+01  3.7376247E-05  0.0000000E+00  1.0000000E+00
 13  1  5  5   0   0 -4.4631385E+01  2.1705646E+02  1.1142087E+03  1.1360310E+03  3.1629799E-06  0.0000000E+00  1.0000000E+00
</event>
<event>
9 100 1.0000000E+00 1.0000000E+03 7.8125000E-03 0.0000000E+00
 21 -1  0  0 501 502  0.0000000E+00  0.0000000E+00  2.6449569E+03  2.6449569E+03  0.0000000E+00  0.0000000E+00  1.0000000E+00
 21 -1  0  0 502 501  0.0000000E+00  0.0000000E+00 -9.3948670E+01  9.3948670E+01  0.0000000E+00  0.0000000E+00  1.0000000E+00
 39  2  1  2   0   0  2.8563818E-12  1.3500312E-13  2.5510082E+03  2.7389056E+03  9.9697579E+02  0.0000000E+00  1.0000000E+00
 23  2  3  3   0   0 -1.0926648E+02 -5.0082276E+00 -3.6882479E+01  1.4678029E+02  9.0663612E+01  0.0000000E+00  1.0000000E+00
 23  2  3  3   0   0  1.0926648E+02  5.0082276E+00  2.5878907E+03  2.5921253E+03  9.9854383E+01  0.0000000E+00  1.0000000E+00
-11  1  4  4   0   0 -2.0557225E+01  3.7587485E+01 -4.0101135E+00  4.3029055E+01  3.9320999E-06  0.0000000E+00  1.0000000E+00
 11  1  4  4   0   0 -8.8709254E+01 -4.2595713E+01 -3.2872365E+01  1.0375124E+02  2.5442178E-06  0.0000000E+00  1.0000000E+00
-13  1  5  5   0   0  9.8239486E+01 -1.6204139E+01  2.4603119E+03  2.4623258E+03  7.0080464E-06  0.0000000E+00  1.0000000E+00
 13  1  5  5   0   0  1.1026992E+01  2.1212367E+01  1.2757877E+02  1.2979947E+02  0.0000000E+00  0.0000000E+00  1.0000000E+00
</event>
<event>
9 100 1.0000000E+00 1.0000000E+03 7.8125000E-03 0.0000000E+00
 21 -1  0  0 501 502  0.0000000E+00  0.0000000E+00  1.8336402E+03  1.8336402E+03  0.0000000E+00  0.0000000E+00  1.0000000E+00
 21 -1  0  0 502 501  0.0000000E+00  0.0000000E+00 -1.1674149E+02  1.1674149E+02  0.0000000E+00  0.0000000E+00  1.0000000E+00
 39  2  1  2   0   0  1.4495072E-12 -2.6290081E-13  1.7168987E+03  1.9503817E+03  9.2533647E+02  0.0000000E+00  1.0000000E+00
 23  2  3  3   0   0 -1.7628852E+02  3.2895407E+01  1.7377354E+03  1.7483592E+03  6.9827306E+01  0.0000000E+00  1.0000000E+00
 23  2  3  3   0   0  1.7628852E+02 -3.2895407E+01 -2.0836687E+01  2.0202249E+02  9.0659640E+01  0.0000000E+00  1.0000000E+00
-11  1  4  4   0   0 -2.9290510E+00 -1.1905660E+01  1.6744363E+02  1.6789191E+02  3.0517578E-05  0.0000000E+00  1.0000000E+00
 11  1  4  4   0   0 -1.7335946E+02  4.4801067E+01  1.5702918E+03  1.5804673E+03  5.0463701E-06  0.0000000E+00  1.0000000E+00
-13  1  5  5   0   0  1.7342500E+02 -4.1621698E+01 -3.8186408E+01  1.8239188E+02  3.2863733E-06  0.0000000E+00  1.0000000E+00
 13  1  5  5   0   0  2.8635112E+00  8.7262916E+00  1.7349720E+01  1.9630605E+01  1.1844389E-05  0.0000000E+00  1.0000000E+00
</event>
<event>
9 100 1.0000000E+00 1.0000000E+03 7.8125000E-03 0.0000000E+00
 21 -1  0  0 501 502  0.0000000E+00  0.0000000E+00  4.2963184E+02  4.2963184E+02  0.0000000E+00  0.0000000E+00  1.0000000E+00
 21 -1  0  0 502 501  0.0000000E+00  0.0000000E+00 -5.7510419E+02  5.7510419E+02  0.0000000E+00  0.0000000E+00  1.0000000E+00
 39  2  1  2   0   0 -3.9790393E-13 -4.8316906E-13 -1.4547234E+02  1.0047360E+03  9.9414903E+02  0.0000000E+00  1.0000000E+00
 23  2  3  3   0   0 -1.7281921E+02 -2.3550969E+02 -4.6879748E+02  5.5964333E+02  8.9990483E+01  0.0000000E+00  1.0000000E+00
 23  2  3  3   0   0  1.7281921E+02  2.3550969E+02  3.2332514E+02  4.4509269E+02  9.0758291E+01  0.0000000E+00  1.0000000E+00
-11  1  4  4   0   0 -1.0162423E+02 -6.7355383E+01 -1.6438573E+02  2.0466289E+02  6.6072495E-06  0.0000000E+00  1.0000000E+00
 11  1  4  4   0   0 -7.1194973E+01 -1.6815431E+02 -3.0441176E+02  3.5498044E+02  3.8146973E-06  0.0000000E+00  1.0000000E+00
-13  1  5  5   0   0  1.9176563E-01  1.7706725E+01  5.8807969E+01  6.1416139E+01  1.0789593E-05  0.0000000E+00  1.0000000E+00
 13  1  5  5   0   0  1.7262744E+02  2.1780297E+02  2.6451717E+02  3.8367656E+02  1.6518124E-06  0.0000000E+00  1.0000000E+00
</event>
<event>
9 100 1.0000000E+00 1.0000000E+03 7.8125000E-03 0.0000000E+00
 21 -1  0  0 501 502  0.0000000E+00  0.0000000E+00  1.8414816E+02  1.8414816E+02  0.0000000E+00  0.0000000E+00  1.0000000E+00
 21 -1  0  0 502 501  0.0000000E+00  0.0000000E+00 -1.4591909E+03  1.4591909E+03  0.0000000E+00  0.0000000E+00  1.0000000E+00
 39  2  1  2   0   0 -1.3642421E-12  7.1622708E-12 -1.2750428E+03  1.6433391E+03  1.0367397E+03  0.0000000E+00  1.0000000E+00
 23  2  3  3   0   0  8.8148041E+01 -4.5914864E+02 -3.1236290E+02  5.6928465E+02  8.9033027E+01  0.0000000E+00  1.0000000E+00
 23  2  3  3   0   0 -8.8148041E+01  4.5914864E+02 -9.6267985E+02  1.0740544E+03  9.0845127E+01  0.0000000E+00  1.0000000E+00
-11  1  4  4   0   0  6.7414965E+01 -1.6348865E+02 -8.7833757E+01  1.9745401E+02  1.9073486E-05  0.0000000E+00  1.0000000E+00
 11  1  4  4   0   0  2.0733076E+01 -2.9565999E+02 -2.2452914E+02  3.7183064E+02  1.0047582E-05  0.0000000E+00  1.0000000E+00
-13  1  5  5   0   0 -4.3785145E+01  3.0905685E+02 -7.2655765E+02  7.9077133E+02  8.9462581E-06  0.0000000E+00  1.0000000E+00
 13  1  5  5   0   0 -4.4362896E+01  1.5009179E+02 -2.3612220E+02  2.8328308E+02  2.4126264E-05  0.0000000E+00  1.0000000E+00
</event>
<event>
9 100 1.0000000E+00 1.0000000E+03 7.8125000E-03 0.0000000E+00
 21 -1  0  0 501 502  0.0000000E+00  0.0000000E+00  4.0579724E+02  4.0579724E+02  0.0000000E+00  0.0000000E+00  1.0000000E+00
 21 -1  0  0 502 501  0.0000000E+00  0.0000000E+00 -6.3923952E+02  6.3923952E+02  0.0000000E+00  0.0000000E+00  1.0000000E+00
 39  2  1  2   0   0 -6.3948846E-13 -2.5011104E-12 -2.3344228E+02  1.0450368E+03  1.0186297E+03  0.0000000E+00  1.0000000E+00
 23  2  3  3   0   0  1.1860565E+02  4.5293884E+02  6.5824616E+01  4.8176201E+02  9.2416765E+01  0.0000000E+00  1.0000000E+00
 23  2  3  3   0   0 -1.1860565E+02 -4.5293884E+02 -2.9926689E+02  5.6327474E+02  9.2178449E+01  0.0000000E+00  1.0000000E+00
-11  1  4  4   0   0  1.2549879E+02  4.0115863E+02  7.9457628E+01  4.2777530E+02  3.4426520E-06  0.0000000E+00  1.0000000E+00
 11  1  4  4   0   0 -6.8931394E+00  5.1780209E+01 -1.3633013E+01  5.3986706E+01  1.1601949E-05  0.0000000E+00  1.0000000E+00
-13  1  5  5   0   0 -1.0886308E+02 -2.3589908E+02 -1.6958793E+02  3.1025733E+02  5.0463701E-06  0.0000000E+00  1.0000000E+00
 13  1  5  5   0   0 -9.7425695E+00 -2.1703976E+02 -1.2967897E+02  2.5301741E+02  4.6720309E-06  0.0000000E+00  1.0000000E+00
</event>
<event>
9 100 1.0000000E+00 1.0000000E+03 7.8125000E-03 0.0000000E+00
 21 -1  0  0 501 502  0.0000000E+00  0.0000000E+00  2.2904458E+03  2.2904458E+03  0.0000000E+00  0.0000000E+00  1.0000000E+00
 21 -1  0  0 502 501  0.0000000E+00  0.0000000E+00 -1.0893900E+02  1.0893900E+02  0.0000000E+00  0.0000000E+00  1.0000000E+00
 39  2  1  2   0   0 -2.9132252E-12 -9.4928509E-12  2.1815068E+03  2.3993848E+03  9.9903727E+02  0.0000000E+00  1.0000000E+00
 23  2  3  3   0   0  1.1659972E+02  3.8210042E+02  4.0568373E+02  5.7670838E+02  9.1744440E+01  0.0000000E+00  1.0000000E+00
 23  2  3  3   0   0 -1.1659972E+02 -3.8210042E+02  1.7758231E+03  1.8226764E+03  9.4897284E+01  0.0000000E+00  1.0000000E+00
-11  1  4  4   0   0  1.0531289E+02  2.6451806E+02  2.3517231E+02  3.6927852E+02  1.5258789E-05  0.0000000E+00  1.0000000E+00
 11  1  4  4   0   0  1.1286839E+01  1.1758236E+02  1.7051142E+02  2.0742986E+02  2.5447205E-05  0.0000000E+00  1.0000000E+00
-13  1  5  5   0   0 -8.6901020E+01 -3.3739838E+02  1.3833354E+03  1.4265365E+03  1.6184390E-05  0.0000000E+00  1.0000000E+00
 13  1  5  5   0   0 -2.9698704E+01 -4.4702036E+01  3.9248770E+02  3.9613997E+02  4.3158373E-05  0.0000000E+00  1.0000000E+00
</event>
<event>
9 100 1.0000000E+00 1.0000000E+03 7.8125000E-03 0.0000000E+00
 21 -1  0  0 501 502  0.0000000E+00  0.0000000E+00  8.1634934E+02  8.1634934E+02  0.0000000E+00  0.0000000E+00  1.0000000E+00
 21 -1  0  0 502 501  0.0000000E+00  0.0000000E+00 -3.0672545E+02  3.0672545E+02  0.0000000E+00  0.0000000E+00  1.0000000E+00
 39  2  1  2   0   0  7.3896445E-13  2.1316282E-13  5.0962388E+02  1.1230748E+03  1.0007899E+03  0.0000000E+00  1.0000000E+00
 23  2  3  3   0   0 -3.9702077E+02 -1.1412240E+02 -4.4926768E+01  4.2561777E+02  9.2101342E+01  0.0000000E+00  1.0000000E+00
 23  2  3  3   0   0  3.9702077E+02  1.1412240E+02  5.5455065E+02  6.9745702E+02  9.0942076E+01  0.0000000E+00  1.0000000E+00
-11  1  4  4   0   0 -1.5475799E+02 -5.3797939E+01 -6.2456574E+01  1.7534274E+02  9.9280657E-06  0.0000000E+00  1.0000000E+00
 11  1  4  4   0   0 -2.4226278E+02 -6.0324460E+01  1.7529806E+01  2.5027502E+02  7.0404163E-06  0.0000000E+00  1.0000000E+00
-13  1  5  5   0   0  2.8089913E+02  8.6546648E+01  3.2142334E+02  4.3555437E+02  4.6720309E-06  0.0000000E+00  1.0000000E+00
 13  1  5  5   0   0  1.1612164E+02  2.7575751E+01  2.3312732E+02  2.6190266E+02  1.2651920E-05  0.0000000E+00  1.0000000E+00
</event>
<event>
9 100 1.0000000E+00 1.0000000E+03 7.8125000E-03 0.0000000E+00
 21 -1  0  0 501 502  0.0000000E+00  0.0000000E+00  1.3990534E+03  1.3990534E+03  0.0000000E+00  0.0000000E+00  1.0000000E+00
 21 -1  0  0 502 501  0.0000000E+00  0.0000000E+00 -1.7872353E+02  1.7872353E+02  0.0000000E+00  0.0000000E+00  1.0000000E+00
 39  2  1  2   0   0  3.1263880E-12 -1.9895197E-12  1.2203299E+03  1.5777770E+03  1.0000875E+03  0.0000000E+00  1.0000000E+00
 23  2  3  3   0   0  2.7259292E+02 -1.6590949E+02  1.2002596E+03  1.2452764E+03  9.0870828E+01  0.0000000E+00  1.0000000E+00
 23  2  3  3   0   0 -2.7259292E+02  1.6590949E+02  2.0070347E+01  3.3250054E+02  9.1219147E+01  0.0000000E+00  1.0000000E+00
-11  1  4  4   0   0  4.5324467E-01  1.3738005E+00 -1.3206575E+00  1.9587993E+00  3.0517578E-05  0.0000000E+00  1.0000000E+00
 11  1  4  4   0   0  2.7213967E+02 -1.6728329E+02  1.2015802E+03  1.2433176E+03  6.0031525E-07  0.0000000E+00  1.0000000E+00
-13  1  5  5   0   0 -1.6942605E+02  6.0165453E+01  3.7752384E+01  1.8371257E+02  5.9556942E-06  0.0000000E+00  1.0000000E+00
 13  1  5  5   0   0 -1.0316687E+02  1.0574404E+02 -1.7682037E+01  1.4878797E+02  2.2365645E-06  0.0000000E+00  1.0000000E+00
</event>
<event>
9 100 1.0000000E+00 1.0000000E+03 7.8125000E-03 0.0000000E+00
 21 -1  0  0 501 502  0.0000000E+00  0.0000000E+00  1.0264181E+03  1.0264181E+03  0.0000000E+00  0.0000000E+00  1.0000000E+00
 21 -1  0  0 502 501  0.0000000E+00  0.0000000E+00 -2.5078958E+02  2.5078958E+02  0.0000000E+00  0.0000000E+00  1.0000000E+00
 39  2  1  2   0   0  1.1368684E-12 -3.9790393E-13  7.7562850E+02  1.2772077E+03  1.0147216E+03  0.0000000E+00  1.0000000E+00
 23  2  3  3   0   0 -4.5200716E+02  1.3464706E+02  5.9401734E+02  7.6409549E+02  9.2439286E+01  0.0000000E+00  1.0000000E+00
 23  2  3  3   0   0  4.5200716E+02 -1.3464706E+02  1.8161116E+02  5.1311216E+02  8.8663285E+01  0.0000000E+00  1.0000000E+00
-11  1  4  4   0   0 -4.1549715E+02  1.0155147E+02  5.0034357E+02  6.5825092E+02  2.3360155E-06  0.0000000E+00  1.0000000E+00
 11  1  4  4   0   0 -3.6510004E+01  3.3095593E+01  9.3673769E+01  1.0584457E+02  1.2063132E-05  0.0000000E+00  1.0000000E+00
-13  1  5  5   0   0  4.2580768E+02 -1.4011233E+02  1.8717621E+02  4.8577627E+02  1.8640156E-06  0.0000000E+00  1.0000000E+00
 13  1  5  5   0   0  2.6199471E+01  5.4652697E+00 -5.5650458E+00  2.7335896E+01  8.0921949E-06  0.0000000E+00  1.0000000E+00
</event>
<event>
9 100 1.0000000E+00 1.0000000E+03 7.8125000E-03 0.0000000E+00
 21 -1  0  0 501 502  0.0000000E+00  0.0000000E+00  6.8651659E+02  6.8651659E+02  0.0000000E+00  0.0000000E+00  1.0000000E+00
 21 -1  0  0 502 501  0.0000000E+00  0.0000000E+00 -3.9857516E+02  3.9857516E+02  0.0000000E+00  0.0000000E+00  1.0000000E+00
 39  2  1  2   0   0 -1.9326762E-12 -1.9326762E-12  2.8794143E+02  1.0850918E+03  1.0461902E+03  0.0000000E+00  1.0000000E+00
 23  2  3  3   0   0 -3.0663869E+02 -2.9086494E+02 -1.6106159E+02  4.6179564E+02  9.3191621E+01  0.0000000E+00  1.0000000E+00
 23  2  3  3   0   0  3.0663869E+02  2.9086494E+02  4.4900302E+02  6.2329612E+02  9.0910087E+01  0.0000000E+00  1.0000000E+00
-11  1  4  4   0   0  3.1487790E+00 -7.8806695E-01  5.0871164E+00  6.0344521E+00  2.2888184E-05  0.0000000E+00  1.0000000E+00
 11  1  4  4   0   0 -3.0978746E+02 -2.9007688E+02 -1.6614870E+02  4.5576119E+02  2.0422747E-06  0.0000000E+00  1.0000000E+00
-13  1  5  5   0   0  1.0482269E+02  7.0173926E+01  8.4581427E+01  1.5187559E+02  1.0789593E-05  0.0000000E+00  1.0000000E+00
 13  1  5  5   0   0  2.0181599E+02  2.2069102E+02  3.6442159E+02  4.7142053E+02  3.1629799E-06  0.0000000E+00  1.0000000E+00
</event>
<event>
9 100 1.0000000E+00 1.0000000E+03 7.8125000E-03 0.0000000E+00
 21 -1  0  0 501 502  0.0000000E+00  0.0000000E+00  1.5327691E+03  1.5327691E+03  0.0000000E+00  0.0000000E+00  1.0000000E+00
 21 -1  0  0 502 501  0.0000000E+00  0.0000000E+00 -1.5739747E+02  1.5739747E+02  0.0000000E+00  0.0000000E+00  1.0000000E+00
 39  2  1  2   0   0 -8.5265128E-13  2.1316282E-13  1.3753716E+03  1.6901666E+03  9.8235225E+02  0.0000000E+00  1.0000000E+00
 23  2  3  3   0   0 -3.1354342E+02  7.6121600E+01  6.6234241E+01  3.3881182E+02  7.9388305E+01  0.0000000E+00  1.0000000E+00
 23  2  3  3   0   0  3.1354342E+02 -7.6121600E+01  1.3091374E+03  1.3513548E+03  9.0636656E+01  0.0000000E+00  1.0000000E+00
-11  1  4  4   0   0 -2.6585978E+02  4.1835294E+01  3.2510807E+01  2.7108775E+02  1.5814899E-06  0.0000000E+00  1.0000000E+00
 11  1  4  4   0   0 -4.7683636E+01  3.4286306E+01  3.3723434E+01  6.7724072E+01  5.8205393E-06  0.0000000E+00  1.0000000E+00
-13  1  5  5   0   0  3.0736465E+01 -9.9564105E+00  5.2958833E+01  6.2036267E+01  1.5258789E-05  0.0000000E+00  1.0000000E+00
 13  1  5  5   0   0  2.8280695E+02 -6.6165189E+01  1.2561786E+03  1.2893185E+03  2.7804145E-06  0.0000000E+00  1.0000000E+00
</event>
<event>
9 100 1.0000000E+00 1.0000000E+03 7.8125000E-03 0.0000000E+00
 21 -1  0  0 501 502  0.0000000E+00  0.0000000E+00  2.4123077E+02  2.4123077E+02  0.0000000E+00  0.0000000E+00  1.0000000E+00
 21 -1  0  0 502 501  0.0000000E+00  0.0000000E+00 -1.0632652E+03  1.0632652E+03  0.0000000E+00  0.0000000E+00  1.0000000E+00
 39  2  1  2   0   0  1.4779289E-12 -2.4442670E-12 -8.2203441E+02  1.3044959E+03  1.0129013E+03  0.0000000E+00  1.0000000E+00
 23  2  3  3   0   0 -2.5410318E+02  4.1061122E+02 -2.5146705E+02  5.5208022E+02  9.1580025E+01  0.0000000E+00  1.0000000E+00
 23  2  3  3   0   0  2.5410318E+02 -4.1061122E+02 -5.7056737E+02  7.5241573E+02  8.6094758E+01  0.0000000E+00  1.0000000E+00
-11  1  4  4   0   0 -1.8795677E+02  2.5530771E+02 -1.2343196E+02  3.4021350E+02  7.8641999E-06  0.0000000E+00  1.0000000E+00
 11  1  4  4   0   0 -6.6146402E+01  1.5530351E+02 -1.2803508E+02  2.1186672E+02  5.0463701E-06  0.0000000E+00  1.0000000E+00
-13  1  5  5   0   0  2.3077364E+02 -3.9573968E+02 -5.5818208E+02  7.2210360E+02  1.8923888E-06  0.0000000E+00  1.0000000E+00
 13  1  5  5   0   0  2.3329534E+01 -1.4871539E+01 -1.2385282E+01  3.0312126E+01  2.0185481E-05  0.0000000E+00  1.0000000E+00
</event>
<event>
9 100 1.0000000E+00 1.0000000E+03 7.8125000E-03 0.0000000E+00
 21 -1  0  0 501 502  0.0000000E+00  0.0000000E+00  1.6320629E+03  1.6320629E+03  0.0000000E+00  0.0000000E+00  1.0000000E+00
 21 -1  0  0 502 501  0.0000000E+00  0.0000000E+00 -1.5297633E+02  1.5297633E+02  0.0000000E+00  0.0000000E+00  1.0000000E+00
 39  2  1  2   0   0 -2.2168933E-12  1.8758328E-12  1.4790866E+03  1.7850392E+03  9.9933375E+02  0.0000000E+00  1.0000000E+00
 23  2  3  3   0   0 -2.5190623E+02  2.1080787E+02  1.3910263E+03  1.4331047E+03  1.0458543E+02  0.0000000E+00  1.0000000E+00
 23  2  3  3   0   0  2.5190623E+02 -2.1080787E+02  8.8060227E+01  3.5193451E+02  9.0590221E+01  0.0000000E+00  1.0000000E+00
-11  1  4  4   0   0 -2.4806254E+02  1.7780878E+02  1.3179995E+03  1.3528761E+03  6.2536607E-06  0.0000000E+00  1.0000000E+00
 11  1  4  4   0   0 -3.8436906E+00  3.2999094E+01  7.3026821E+01  8.0228615E+01  4.5776367E-05  0.0000000E+00  1.0000000E+00
-13  1  5  5   0   0  1.3400187E+02 -1.2532051E+02  3.4469545E+00  1.8350372E+02  4.8628039E-06  0.0000000E+00  1.0000000E+00
 13  1  5  5   0   0  1.1790436E+02 -8.5487360E+01  8.4613272E+01  1.6843079E+02  4.7685578E-06  0.0000000E+00  1.0000000E+00
</event>
<event>
9 100 1.0000000E+00 1.0000000E+03 7.8125000E-03 0.0000000E+00
 21 -1  0  0 501 502  0.0000000E+00  0.0000000E+00  4.5370212E+02  4.5370212E+02  0.0000000E+00  0.0000000E+00  1.0000000E+00
 21 -1  0  0 502 501  0.0000000E+00  0.0000000E+00 -6.2077998E+02  6.2077998E+02  0.0000000E+00  0.0000000E+00  1.0000000E+00
 39  2  1  2   0   0 -4.2632564E-14  1.1368684E-13 -1.6707786E+02  1.0744821E+03  1.0614126E+03  0.0000000E+00  1.0000000E+00
 23  2  3  3   0   0 -6.9120216E+01  2.7471959E+02 -5.3198202E+02  6.0358153E+02  3.2516710E+01  0.0000000E+00  1.0000000E+00
 23  2  3  3   0   0  6.9120216E+01 -2.7471959E+02  3.6490416E+02  4.7090058E+02  9.1344677E+01  0.0000000E+00  1.0000000E+00
-11  1  4  4   0   0 -6.1581503E+01  1.8888500E+02 -3.8368260E+02  4.3206732E+02  3.8146973E-06  0.0000000E+00  1.0000000E+00
 11  1  4  4   0   0 -7.5387125E+00  8.5834583E+01 -1.4829942E+02  1.7151421E+02  5.3947966E-06  0.0000000E+00  1.0000000E+00
-13  1  5  5   0   0  4.3702225E+01 -1.8687179E+02  3.0890433E+02  3.6366583E+02  4.7683716E-06  0.0000000E+00  1.0000000E+00
 13  1  5  5   0   0  2.5417991E+01 -8.7847799E+01  5.5999832E+01  1.0723475E+02  1.0092740E-05  0.0000000E+00  1.0000000E+00
</event>
<event>
9 100 1.0000000E+00 1.0000000E+03 7.8125000E-03 0.0000000E+00
 21 -1  0  0 501 502  0.0000000E+00  0.0000000E+00  3.3000800E+02  3.3000800E+02  0.0000000E+00  0.0000000E+00  1.0000000E+00
 21 -1  0  0 502 501  0.0000000E+00  0.0000000E+00 -7.9053020E+02  7.9053020E+02  0.0000000E+00  0.0000000E+00  1.0000000E+00
 39  2  1  2   0   0  2.7284841E-12 -6.5369932E-13 -4.6052220E+02  1.1205382E+03  1.0215308E+03  0.0000000E+00  1.0000000E+00
 23  2  3  3   0   0 -2.6531947E+02  6.4084119E+01  2.3466769E+02  3.6830634E+02  7.7970741E+01  0.0000000E+00  1.0000000E+00
 23  2  3  3   0   0  2.6531947E+02 -6.4084119E+01 -6.9518990E+02  7.5223186E+02  8.9791905E+01  0.0000000E+00  1.0000000E+00
-11  1  4  4   0   0 -2.3595252E+02  8.1430786E+01  2.1026990E+02  3.2637095E+02  1.8467824E-06  0.0000000E+00  1.0000000E+00
 11  1  4  4   0   0 -2.9366950E+01 -1.7346667E+01  2.4397794E+01  4.1935390E+01  3.8146973E-06  0.0000000E+00  1.0000000E+00
-13  1  5  5   0   0  2.1655143E+02 -8.2702087E+01 -5.1776567E+02  5.6728780E+02  5.0463701E-06  0.0000000E+00  1.0000000E+00
 13  1  5  5   0   0  4.8768039E+01  1.8617968E+01 -1.7742422E+02  1.8494406E+02  1.5258789E-05  0.0000000E+00  1.0000000E+00
</event>
<event>
9 100 1.0000000E+00 1.0000000E+03 7.8125000E-03 0.0000000E+00
 21 -1  0  0 501 502  0.0000000E+00  0.0000000E+00  1.8929683E+03  1.8929683E+03  0.0000000E+00  0.0000000E+00  1.0000000E+00
 21 -1  0  0 502 501  0.0000000E+00  0.0000000E+00 -1.3553870E+02  1.3553870E+02  0.0000000E+00  0.0000000E+00  1.0000000E+00
 39  2  1  2   0   0  5.6843419E-14  7.1054274E-14  1.7574296E+03  2.0285069E+03  1.0130557E+03  0.0000000E+00  1.0000000E+00
 23  2  3  3   0   0  1.4381096E+02  6.9347278E+01 -6.5853686E+01  1.9520001E+02  9.0970855E+01  0.0000000E+00  1.0000000E+00
 23  2  3  3   0   0 -1.4381096E+02 -6.9347278E+01  1.8232832E+03  1.8333069E+03  1.0564997E+02  0.0000000E+00  1.0000000E+00
-11  1  4  4   0   0 -1.1147387E+01  1.6260553E+01 -1.0249828E+01  2.2220009E+01  1.0359555E-05  0.0000000E+00  1.0000000E+00
 11  1  4  4   0   0  1.5495835E+02  5.3086725E+01 -5.5603859E+01  1.7298000E+02  3.3229255E-06  0.0000000E+00  1.0000000E+00
-13  1  5  5   0   0 -7.5459411E+01 -2.4659552E+01  1.3981164E+03  1.4003684E+03  1.7892516E-05  0.0000000E+00  1.0000000E+00
 13  1  5  5   0   0 -6.8351551E+01 -4.4687727E+01  4.2516688E+02  4.3293857E+02  3.0517578E-05  0.0000000E+00  1.0000000E+00
</event>
<event>
9 100 1.0000000E+00 1.0000000E+03 7.8125000E-03 0.0000000E+00
 21 -1  0  0 501 502  0.0000000E+00  0.0000000E+00  2.1802148E+02  2.1802148E+02  0.0000000E+00  0.0000000E+00  1.0000000E+00
 21 -1  0  0 502 501  0.0000000E+00  0.0000000E+00 -1.1480178E+03  1.1480178E+03  0.0000000E+00  0.0000000E+00  1.0000000E+00
 39  2  1  2   0   0 -1.0800250E-12  4.5474735E-13 -9.2999634E+02  1.3660393E+03  1.0005849E+03  0.0000000E+00  1.0000000E+00
 23  2  3  3   0   0  3.7454656E+02 -1.4749838E+02 -7.9539850E+01  4.2066878E+02  9.2707792E+01  0.0000000E+00  1.0000000E+00
 23  2  3  3   0   0 -3.7454656E+02  1.4749838E+02 -8.5045649E+02  9.4537053E+02  9.1696699E+01  0.0000000E+00  1.0000000E+00
-11  1  4  4   0   0  1.2345363E+02 -7.3629836E+01  9.8792603E+00  1.4408244E+02  5.3098339E-06  0.0000000E+00  1.0000000E+00
 11  1  4  4   0   0  2.5109293E+02 -7.3868548E+01 -8.9419110E+01  2.7658633E+02  3.5101013E-06  0.0000000E+00  1.0000000E+00
-13  1  5  5   0   0 -3.4505274E+02  1.4861392E+02 -8.2451616E+02  9.0607637E+02  1.8773098E-06  0.0000000E+00  1.0000000E+00
 13  1  5  5   0   0 -2.9493820E+01 -1.1155323E+00 -2.5940335E+01  3.9294158E+01  1.5258789E-05  0.0000000E+00  1.0000000E+00
</event>
<event>
9 100 1.0000000E+00 1.0000000E+03 7.8125000E-03 0.0000000E+00
 21 -1  0  0 501 502  0.0000000E+00  0.0000000E+00  1.7213331E+02  1.7213331E+02  0.0000000E+00  0.0000000E+00  1.0000000E+00
 21 -1  0  0 502 501  0.0000000E+00  0.0000000E+00 -1.4351656E+03  1.4351656E+03  0.0000000E+00  0.0000000E+00  1.0000000E+00
 39  2  1  2   0   0  4.9453774E-12 -1.3216095E-12 -1.2630323E+03  1.6072989E+03  9.9406196E+02  0.0000000E+00  1.0000000E+00
 23  2  3  3   0   0 -3.4682117E+02  9.1930058E+01 -9.5643338E+01  3.8216577E+02  9.0371272E+01  0.0000000E+00  1.0000000E+00
 23  2  3  3   0   0  3.4682117E+02 -9.1930058E+01 -1.1673889E+03  1.2251331E+03  9.7047245E+01  0.0000000E+00  1.0000000E+00
-11  1  4  4   0   0 -3.4606877E+02  8.8326976E+01 -7.9890630E+01  3.6598875E+02  9.5367432E-07  0.0000000E+00  1.0000000E+00
 11  1  4  4   0   0 -7.5240098E-01  3.6030817E+00 -1.5752708E+01  1.6177025E+01  7.2000832E-06  0.0000000E+00  1.0000000E+00
-13  1  5  5   0   0  2.0273759E+02 -2.4707896E+01 -7.8211176E+02  8.0833893E+02  1.2063132E-05  0.0000000E+00  1.0000000E+00
 13  1  5  5   0   0  1.4408358E+02 -6.7222161E+01 -3.8527716E+02  4.1679418E+02  1.5258789E-05  0.0000000E+00  1.0000000E+00
</event>
<event>
9 100 1.0000000E+00 1.0000000E+03 7.8125000E-03 0.0000000E+00
 21 -1  0  0 501 502  0.0000000E+00  0.0000000E+00  5.6502649E+02  5.6502649E+02  0.0000000E+00  0.0000000E+00  1.0000000E+00
 21 -1  0  0 502 501  0.0000000E+00  0.0000000E+00 -4.4480457E+02  4.4480457E+02  0.0000000E+00  0.0000000E+00  1.0000000E+00
 39  2  1  2   0   0  0.0000000E+00  2.2737368E-13  1.2022192E+02  1.0098311E+03  1.0026492E+03  0.0000000E+00  1.0000000E+00
 23  2  3  3   0   0 -1.0707999E+00  4.4460426E+02 -1.5444750E+02  4.7929710E+02  9.0540556E+01  0.0000000E+00  1.0000000E+00
 23  2  3  3   0   0  1.0707999E+00 -4.4460426E+02  2.7466942E+02  5.3053397E+02  9.1372370E+01  0.0000000E+00  1.0000000E+00
-11  1  4  4   0   0  1.0616252E+01  1.7535795E+02 -1.6248171E+01  1.7642879E+02  1.0271387E-05  0.0000000E+00  1.0000000E+00
 11  1  4  4   0   0 -1.1687052E+01  2.6924631E+02 -1.3819932E+02  3.0286831E+02  4.9783261E-06  0.0000000E+00  1.0000000E+00
-13  1  5  5   0   0 -1.8777263E+01 -4.2032635E+02  2.4257986E+02  4.8566637E+02  1.8467824E-06  0.0000000E+00  1.0000000E+00
 13  1  5  5   0   0  1.9848063E+01 -2.4277903E+01  3.2089553E+01  4.4867600E+01  1.2936268E-05  0.0000000E+00  1.0000000E+00
</event>
<event>
9 100 1.0000000E+00 1.0000000E+03 7.8125000E-03 0.0000000E+00
 21 -1  0  0 501 502  0.0000000E+00  0.0000000E+00  4.1836659E+02  4.1836659E+02  0.0000000E+00  0.0000000E+00  1.0000000E+00
 21 -1  0  0 502 501  0.0000000E+00  0.0000000E+00 -5.8424176E+02  5.8424176E+02  0.0000000E+00  0.0000000E+00  1.0000000E+00
 39  2  1  2   0   0 -4.5474735E-13 -2.4158453E-13 -1.6587517E+02  1.0026083E+03  9.8879165E+02  0.0000000E+00  1.0000000E+00
 23  2  3  3   0   0 -1.5123890E+02 -7.7651962E+01  3.7794904E+02  4.2483051E+02  9.3447627E+01  0.0000000E+00  1.0000000E+00
 23  2  3  3   0   0  1.5123890E+02  7.7651962E+01 -5.4382420E+02  5.7777783E+02  9.5809329E+01  0.0000000E+00  1.0000000E+00
-11  1  4  4   0   0 -1.6410577E+02 -7.6463462E+01  3.5079667E+02  3.9476027E+02  1.5078915E-06  0.0000000E+00  1.0000000E+00
 11  1  4  4   0   0  1.2866867E+01 -1.1885009E+00  2.7152364E+01  3.0070246E+01  1.0789593E-05  0.0000000E+00  1.0000000E+00
-13  1  5  5   0   0  1.1728086E+02  7.2568434E+01 -2.8423957E+02  3.1593213E+02  6.6072495E-06  0.0000000E+00  1.0000000E+00
 13  1  5  5   0   0  3.3958047E+01  5.0835287E+00 -2.5958463E+02  2.6184570E+02  3.8146973E-06  0.0000000E+00  1.0000000E+00
</event>
<event>
9 100 1.0000000E+00 1.0000000E+03 7.8125000E-03 0.0000000E+00
 21 -1  0  0 501 502  0.0000000E+00  0.0000000E+00  1.0940257E+03  1.0940257E+03  0.0000000E+00  0.0000000E+00  1.0000000E+00
 21 -1  0  0 502 501  0.0000000E+00  0.0000000E+00 -2.2553692E+02  2.2553692E+02  0.0000000E+00  0.0000000E+00  1.0000000E+00
 39  2  1  2   0   0 -7.1054274E-15 -3.9790393E-13  8.6848874E+02  1.3195626E+03  9.9346500E+02  0.0000000E+00  1.0000000E+00
 23  2  3  3   0   0 -5.7162817E-01 -3.5447306E+01  1.0817268E+03  1.0861153E+03  9.0866002E+01  0.0000000E+00  1.0000000E+00
 23  2  3  3   0   0  5.7162817E-01  3.5447306E+01 -2.1323807E+02  2.3344732E+02  8.8149533E+01  0.0000000E+00  1.0000000E+00
-11  1  4  4   0   0  1.3965960E+00 -9.1954629E+00  8.6061181E+00  1.2671712E+01  3.7376247E-05  0.0000000E+00  1.0000000E+00
 11  1  4  4   0   0 -1.9682242E+00 -2.6251843E+01  1.0731207E+03  1.0734435E+03  1.2445815E-06  0.0000000E+00  1.0000000E+00
-13  1  5  5   0   0 -2.6308526E+01  5.4610060E+01 -1.1815722E+02  1.3279882E+02  1.3486992E-06  0.0000000E+00  1.0000000E+00
 13  1  5  5   0   0  2.6880154E+01 -1.9162754E+01 -9.5080849E+01  1.0064851E+02  4.4731290E-06  0.0000000E+00  1.0000000E+00
</event>
<event>
9 100 1.0000000E+00 1.0000000E+03 7.8125000E-03 0.0000000E+00
 21 -1  0  0 501 502  0.0000000E+00  0.0000000E+00  6.8977468E+02  6.8977468E+02  0.0000000E+00  0.0000000E+00  1.0000000E+00
 21 -1  0  0 502 501  0.0000000E+00  0.0000000E+00 -3.6181721E+02  3.6181721E+02  0.0000000E+00  0.0000000E+00  1.0000000E+00
 39  2  1  2   0   0  9.9475983E-14 -2.8421709E-13  3.2795747E+02  1.0515919E+03  9.9914433E+02  0.0000000E+00  1.0000000E+00
 23  2  3  3   0   0  3.0736355E+01 -8.3412882E+01  6.7160850E+02  6.8297457E+02  8.6567025E+01  0.0000000E+00  1.0000000E+00
 23  2  3  3   0   0 -3.0736355E+01  8.3412882E+01 -3.4365103E+02  3.6861732E+02  9.9399524E+01  0.0000000E+00  1.0000000E+00
-11  1  4  4   0   0  1.7922219E+01 -2.8209446E+01  5.9464782E+01  6.8213189E+01  1.7059845E-05  0.0000000E+00  1.0000000E+00
 11  1  4  4   0   0  1.2814136E+01 -5.5203436E+01  6.1214372E+02  6.1476138E+02  2.9394217E-06  0.0000000E+00  1.0000000E+00
-13  1  5  5   0   0  3.4327461E+00  3.6103684E+01 -2.7969928E+02  2.8204068E+02  6.9428538E-06  0.0000000E+00  1.0000000E+00
 13  1  5  5   0   0 -3.4169101E+01  4.7309199E+01 -6.3951751E+01  8.6576638E+01  1.7481139E-05  0.0000000E+00  1.0000000E+00
</event>
<event>
9 100 1.0000000E+00 1.0000000E+03 7.8125000E-03 0.0000000E+00
 21 -1  0  0 501 502  0.0000000E+00  0.0000000E+00  2.7472787E+02  2.7472787E+02  0.0000000E+00  0.0000000E+00  1.0000000E+00
 21 -1  0  0 502 501  0.0000000E+00  0.0000000E+00 -9.2266129E+02  9.2266129E+02  0.0000000E+00  0.0000000E+00  1.0000000E+00
 39  2  1  2   0   0 -1.4210855E-13  1.7053026E-13 -6.4793342E+02  1.1973892E+03  1.0069375E+03  0.0000000E+00  1.0000000E+00
 23  2  3  3   0   0  1.5779798E+02 -3.1160152E+02  9.3687995E+01  3.7350428E+02  9.3446752E+01  0.0000000E+00  1.0000000E+00
 23  2  3  3   0   0 -1.5779798E+02  3.1160152E+02 -7.4162142E+02  8.2388488E+02  8.2390873E+01  0.0000000E+00  1.0000000E+00
-11  1  4  4   0   0  1.1958769E+02 -2.0353868E+02  1.0492003E+02  2.5833587E+02  4.5736613E-06  0.0000000E+00  1.0000000E+00
 11  1  4  4   0   0  3.8210296E+01 -1.0806284E+02 -1.1232032E+01  1.1516841E+02  1.0271387E-05  0.0000000E+00  1.0000000E+00
-13  1  5  5   0   0  6.8232694E+00  8.1584090E+00 -4.7228236E+01  4.8410979E+01  1.0789593E-05  0.0000000E+00  1.0000000E+00
 13  1  5  5   0   0 -1.6462125E+02  3.0344311E+02 -6.9439318E+02  7.7547390E+02  1.1680077E-06  0.0000000E+00  1.0000000E+00
</event>
<event>
9 100 1.0000000E+00 1.0000000E+03 7.8125000E-03 0.0000000E+00
 21 -1  0  0 501 502  0.0000000E+00  0.0000000E+00  1.0285385E+03  1.0285385E+03  0.0000000E+00  0.0000000E+00  1.0000000E+00
 21 -1  0  0 502 501  0.0000000E+00  0.0000000E+00 -2.4354745E+02  2.4354745E+02  0.0000000E+00  0.0000000E+00  1.0000000E+00
 39  2  1  2   0   0  2.8421709E-13 -3.9790393E-13  7.8499104E+02  1.2720859E+03  1.0009953E+03  0.0000000E+00  1.0000000E+00
 23  2  3  3   0   0  2.2759662E+02 -3.2351946E+02  2.0516563E+01  4.0637343E+02  9.0848049E+01  0.0000000E+00  1.0000000E+00
 23  2  3  3   0   0 -2.2759662E+02  3.2351946E+02  7.6447448E+02  8.6571251E+02  9.2584307E+01  0.0000000E+00  1.0000000E+00
-11  1  4  4   0   0  1.6628240E+02 -2.5344055E+02 -2.2190141E+01  3.0393149E+02  4.9554371E-06  0.0000000E+00  1.0000000E+00
 11  1  4  4   0   0  6.1314220E+01 -7.0078915E+01  4.2706704E+01  1.0244194E+02  1.0525579E-05  0.0000000E+00  1.0000000E+00
-13  1  5  5   0   0 -1.0847114E+02  7.8846767E+01  2.5595846E+02  2.8895940E+02  1.3214499E-05  0.0000000E+00  1.0000000E+00
 13  1  5  5   0   0 -1.1912548E+02  2.4467269E+02  5.0851602E+02  5.7675311E+02  3.8146973E-06  0.0000000E+00  1.0000000E+00
</event>
<event>
9 100 1.0000000E+00 1.0000000E+03 7.8125000E-03 0.0000000E+00
 21 -1  0  0 501 502  0.0000000E+00  0.0000000E+00  4.7887803E+02  4.7887803E+02  0.0000000E+00  0.0000000E+00  1.0000000E+00
 21 -1  0  0 502 501  0.0000000E+00  0.0000000E+00 -5.2419296E+02  5.2419296E+02  0.0000000E+00  0.0000000E+00  1.0000000E+00
 39  2  1  2   0   0  1.6342483E-13 -5.4001248E-13 -4.5314933E+01  1.0030710E+03  1.0020469E+03  0.0000000E+00  1.0000000E+00
 23  2  3  3   0   0  5.2436701E+01 -1.4966078E+02  4.4441962E+02  4.8035165E+02  8.9894128E+01  0.0000000E+00  1.0000000E+00
 23  2  3  3   0   0 -5.2436701E+01  1.4966078E+02 -4.8973455E+02  5.2271934E+02  9.0816382E+01  0.0000000E+00  1.0000000E+00
-11  1  4  4   0   0  9.8232197E+00 -1.2376878E+02  3.7396891E+02  3.9404054E+02  2.1324806E-06  0.0000000E+00  1.0000000E+00
 11  1  4  4   0   0  4.2613482E+01 -2.5891999E+01  7.0450712E+01  8.6311108E+01  5.3947966E-06  0.0000000E+00  1.0000000E+00
-13  1  5  5   0   0 -6.3776521E+01  1.0337837E+02 -4.2699092E+02  4.4393217E+02  4.8158192E-06  0.0000000E+00  1.0000000E+00
 13  1  5  5   0   0  1.1339819E+01  4.6282412E+01 -6.2743638E+01  7.8787164E+01  1.4273290E-05  0.0000000E+00  1.0000000E+00
</event>
<event>
9 100 1.0000000E+00 1.0000000E+03 7.8125000E-03 0.0000000E+00
 21 -1  0  0 501 502  0.0000000E+00  0.0000000E+00  3.6687090E+02  3.6687090E+02  0.0000000E+00  0.0000000E+00  1.0000000E+00
 21 -1  0  0 502 501  0.0000000E+00  0.0000000E+00 -6.8108291E+02  6.8108291E+02  0.0000000E+00  0.0000000E+00  1.0000000E+00
 39  2  1  2   0   0 -7.4606987E-14 -1.2221335E-12 -3.1421201E+02  1.0479538E+03  9.9973897E+02  0.0000000E+00  1.0000000E+00
 23  2  3  3   0   0 -1.3452550E+01 -2.0967505E+02  3.0849545E+02  3.8469231E+02  9.3135020E+01  0.0000000E+00  1.0000000E+00
 23  2  3  3   0   0  1.3452550E+01  2.0967505E+02 -6.2270746E+02  6.6326150E+02  8.9479820E+01  0.0000000E+00  1.0000000E+00
-11  1  4  4   0   0  4.7410917E+00 -1.8495495E+02  2.0228188E+02  2.7413276E+02  5.3947966E-06  0.0000000E+00  1.0000000E+00
 11  1  4  4   0   0 -1.8193642E+01 -2.4720109E+01  1.0621357E+02  1.1055955E+02  1.0092740E-05  0.0000000E+00  1.0000000E+00
-13  1  5  5   0   0 -2.1221135E+01  7.6043463E+00 -8.0105719E+01  8.3217119E+01  1.8688124E-05  0.0000000E+00  1.0000000E+00
 13  1  5  5   0   0  3.4673685E+01  2.0207071E+02 -5.4260174E+02  5.8004438E+02  4.1569700E-06  0.0000000E+00  1.0000000E+00
</event>
<event>
9 100 1.0000000E+00 1.0000000E+03 7.8125000E-03 0.0000000E+00
 21 -1  0  0 501 502  0.0000000E+00  0.0000000E+00  2.8909553E+02  2.8909553E+02  0.0000000E+00  0.0000000E+00  1.0000000E+00
 21 -1  0  0 502 501  0.0000000E+00  0.0000000E+00 -8.6129759E+02  8.6129759E+02  0.0000000E+00  0.0000000E+00  1.0000000E+00
 39  2  1  2   0   0 -7.6738615E-13 -1.6484591E-12 -5.7220206E+02  1.1503931E+03  9.9799255E+02  0.0000000E+00  1.0000000E+00
 23  2  3  3   0   0  1.4255971E+02  3.0135482E+02 -7.0182130E+02  7.8084086E+02  7.7597149E+01  0.0000000E+00  1.0000000E+00
 23  2  3  3   0   0 -1.4255971E+02 -3.0135482E+02  1.2961924E+02  3.6955225E+02  9.2896270E+01  0.0000000E+00  1.0000000E+00
-11  1  4  4   0   0  9.7537866E+01  2.5428419E+02 -5.0850271E+02  5.7684408E+02  7.1366451E-06  0.0000000E+00  1.0000000E+00
 11  1  4  4   0   0  4.5021845E+01  4.7070628E+01 -1.9331859E+02  2.0399679E+02  1.3214499E-05  0.0000000E+00  1.0000000E+00
-13  1  5  5   0   0  7.0146365E-01 -8.8457934E+01  4.5702530E+01  9.9569169E+01  3.1629799E-06  0.0000000E+00  1.0000000E+00
 13  1  5  5   0   0 -1.4326118E+02 -2.1289689E+02  8.3916714E+01  2.6998308E+02  3.1629799E-06  0.0000000E+00  1.0000000E+00
</event>
<event>
9 100 1.0000000E+00 1.0000000E+03 7.8125000E-03 0.0000000E+00
 21 -1  0  0 501 502  0.0000000E+00  0.0000000E+00  6.9432801E+02  6.9432801E+02  0.0000000E+00  0.0000000E+00  1.0000000E+00
 21 -1  0  0 502 501  0.0000000E+00  0.0000000E+00 -3.5689803E+02  3.5689803E+02  0.0000000E+00  0.0000000E+00  1.0000000E+00
 39  2  1  2   0   0  8.8107299E-13  7.6738615E-13  3.3742998E+02  1.0512260E+03  9.9559892E+02  0.0000000E+00  1.0000000E+00
 23  2  3  3   0   0 -2.2544786E+02 -1.9875128E+02  5.7635672E+02  6.5639440E+02  9.1311190E+01  0.0000000E+00  1.0000000E+00
 23  2  3  3   0   0  2.2544786E+02  1.9875128E+02 -2.3892674E+02  3.9483164E+02  9.2071858E+01  0.0000000E+00  1.0000000E+00
-11  1  4  4   0   0 -3.4571350E+01 -7.9233164E+01  1.9863187E+02  2.1662800E+02  1.0789593E-05  0.0000000E+00  1.0000000E+00
 11  1  4  4   0   0 -1.9087651E+02 -1.1951812E+02  3.7772485E+02  4.3976640E+02  3.8146973E-06  0.0000000E+00  1.0000000E+00
-13  1  5  5   0   0  1.0543543E+02  4.7408459E+01 -5.4630026E+01  1.2786177E+02  5.3947966E-06  0.0000000E+00  1.0000000E+00
 13  1  5  5   0   0  1.2001243E+02  1.5134282E+02 -1.8429672E+02  2.6696987E+02  2.9394217E-06  0.0000000E+00  1.0000000E+00
</event>
<event>
9 100 1.0000000E+00 1.0000000E+03 7.8125000E-03 0.0000000E+00
 21 -1  0  0 501 502  0.0000000E+00  0.0000000E+00  2.2680216E+03  2.2680216E+03  0.0000000E+00  0.0000000E+00  1.0000000E+00
 21 -1  0  0 502 501  0.0000000E+00  0.0000000E+00 -1.0703531E+02  1.0703531E+02  0.0000000E+00  0.0000000E+00  1.0000000E+00
 39  2  1  2   0   0  8.2422957E-12  6.5369932E-12  2.1609863E+03  2.3750569E+03  9.8541036E+02  0.0000000E+00  1.0000000E+00
 23  2  3  3   0   0 -2.3509098E+02 -1.8570753E+02  1.6487273E+02  3.5454837E+02  9.3629469E+01  0.0000000E+00  1.0000000E+00
 23  2  3  3   0   0  2.3509098E+02  1.8570753E+02  1.9961136E+03  2.0205085E+03  9.0721310E+01  0.0000000E+00  1.0000000E+00
-11  1  4  4   0   0 -4.9739694E+01 -6.4932579E+01  8.8498628E+01  1.2050844E+02  2.2222863E-05  0.0000000E+00  1.0000000E+00
 11  1  4  4   0   0 -1.8535128E+02 -1.2077495E+02  7.6374106E+01  2.3403993E+02  1.2687812E-05  0.0000000E+00  1.0000000E+00
-13  1  5  5   0   0  1.0792335E+02  1.1128082E+02  7.6035475E+02  7.7599628E+02  4.0370961E-05  0.0000000E+00  1.0000000E+00
 13  1  5  5   0   0  1.2716762E+02  7.4426702E+01  1.2357588E+03  1.2445123E+03  3.2368780E-05  0.0000000E+00  1.0000000E+00
</event>
<event>
9 100 1.0000000E+00 1.0000000E+03 7.8125000E-03 0.0000000E+00
 21 -1  0  0 501 502  0.0000000E+00  0.0000000E+00  1.4543526E+03  1.4543526E+03  0.0000000E+00  0.0000000E+00  1.0000000E+00
 21 -1  0  0 502 501  0.0000000E+00  0.0000000E+00 -1.7064468E+02  1.7064468E+02  0.0000000E+00  0.0000000E+00  1.0000000E+00
 39  2  1  2   0   0 -8.5265128E-14  7.8159701E-14  1.2837079E+03  1.6249972E+03  9.9634839E+02  0.0000000E+00  1.0000000E+00
 23  2  3  3   0   0 -6.9086544E+01  5.6182036E+01  1.4277714E+03  1.4334321E+03  9.0923323E+01  0.0000000E+00  1.0000000E+00
 23  2  3  3   0   0  6.9086544E+01 -5.6182036E+01 -1.4406347E+02  1.9156519E+02  8.9518521E+01  0.0000000E+00  1.0000000E+00
-11  1  4  4   0   0 -1.3915650E+01 -2.4706936E+01  2.5181035E+02  2.5340192E+02  2.1579186E-05  0.0000000E+00  1.0000000E+00
 11  1  4  4   0   0 -5.5170894E+01  8.0888973E+01  1.1759610E+03  1.1800301E+03  5.3947966E-06  0.0000000E+00  1.0000000E+00
-13  1  5  5   0   0 -6.9898526E+00 -3.7885071E+01 -1.6485012E+01  4.1903368E+01  2.3360155E-06  0.0000000E+00  1.0000000E+00
 13  1  5  5   0   0  7.6076396E+01 -1.8296966E+01 -1.2757846E+02  1.4966182E+02  2.0370492E-06  0.0000000E+00  1.0000000E+00
</event>
<event>
9 100 1.0000000E+00 1.0000000E+03 7.8125000E-03 0.0000000E+00
 21 -1  0  0 501 502  0.0000000E+00  0.0000000E+00  4.6049214E+02  4.6049214E+02  0.0000000E+00  0.0000000E+00  1.0000000E+00
 21 -1  0  0 502 501  0.0000000E+00  0.0000000E+00 -5.3270721E+02  5.3270721E+02  0.0000000E+00  0.0000000E+00  1.0000000E+00
 39  2  1  2   0   0 -3.4106051E-13  4.2632564E-14 -7.2215063E+01  9.9319935E+02  9.9057051E+02  0.0000000E+00  1.0000000E+00
 23  2  3  3   0   0  4.7344202E+02 -8.4684194E+01 -1.1085039E+02  5.0213585E+02  9.2378785E+01  0.0000000E+00  1.0000000E+00
 23  2  3  3   0   0 -4.7344202E+02  8.4684194E+01  3.8635331E+01  4.9106350E+02  9.1279308E+01  0.0000000E+00  1.0000000E+00
-11  1  4  4   0   0  4.6003137E+02 -6.6398809E+01 -9.4835551E+01  4.7437480E+02  1.5078915E-06  0.0000000E+00  1.0000000E+00
 11  1  4  4   0   0  1.3410649E+01 -1.8285385E+01 -1.6014844E+01  2.7761052E+01  1.2287234E-05  0.0000000E+00  1.0000000E+00
-13  1  5  5   0   0 -4.6203072E+02  6.9209487E+01  4.8059341E+01  4.6965097E+02  1.4841437E-06  0.0000000E+00  1.0000000E+00
 13  1  5  5   0   0 -1.1411308E+01  1.5474706E+01 -9.4240097E+00  2.1412530E+01  1.3704403E-05  0.0000000E+00  1.0000000E+00
</event>
<event>
9 100 1.0000000E+00 1.0000000E+03 7.8125000E-03 0.0000000E+00
 21 -1  0  0 501 502  0.0000000E+00  0.0000000E+00  2.6136956E+02  2.6136956E+02  0.0000000E+00  0.0000000E+00  1.0000000E+00
 21 -1  0  0 502 501  0.0000000E+00  0.0000000E+00 -9.5865002E+02  9.5865002E+02  0.0000000E+00  0.0000000E+00  1.0000000E+00
 39  2  1  2   0   0  7.9580786E-13 -3.9790393E-13 -6.9728045E+02  1.2200196E+03  1.0011232E+03  0.0000000E+00  1.0000000E+00
 23  2  3  3   0   0  2.9734501E+02 -1.5144359E+02 -7.8838183E+02  8.6166680E+02  9.7849593E+01  0.0000000E+00  1.0000000E+00
 23  2  3  3   0   0 -2.9734501E+02  1.5144359E+02  9.1101380E+01  3.5835277E+02  9.3637750E+01  0.0000000E+00  1.0000000E+00
-11  1  4  4   0   0  2.0631909E+02 -1.1339345E+02 -6.5305442E+02  6.9419429E+02  1.9073486E-06  0.0000000E+00  1.0000000E+00
 11  1  4  4   0   0  9.1025926E+01 -3.8050140E+01 -1.3532741E+02  1.6747251E+02  1.3214499E-05  0.0000000E+00  1.0000000E+00
-13  1  5  5   0   0 -7.3747034E+01  8.3278003E+01  4.5527556E+01  1.2019405E+02  7.8061607E-06  0.0000000E+00  1.0000000E+00
 13  1  5  5   0   0 -2.2359798E+02  6.8165591E+01  4.5573825E+01  2.3815873E+02  3.9320999E-06  0.0000000E+00  1.0000000E+00
</event>
<event>
9 100 1.0000000E+00 1.0000000E+03 7.8125000E-03 0.0000000E+00
 21 -1  0  0 501 502  0.0000000E+00  0.0000000E+00  2.6311518E+02  2.6311518E+02  0.0000000E+00  0.0000000E+00  1.0000000E+00
 21 -1  0  0 502 501  0.0000000E+00  0.0000000E+00 -9.7985246E+02  9.7985246E+02  0.0000000E+00  0.0000000E+00  1.0000000E+00
 39  2  1  2   0   0 -1.9326762E-12  1.0800250E-12 -7.1673728E+02  1.2429676E+03  1.0155079E+03  0.0000000E+00  1.0000000E+00
 23  2  3  3   0   0  3.1935011E+02 -1.8831053E+02  5.1929358E+01  3.8462711E+02  8.8294991E+01  0.0000000E+00  1.0000000E+00
 23  2  3  3   0   0 -3.1935011E+02  1.8831053E+02 -7.6866663E+02  8.5834053E+02  9.1949538E+01  0.0000000E+00  1.0000000E+00
-11  1  4  4   0   0  2.4028857E+02 -1.5489991E+02  7.5361036E+01  2.9565498E+02  1.9947529E-06  0.0000000E+00  1.0000000E+00
 11  1  4  4   0   0  7.9061540E+01 -3.3410612E+01 -2.3431677E+01  8.8972128E+01  4.1569700E-06  0.0000000E+00  1.0000000E+00
-13  1  5  5   0   0 -1.3245020E+02  6.1320649E+01 -4.0159295E+02  4.2729401E+02  7.6293945E-06  0.0000000E+00  1.0000000E+00
 13  1  5  5   0   0 -1.8689992E+02  1.2698988E+02 -3.6707368E+02  4.3104651E+02  1.2063132E-05  0.0000000E+00  1.0000000E+00
</event>
<event>
9 100 1.0000000E+00 1.0000000E+03 7.8125000E-03 0.0000000E+00
 21 -1  0  0 501 502  0.0000000E+00  0.0000000E+00  2.4079317E+02  2.4079317E+02  0.0000000E+00  0.0000000E+00  1.0000000E+00
 21 -1  0  0 502 501  0.0000000E+00  0.0000000E+00 -1.0400070E+03  1.0400070E+03  0.0000000E+00  0.0000000E+00  1.0000000E+00
 39  2  1  2   0   0  5.6132876E-13  2.1032065E-12 -7.9921386E+02  1.2808002E+03  1.0008528E+03  0.0000000E+00  1.0000000E+00
 23  2  3  3   0   0 -2.9386471E+01 -1.1229168E+02  2.1201978E+02  2.5869191E+02  9.2174467E+01  0.0000000E+00  1.0000000E+00
 23  2  3  3   0   0  2.9386471E+01  1.1229168E+02 -1.0112336E+03  1.0221083E+03  9.2945662E+01  0.0000000E+00  1.0000000E+00
-11  1  4  4   0   0  9.5406229E+00  5.7025335E+00 -1.9291411E+00  1.1281133E+01  1.2063132E-05  0.0000000E+00  1.0000000E+00
 11  1  4  4   0   0 -3.8927094E+01 -1.1799421E+02  2.1394892E+02  2.4741077E+02  2.1535142E-06  0.0000000E+00  1.0000000E+00
-13  1  5  5   0   0  3.7631531E+01  1.9330071E+00 -2.2736664E+02  2.3046791E+02  1.5258789E-05  0.0000000E+00  1.0000000E+00
 13  1  5  5   0   0 -8.2450600E+00  1.1035867E+02 -7.8386699E+02  7.9164037E+02  5.3947966E-06  0.0000000E+00  1.0000000E+00
</event>
<event>
9 100 1.0000000E+00 1.0000000E+03 7.8125000E-03 0.0000000E+00
 21 -1  0  0 501 502  0.0000000E+00  0.0000000E+00  8.4716208E+02  8.4716208E+02  0.0000000E+00  0.0000000E+00  1.0000000E+00
 21 -1  0  0 502 501  0.0000000E+00  0.0000000E+00 -2.9652886E+02  2.9652886E+02  0.0000000E+00  0.0000000E+00  1.0000000E+00
 39  2  1  2   0   0 -3.0127012E-12  1.0658141E-14  5.5063322E+02  1.1436909E+03  1.0024131E+03  0.0000000E+00  1.0000000E+00
 23  2  3  3   0   0  4.5993259E+02 -8.5204722E-01  7.3354542E+01  4.7454862E+02  9.0976844E+01  0.0000000E+00  1.0000000E+00
 23  2  3  3   0   0 -4.5993259E+02  8.5204722E-01  4.7727868E+02  6.6914231E+02  9.1748472E+01  0.0000000E+00  1.0000000E+00
-11  1  4  4   0   0  3.2835187E+02  3.8345221E+01  6.5640734E+01  3.3703711E+02  9.1756312E-06  0.0000000E+00  1.0000000E+00
 11  1  4  4   0   0  1.3158073E+02 -3.9197268E+01  7.7138078E+00  1.3751151E+02  1.9867579E-05  0.0000000E+00  1.0000000E+00
-13  1  5  5   0   0 -4.3968731E+01  1.6161395E+01  2.0435152E+01  5.1108075E+01  5.3947966E-06  0.0000000E+00  1.0000000E+00
 13  1  5  5   0   0 -4.1596386E+02 -1.5309348E+01  4.5684353E+02  6.1803424E+02  2.8210067E-06  0.0000000E+00  1.0000000E+00
</event>
<event>
9 100 1.0000000E+00 1.0000000E+03 7.8125000E-03 0.0000000E+00
 21 -1  0  0 501 502  0.0000000E+00  0.0000000E+00  1.1799613E+03  1.1799613E+03  0.0000000E+00  0.0000000E+00  1.0000000E+00
 21 -1  0  0 502 501  0.0000000E+00  0.0000000E+00 -2.1109388E+02  2.1109388E+02  0.0000000E+00  0.0000000E+00  1.0000000E+00
 39  2  1  2   0   0 -3.9790393E-12 -1.0800250E-12  9.6886737E+02  1.3910551E+03  9.9816351E+02  0.0000000E+00  1.0000000E+00
 23  2  3  3   0   0 -4.5580290E+02 -1.2345433E+02  6.7092442E+02  8.2543070E+02  9.0548375E+01  0.0000000E+00  1.0000000E+00
 23  2  3  3   0   0  4.5580290E+02  1.2345433E+02  2.9794296E+02  5.6562443E+02  9.0353365E+01  0.0000000E+00  1.0000000E+00
-11  1  4  4   0   0 -1.8285707E+02 -4.7454043E+01  1.9463652E+02  2.7124154E+02  2.2888184E-05  0.0000000E+00  1.0000000E+00
 11  1  4  4   0   0 -2.7294583E+02 -7.6000290E+01  4.7628789E+02  5.5418916E+02  1.1757687E-05  0.0000000E+00  1.0000000E+00
-13  1  5  5   0   0  2.0328900E+02  7.3318811E+01  1.8507879E+02  2.8452808E+02  9.8186780E-06  0.0000000E+00  1.0000000E+00
 13  1  5  5   0   0  2.5251390E+02  5.0135522E+01  1.1286417E+02  2.8109635E+02  1.2936268E-05  0.0000000E+00  1.0000000E+00
</event>
<event>
9 100 1.0000000E+00 1.0000000E+03 7.8125000E-03 0.0000000E+00
 21 -1  0  0 501 502  0.0000000E+00  0.0000000E+00  4.7780757E+02  4.7780757E+02  0.0000000E+00  0.0000000E+00  1.0000000E+00
 21 -1  0  0 502 501  0.0000000E+00  0.0000000E+00 -5.2559493E+02  5.2559493E+02  0.0000000E+00  0.0000000E+00  1.0000000E+00
 39  2  1  2   0   0  0.0000000E+00 -5.6843419E-14 -4.7787356E+01  1.0034025E+03  1.0022639E+03  0.0000000E+00  1.0000000E+00
 23  2  3  3   0   0 -2.2366123E+02 -3.8553669E+02 -2.3519865E+02  5.1127436E+02  8.6140446E+01  0.0000000E+00  1.0000000E+00
 23  2  3  3   0   0  2.2366123E+02  3.8553669E+02  1.8741129E+02  4.9212814E+02  9.1674571E+01  0.0000000E+00  1.0000000E+00
-11  1  4  4   0   0 -2.0821992E+02 -3.8498938E+02 -2.2113145E+02  4.9037891E+02  1.9295709E-06  0.0000000E+00  1.0000000E+00
 11  1  4  4   0   0 -1.5441310E+01 -5.4731279E-01 -1.4067199E+01  2.0895446E+01  1.7481139E-05  0.0000000E+00  1.0000000E+00
-13  1  5  5   0   0  1.1185218E+02  1.1165691E+02  8.2271688E+01  1.7817634E+02  7.7476868E-06  0.0000000E+00  1.0000000E+00
 13  1  5  5   0   0  1.1180905E+02  2.7387978E+02  1.0513960E+02  3.1395180E+02  7.0080464E-06  0.0000000E+00  1.0000000E+00
</event>
<event>
9 100 1.0000000E+00 1.0000000E+03 7.8125000E-03 0.0000000E+00
 21 -1  0  0 501 502  0.0000000E+00  0.0000000E+00  1.0090833E+03  1.0090833E+03  0.0000000E+00  0.0000000E+00  1.0000000E+00
 21 -1  0  0 502 501  0.0000000E+00  0.0000000E+00 -2.4451529E+02  2.4451529E+02  0.0000000E+00  0.0000000E+00  1.0000000E+00
 39  2  1  2   0   0 -4.4053650E-13 -9.0949470E-13  7.6456800E+02  1.2535986E+03  9.9345115E+02  0.0000000E+00  1.0000000E+00
 23  2  3  3   0   0 -1.2781789E+02 -2.7659195E+02  8.6359792E+02  9.2024471E+02  9.0600431E+01  0.0000000E+00  1.0000000E+00
 23  2  3  3   0   0  1.2781789E+02  2.7659195E+02 -9.9029923E+01  3.3335387E+02  9.2072562E+01  0.0000000E+00  1.0000000E+00
-11  1  4  4   0   0 -1.2538002E+02 -2.6288624E+02  7.3051882E+02  7.8643949E+02  6.6072495E-06  0.0000000E+00  1.0000000E+00
 11  1  4  4   0   0 -2.4378620E+00 -1.3705713E+01  1.3307911E+02  1.3380523E+02  3.2368780E-05  0.0000000E+00  1.0000000E+00
-13  1  5  5   0   0 -7.3558327E+00  1.7440382E+01 -2.5861407E+01  3.2048207E+01  6.8105969E-06  0.0000000E+00  1.0000000E+00
 13  1  5  5   0   0  1.3517372E+02  2.5915157E+02 -7.3168516E+01  3.0130566E+02  9.5367432E-07  0.0000000E+00  1.0000000E+00
</event>
<event>
9 100 1.0000000E+00 1.0000000E+03 7.8125000E-03 0.0000000E+00
 21 -1  0  0 501 502  0.0000000E+00  0.0000000E+00  4.2274256E+02  4.2274256E+02  0.0000000E+00  0.0000000E+00  1.0000000E+00
 21 -1  0  0 502 501  0.0000000E+00  0.0000000E+00 -5.9018181E+02  5.9018181E+02  0.0000000E+00  0.0000000E+00  1.0000000E+00
 39  2  1  2   0   0  1.4210855E-14 -1.4210855E-13 -1.6743925E+02  1.0129244E+03  9.9898943E+02  0.0000000E+00  1.0000000E+00
 23  2  3  3   0   0 -3.5029944E+01  2.0664882E+02 -5.3383906E+02  5.8116462E+02  9.4007174E+01  0.0000000E+00  1.0000000E+00
 23  2  3  3   0   0  3.5029944E+01 -2.0664882E+02  3.6639981E+02  4.3175975E+02  9.0756997E+01  0.0000000E+00  1.0000000E+00
-11  1  4  4   0   0 -1.8789924E+01  1.4686932E+02 -4.6755662E+02  4.9044148E+02  4.2649612E-06  0.0000000E+00  1.0000000E+00
 11  1  4  4   0   0 -1.6240019E+01  5.9779491E+01 -6.6282442E+01  9.0723139E+01  1.7892516E-05  0.0000000E+00  1.0000000E+00
-13  1  5  5   0   0  3.3215656E+01 -1.7574010E+02  3.5717647E+02  3.9945324E+02  1.6646671E-06  0.0000000E+00  1.0000000E+00
 13  1  5  5   0   0  1.8142873E+00 -3.0908717E+01  9.2233373E+00  3.2306507E+01  7.6293945E-06  0.0000000E+00  1.0000000E+00
</event>
<event>
9 100 1.0000000E+00 1.0000000E+03 7.8125000E-03 0.0000000E+00
 21 -1  0  0 501 502  0.0000000E+00  0.0000000E+00  2.1519619E+02  2.1519619E+02  0.0000000E+00  0.0000000E+00  1.0000000E+00
 21 -1  0  0 502 501  0.0000000E+00  0.0000000E+00 -1.1711099E+03  1.1711099E+03  0.0000000E+00  0.0000000E+00  1.0000000E+00
 39  2  1  2   0   0 -1.3642421E-12  6.8212103E-13 -9.5591372E+02  1.3863061E+03  1.0040287E+03  0.0000000E+00  1.0000000E+00
 23  2  3  3   0   0 -3.5378129E+02  1.7099907E+02 -8.8965253E+02  9.7685781E+02  9.1475017E+01  0.0000000E+00  1.0000000E+00
 23  2  3  3   0   0  3.5378129E+02 -1.7099907E+02 -6.6261199E+01  4.0944830E+02  9.4103555E+01  0.0000000E+00  1.0000000E+00
-11  1  4  4   0   0 -1.5180917E+02  1.1748289E+02 -4.8095887E+02  5.1785103E+02  2.4722064E-05  0.0000000E+00  1.0000000E+00
 11  1  4  4   0   0 -2.0197213E+02  5.3516178E+01 -4.0869365E+02  4.5900678E+02  2.7508173E-05  0.0000000E+00  1.0000000E+00
-13  1  5  5   0   0  3.3877661E+02 -1.3481367E+02 -6.4174431E+01  3.7021976E+02  1.6609281E-06  0.0000000E+00  1.0000000E+00
 13  1  5  5   0   0  1.5004685E+01 -3.6185395E+01 -2.0867681E+00  3.9228535E+01  1.2936268E-05  0.0000000E+00  1.0000000E+00
</event>
<event>
9 100 1.0000000E+00 1.0000000E+03 7.8125000E-03 0.0000000E+00
 21 -1  0  0 501 502  0.0000000E+00  0.0000000E+00  2.4150344E+02  2.4150344E+02  0.0000000E+00  0.0000000E+00  1.0000000E+00
 21 -1  0  0 502 501  0.0000000E+00  0.0000000E+00 -9.8077827E+02  9.8077827E+02  0.0000000E+00  0.0000000E+00  1.0000000E+00
 39  2  1  2   0   0  1.2505552E-12 -9.0949470E-13 -7.3927483E+02  1.2222817E+03  9.7336801E+02  0.0000000E+00  1.0000000E+00
 23  2  3  3   0   0 -2.7528125E+02  2.0546117E+02 -7.8662589E+02  8.6376078E+02  9.6479777E+01  0.0000000E+00  1.0000000E+00
 23  2  3  3   0   0  2.7528125E+02 -2.0546117E+02  4.7351057E+01  3.5852092E+02  9.1110188E+01  0.0000000E+00  1.0000000E+00
-11  1  4  4   0   0 -2.3888887E+02  1.9475567E+02 -6.1402319E+02  6.8703867E+02  5.0463701E-06  0.0000000E+00  1.0000000E+00
 11  1  4  4   0   0 -3.6392386E+01  1.0705498E+01 -1.7260270E+02  1.7672211E+02  2.2888184E-05  0.0000000E+00  1.0000000E+00
-13  1  5  5   0   0  5.7674302E+01 -6.0692308E+01  4.9278075E+01  9.7150451E+01  5.6379189E-06  0.0000000E+00  1.0000000E+00
 13  1  5  5   0   0  2.1760695E+02 -1.4476886E+02 -1.9270189E+00  2.6137047E+02  2.7804145E-06  0.0000000E+00  1.0000000E+00
</event>
<event>
9 100 1.0000000E+00 1.0000000E+03 7.8125000E-03 0.0000000E+00
 21 -1  0  0 501 502  0.0000000E+00  0.0000000E+00  5.4036119E+02  5.4036119E+02  0.0000000E+00  0.0000000E+00  1.0000000E+00
 21 -1  0  0 502 501  0.0000000E+00  0.0000000E+00 -4.7228501E+02  4.7228501E+02  0.0000000E+00  0.0000000E+00  1.0000000E+00
 39  2  1  2   0   0 -1.4210855E-14  0.0000000E+00  6.8076180E+01  1.0126462E+03  1.0103554E+03  0.0000000E+00  1.0000000E+00
 23  2  3  3   0   0 -1.2459856E+02  8.0896003E+01  5.0769537E+02  5.3974989E+02  1.0726784E+02  0.0000000E+00  1.0000000E+00
 23  2  3  3   0   0  1.2459856E+02 -8.0896003E+01 -4.3961919E+02  4.7289631E+02  9.1087472E+01  0.0000000E+00  1.0000000E+00
-11  1  4  4   0   0 -6.0186745E+01 -1.5097700E+01  1.1869767E+02  1.3393850E+02  1.4273290E-05  0.0000000E+00  1.0000000E+00
 11  1  4  4   0   0 -6.4411815E+01  9.5993703E+01  3.8899770E+02  4.0581138E+02  4.4731290E-06  0.0000000E+00  1.0000000E+00
-13  1  5  5   0   0 -1.4267839E+00 -4.1708397E+01 -9.0306162E+01  9.9482807E+01  3.8146973E-06  0.0000000E+00  1.0000000E+00
 13  1  5  5   0   0  1.2602534E+02 -3.9187606E+01 -3.4931302E+02  3.7341350E+02  2.3360155E-06  0.0000000E+00  1.0000000E+00
</event>
<event>
9 100 1.0000000E+00 1.0000000E+03 7.8125000E-03 0.0000000E+00
 21 -1  0  0 501 502  0.0000000E+00  0.0000000E+00  5.2028795E+02  5.2028795E+02  0.0000000E+00  0.0000000E+00  1.0000000E+00
 21 -1  0  0 502 501  0.0000000E+00  0.0000000E+00 -4.8902295E+02  4.8902295E+02  0.0000000E+00  0.0000000E+00  1.0000000E+00
 39  2  1  2   0   0 -7.6738615E-13 -6.3948846E-14  3.1265006E+01  1.0093109E+03  1.0088265E+03  0.0000000E+00  1.0000000E+00
 23  2  3  3   0   0 -1.4904864E+02 -1.1292533E+01  4.8878542E+02  5.1914313E+02  9.0859085E+01  0.0000000E+00  1.0000000E+00
 23  2  3  3   0   0  1.4904864E+02  1.1292533E+01 -4.5752042E+02  4.9016777E+02  9.2717282E+01  0.0000000E+00  1.0000000E+00
-11  1  4  4   0   0 -9.8968312E+00 -2.9861130E+01  1.3283403E+02  1.3650829E+02  1.6627880E-05  0.0000000E+00  1.0000000E+00
 11  1  4  4   0   0 -1.3915181E+02  1.8568597E+01  3.5595140E+02  3.8263483E+02  2.6973983E-06  0.0000000E+00  1.0000000E+00
-13  1  5  5   0   0  1.4380313E+00  2.5486305E+01 -4.4086332E+01  5.0943344E+01  1.8688124E-05  0.0000000E+00  1.0000000E+00
 13  1  5  5   0   0  1.4761061E+02 -1.4193772E+01 -4.1343409E+02  4.3922443E+02  3.9609069E-06  0.0000000E+00  1.0000000E+00
</event>
<event>
9 100 1.0000000E+00 1.0000000E+03 7.8125000E-03 0.0000000E+00
 21 -1  0  0 501 502  0.0000000E+00  0.0000000E+00  6.9341746E+02  6.9341746E+02  0.0000000E+00  0.0000000E+00  1.0000000E+00
 21 -1  0  0 502 501  0.0000000E+00  0.0000000E+00 -3.6294296E+02  3.6294296E+02  0.0000000E+00  0.0000000E+00  1.0000000E+00
 39  2  1  2   0   0  2.9842795E-13  5.1159077E-13  3.3047450E+02  1.0563604E+03  1.0033364E+03  0.0000000E+00  1.0000000E+00
 23  2  3  3   0   0  8.8333649E+01  1.5551634E+02 -3.1906702E+02  3.7626533E+02  8.8225124E+01  0.0000000E+00  1.0000000E+00
 23  2  3  3   0   0 -8.8333649E+01 -1.5551634E+02  6.4954151E+02  6.8009508E+02  9.2935357E+01  0.0000000E+00  1.0000000E+00
-11  1  4  4   0   0  5.1252324E+01  1.5308989E+02 -2.4515625E+02  2.9353859E+02  3.3036247E-06  0.0000000E+00  1.0000000E+00
 11  1  4  4   0   0  3.7081325E+01  2.4264448E+00 -7.3910766E+01  8.2726741E+01  2.6973983E-06  0.0000000E+00  1.0000000E+00
-13  1  5  5   0   0 -5.1116365E+01 -9.2284407E+01  5.2544541E+02  5.3593113E+02  3.5683226E-06  0.0000000E+00  1.0000000E+00
 13  1  5  5   0   0 -3.7217284E+01 -6.3231931E+01  1.2409610E+02  1.4416395E+02  0.0000000E+00  0.0000000E+00  1.0000000E+00
</event>
<event>
9 100 1.0000000E+00 1.0000000E+03 7.8125000E-03 0.0000000E+00
 21 -1  0  0 501 502  0.0000000E+00  0.0000000E+00  1.1397741E+02  1.1397741E+02  0.0000000E+00  0.0000000E+00  1.0000000E+00
 21 -1  0  0 502 501  0.0000000E+00  0.0000000E+00 -2.1875454E+03  2.1875454E+03  0.0000000E+00  0.0000000E+00  1.0000000E+00
 39  2  1  2   0   0 -1.5006663E-11  7.6454398E-12 -2.0735679E+03  2.3015228E+03  9.9866063E+02  0.0000000E+00  1.0000000E+00
 23  2  3  3   0   0 -3.5185421E+02  1.8090334E+02 -1.7057897E+03  1.7536575E+03  9.5230284E+01  0.0000000E+00  1.0000000E+00
 23  2  3  3   0   0  3.5185421E+02 -1.8090334E+02 -3.6777827E+02  5.4786527E+02  9.1477311E+01  0.0000000E+00  1.0000000E+00
-11  1  4  4   0   0 -3.2380923E+02  1.6609337E+02 -1.4113401E+03  1.4575048E+03  0.0000000E+00  0.0000000E+00  1.0000000E+00
 11  1  4  4   0   0 -2.8044975E+01  1.4809971E+01 -2.9444961E+02  2.9615271E+02  3.7376247E-05  0.0000000E+00  1.0000000E+00
-13  1  5  5   0   0  3.3613056E+02 -1.5961359E+02 -3.1000226E+02  4.8431565E+02  5.7616453E-06  0.0000000E+00  1.0000000E+00
 13  1  5  5   0   0  1.5723648E+01 -2.1289747E+01 -5.7776011E+01  6.3549617E+01  2.7508173E-05  0.0000000E+00  1.0000000E+00
</event>
<event>
9 100 1.0000000E+00 1.0000000E+03 7.8125000E-03 0.0000000E+00
 21 -1  0  0 501 502  0.0000000E+00  0.0000000E+00  1.3308186E+02  1.3308186E+02  0.0000000E+00  0.0000000E+00  1.0000000E+00
 21 -1  0  0 502 501  0.0000000E+00  0.0000000E+00 -1.9163064E+03  1.9163064E+03  0.0000000E+00  0.0000000E+00  1.0000000E+00
 39  2  1  2   0   0 -2.1884716E-12  2.2737368E-12 -1.7832245E+03  2.0493883E+03  1.0100012E+03  0.0000000E+00  1.0000000E+00
 23  2  3  3   0   0 -1.8982684E+02  1.9697248E+02 -5.1437804E+01  2.9385495E+02  9.4193929E+01  0.0000000E+00  1.0000000E+00
 23  2  3  3   0   0  1.8982684E+02 -1.9697248E+02 -1.7317867E+03  1.7555333E+03  8.9328269E+01  0.0000000E+00  1.0000000E+00
-11  1  4  4   0   0 -1.4071962E+02  1.9397734E+02 -4.8959730E+01  2.4459410E+02  8.4692097E-06  0.0000000E+00  1.0000000E+00
 11  1  4  4   0   0 -4.9107223E+01  2.9951380E+00 -2.4780749E+00  4.9260847E+01  2.5775684E-05  0.0000000E+00  1.0000000E+00
-13  1  5  5   0   0  2.4857998E+01 -7.1276485E+01 -6.1884514E+02  6.2343209E+02  1.5258789E-05  0.0000000E+00  1.0000000E+00
 13  1  5  5   0   0  1.6496884E+02 -1.2569599E+02 -1.1129416E+03  1.1321012E+03  0.0000000E+00  0.0000000E+00  1.0000000E+00
</event>
<event>
9 100 1.0000000E+00 1.0000000E+03 7.8125000E-03 0.0000000E+00
 21 -1  0  0 501 502  0.0000000E+00  0.0000000E+00  1.8587598E+02  1.8587598E+02  0.0000000E+00  0.0000000E+00  1.0000000E+00
 21 -1  0  0 502 501  0.0000000E+00  0.0000000E+00 -1.3586762E+03  1.3586762E+03  0.0000000E+00  0.0000000E+00  1.0000000E+00
 39  2  1  2   0   0 -7.1054274E-14  8.5265128E-13 -1.1728003E+03  1.5445522E+03  1.0050777E+03  0.0000000E+00  1.0000000E+00
 23  2  3  3   0   0 -3.8679152E+01  2.5587575E+02 -4.4682981E+02  7.6822808E+02  5.6881371E+02  0.0000000E+00  1.0000000E+00
 23  2  3  3   0   0  3.8679152E+01 -2.5587575E+02 -7.2597045E+02  7.7632413E+02  9.3153608E+01  0.0000000E+00  1.0000000E+00
-11  1  4  4   0   0  1.3028393E+02 -6.4524777E+00  8.2091552E+01  1.5412514E+02  2.4126264E-05  0.0000000E+00  1.0000000E+00
 11  1  4  4   0   0 -1.6896308E+02  2.6232822E+02 -5.2892136E+02  6.1410294E+02  1.7764984E-05  0.0000000E+00  1.0000000E+00
-13  1  5  5   0   0  5.1096445E+01 -1.6087630E+02 -3.5354967E+02  3.9177723E+02  1.4273290E-05  0.0000000E+00  1.0000000E+00
 13  1  5  5   0   0 -1.2417292E+01 -9.4999450E+01 -3.7242078E+02  3.8454690E+02  3.8146973E-06  0.0000000E+00  1.0000000E+00
</event>
<event>
9 100 1.0000000E+00 1.0000000E+03 7.8125000E-03 0.0000000E+00
 21 -1  0  0 501 502  0.0000000E+00  0.0000000E+00  2.6180712E+02  2.6180712E+02  0.0000000E+00  0.0000000E+00  1.0000000E+00
 21 -1  0  0 502 501  0.0000000E+00  0.0000000E+00 -9.4946279E+02  9.4946279E+02  0.0000000E+00  0.0000000E+00  1.0000000E+00
 39  2  1  2   0   0 -3.9790393E-13 -1.0231815E-12 -6.8765567E+02  1.2112699E+03  9.9714817E+02  0.0000000E+00  1.0000000E+00
 23  2  3  3   0   0 -8.3847177E+01 -2.1697102E+02 -8.6805798E+02  9.0308824E+02  8.9089467E+01  0.0000000E+00  1.0000000E+00
 23  2  3  3   0   0  8.3847177E+01  2.1697102E+02  1.8040231E+02  3.0818167E+02  9.1236898E+01  0.0000000E+00  1.0000000E+00
-11  1  4  4   0   0 -7.6013873E+01 -1.7944900E+02 -8.1279947E+02  8.3583672E+02  4.1019083E-06  0.0000000E+00  1.0000000E+00
 11  1  4  4   0   0 -7.8333035E+00 -3.7522026E+01 -5.5258514E+01  6.7251516E+01  3.4119690E-05  0.0000000E+00  1.0000000E+00
-13  1  5  5   0   0  3.3282729E+01  5.1994893E+01  4.6912403E+00  6.1912977E+01  1.8688124E-05  0.0000000E+00  1.0000000E+00
 13  1  5  5   0   0  5.0564447E+01  1.6497613E+02  1.7571107E+02  2.4626869E+02  6.9043691E-06  0.0000000E+00  1.0000000E+00
</event>
<event>
9 100 1.0000000E+00 1.0000000E+03 7.8125000E-03 0.0000000E+00
 21 -1  0  0 501 502  0.0000000E+00  0.0000000E+00  5.7263253E+02  5.7263253E+02  0.0000000E+00  0.0000000E+00  1.0000000E+00
 21 -1  0  0 502 501  0.0000000E+00  0.0000000E+00 -4.3777193E+02  4.3777193E+02  0.0000000E+00  0.0000000E+00  1.0000000E+00
 39  2  1  2   0   0 -4.8316906E-13  8.5265128E-13  1.3486060E+02  1.0104045E+03  1.0013640E+03  0.0000000E+00  1.0000000E+00
 23  2  3  3   0   0 -2.4899765E+02  4.2247162E+02  5.6043022E+01  5.0525189E+02  1.0796554E+02  0.0000000E+00  1.0000000E+00
 23  2  3  3   0   0  2.4899765E+02 -4.2247162E+02  7.8817581E+01  5.0515257E+02  9.2113032E+01  0.0000000E+00  1.0000000E+00
-11  1  4  4   0   0 -2.0788791E+01  1.0255808E+02 -1.5618896E+01  1.0580304E+02  1.6128096E-05  0.0000000E+00  1.0000000E+00
 11  1  4  4   0   0 -2.2820886E+02  3.1991354E+02  7.1661918E+01  3.9944885E+02  4.2782684E-06  0.0000000E+00  1.0000000E+00
-13  1  5  5   0   0  1.7716675E+02 -2.4274751E+02  8.2247753E+01  3.1157520E+02  8.6535599E-06  0.0000000E+00  1.0000000E+00
 13  1  5  5   0   0  7.1830899E+01 -1.7972411E+02 -3.4301719E+00  1.9357737E+02  1.0271387E-05  0.0000000E+00  1.0000000E+00
</event>
<event>
9 100 1.0000000E+00 1.0000000E+03 7.8125000E-03 0.0000000E+00
 21 -1  0  0 501 502  0.0000000E+00  0.0000000E+00  6.0817970E+02  6.0817970E+02  0.0000000E+00  0.0000000E+00  1.0000000E+00
 21 -1  0  0 502 501  0.0000000E+00  0.0000000E+00 -4.0521573E+02  4.0521573E+02  0.0000000E+00  0.0000000E+00  1.0000000E+00
 39  2  1  2   0   0  2.2737368E-13  1.4210855E-14  2.0296397E+02  1.0133954E+03  9.9286250E+02  0.0000000E+00  1.0000000E+00
 23  2  3  3   0   0  2.8624998E+02  3.8879637E+01 -2.9986935E+02  4.2601233E+02  9.0078861E+01  0.0000000E+00  1.0000000E+00
 23  2  3  3   0   0 -2.8624998E+02 -3.8879637E+01  5.0283332E+02  5.8738311E+02  9.3417827E+01  0.0000000E+00  1.0000000E+00
-11  1  4  4   0   0  3.4716959E+01  4.4385043E+00 -2.6158881E+00  3.5097157E+01  1.3754087E-05  0.0000000E+00  1.0000000E+00
 11  1  4  4   0   0  2.5153303E+02  3.4441133E+01 -2.9725346E+02  3.9091517E+02  2.1938639E-06  0.0000000E+00  1.0000000E+00
-13  1  5  5   0   0 -1.9041423E+02 -1.8191262E+01  4.0971343E+02  4.5216546E+02  2.3360155E-06  0.0000000E+00  1.0000000E+00
 13  1  5  5   0   0 -9.5835755E+01 -2.0688376E+01  9.3119882E+01  1.3521765E+02  5.3947966E-06  0.0000000E+00  1.0000000E+00
</event>
<event>
9 100 1.0000000E+00 1.0000000E+03 7.8125000E-03 0.0000000E+00
 21 -1  0  0 501 502  0.0000000E+00  0.0000000E+00  4.8025969E+02  4.8025969E+02  0.0000000E+00  0.0000000E+00  1.0000000E+00
 21 -1  0  0 502 501  0.0000000E+00  0.0000000E+00 -5.1534754E+02  5.1534754E+02  0.0000000E+00  0.0000000E+00  1.0000000E+00
 39  2  1  2   0   0 -6.8212103E-13  2.2737368E-13 -3.5087854E+01  9.9560724E+02  9.9498875E+02  0.0000000E+00  1.0000000E+00
 23  2  3  3   0   0 -4.4555717E+02  1.5443167E+02  1.1263751E+02  4.9340723E+02  9.1614155E+01  0.0000000E+00  1.0000000E+00
 23  2  3  3   0   0  4.4555717E+02 -1.5443167E+02 -1.4772536E+02  5.0220000E+02  8.9508232E+01  0.0000000E+00  1.0000000E+00
-11  1  4  4   0   0 -2.4517694E+02  9.4582555E+01  1.0831527E+02  2.8423545E+02  9.4486053E-06  0.0000000E+00  1.0000000E+00
 11  1  4  4   0   0 -2.0038023E+02  5.9849117E+01  4.3222397E+00  2.0917179E+02  1.2434392E-05  0.0000000E+00  1.0000000E+00
-13  1  5  5   0   0  4.8115743E+01 -1.0416112E+01 -4.6059101E+01  6.7417067E+01  1.7006449E-05  0.0000000E+00  1.0000000E+00
 13  1  5  5   0   0  3.9744143E+02 -1.4401556E+02 -1.0166626E+02  4.3478294E+02  4.7683716E-06  0.0000000E+00  1.0000000E+00
</event>
<event>
9 100 1.0000000E+00 1.0000000E+03 7.8125000E-03 0.0000000E+00
 21 -1  0  0 501 502  0.0000000E+00  0.0000000E+00  2.1550023E+03  2.1550023E+03  0.0000000E+00  0.0000000E+00  1.0000000E+00
 21 -1  0  0 502 501  0.0000000E+00  0.0000000E+00 -1.1564017E+02  1.1564017E+02  0.0000000E+00  0.0000000E+00  1.0000000E+00
 39  2  1  2   0   0  2.4442670E-12  3.6948222E-13  2.0393621E+03  2.2706424E+03  9.9840841E+02  0.0000000E+00  1.0000000E+00
 23  2  3  3   0   0 -4.7544545E+02 -6.8772964E+01  7.9237044E+02  9.3115537E+02  9.1767708E+01  0.0000000E+00  1.0000000E+00
 23  2  3  3   0   0  4.7544545E+02  6.8772964E+01  1.2469917E+03  1.3394871E+03  9.1974682E+01  0.0000000E+00  1.0000000E+00
-11  1  4  4   0   0 -4.7292306E+02 -7.8156139E+01  7.7524159E+02  9.1146263E+02  2.6868409E-06  0.0000000E+00  1.0000000E+00
 11  1  4  4   0   0 -2.5223845E+00  9.3831751E+00  1.7128850E+01  1.9692737E+01  4.0370961E-05  0.0000000E+00  1.0000000E+00
-13  1  5  5   0   0  7.4824536E+01  4.3408143E+01  1.8728533E+02  2.0629777E+02  3.7376247E-05  0.0000000E+00  1.0000000E+00
 13  1  5  5   0   0  4.0062091E+02  2.5364821E+01  1.0597063E+03  1.1331893E+03  9.3440618E-06  0.0000000E+00  1.0000000E+00
</event>
<event>
9 100 1.0000000E+00 1.0000000E+03 7.8125000E-03 0.0000000E+00
 21 -1  0  0 501 502  0.0000000E+00  0.0000000E+00  2.5641740E+02  2.5641740E+02  0.0000000E+00  0.0000000E+00  1.0000000E+00
 21 -1  0  0 502 501  0.0000000E+00  0.0000000E+00 -9.9588255E+02  9.9588255E+02  0.0000000E+00  0.0000000E+00  1.0000000E+00
 39  2  1  2   0   0  3.4106051E-13  2.1032065E-12 -7.3946514E+02  1.2523000E+03  1.0106664E+03  0.0000000E+00  1.0000000E+00
 23  2  3  3   0   0 -5.3561119E+01 -3.2275885E+02  9.0669220E+01  3.5549346E+02  1.0541642E+02  0.0000000E+00  1.0000000E+00
 23  2  3  3   0   0  5.3561119E+01  3.2275885E+02 -8.3013437E+02  8.9680650E+02  8.9981980E+01  0.0000000E+00  1.0000000E+00
-11  1  4  4   0   0 -4.2249468E+00  2.6842700E+00  1.7628665E+01  1.8325537E+01  9.8186780E-06  0.0000000E+00  1.0000000E+00
 11  1  4  4   0   0 -4.9336172E+01 -3.2544312E+02  7.3040555E+01  3.3716792E+02  1.3696105E-06  0.0000000E+00  1.0000000E+00
-13  1  5  5   0   0  6.5632136E+00  2.0111437E+00 -7.1294362E+01  7.1624064E+01  1.0789593E-05  0.0000000E+00  1.0000000E+00
 13  1  5  5   0   0  4.6997905E+01  3.2074771E+02 -7.5884000E+02  8.2518243E+02  4.6720309E-06  0.0000000E+00  1.0000000E+00
</event>
<event>
9 100 1.0000000E+00 1.0000000E+03 7.8125000E-03 0.0000000E+00
 21 -1  0  0 501 502  0.0000000E+00  0.0000000E+00  1.4596379E+03  1.4596379E+03  0.0000000E+00  0.0000000E+00  1.0000000E+00
 21 -1  0  0 502 501  0.0000000E+00  0.0000000E+00 -1.7241386E+02  1.7241386E+02  0.0000000E+00  0.0000000E+00  1.0000000E+00
 39  2  1  2   0   0 -5.2295945E-12 -5.7553962E-13  1.2872241E+03  1.6320518E+03  1.0033181E+03  0.0000000E+00  1.0000000E+00
 23  2  3  3   0   0 -3.1369744E+02 -3.4381969E+01  1.2595406E+03  1.3017233E+03  9.1939507E+01  0.0000000E+00  1.0000000E+00
 23  2  3  3   0   0  3.1369744E+02  3.4381969E+01  2.7683467E+01  3.3032846E+02  9.3607236E+01  0.0000000E+00  1.0000000E+00
-11  1  4  4   0   0 -3.1957461E+02 -3.4217136E+01  1.2486064E+03  1.2893086E+03  1.9983118E-06  0.0000000E+00  1.0000000E+00
 11  1  4  4   0   0  5.8771683E+00 -1.6483315E-01  1.0934170E+01  1.2414683E+01  1.5258789E-05  0.0000000E+00  1.0000000E+00
-13  1  5  5   0   0  2.6409189E+02  3.9642905E+01 -1.0886754E+01  2.6727253E+02  5.4784419E-06  0.0000000E+00  1.0000000E+00
 13  1  5  5   0   0  4.9605551E+01 -5.2609359E+00  3.8570221E+01  6.3055929E+01  1.8067583E-05  0.0000000E+00  1.0000000E+00
</event>
<event>
9 100 1.0000000E+00 1.0000000E+03 7.8125000E-03 0.0000000E+00
 21 -1  0  0 501 502  0.0000000E+00  0.0000000E+00  1.5965212E+03  1.5965212E+03  0.0000000E+00  0.0000000E+00  1.0000000E+00
 21 -1  0  0 502 501  0.0000000E+00  0.0000000E+00 -1.5469774E+02  1.5469774E+02  0.0000000E+00  0.0000000E+00  1.0000000E+00
 39  2  1  2   0   0  7.7307050E-12  2.1884716E-12  1.4418234E+03  1.7512189E+03  9.9393807E+02  0.0000000E+00  1.0000000E+00
 23  2  3  3   0   0 -4.5495933E+02 -1.3132067E+02  5.0793398E+02  7.0029256E+02  9.0441298E+01  0.0000000E+00  1.0000000E+00
 23  2  3  3   0   0  4.5495933E+02  1.3132067E+02  9.3388946E+02  1.0509264E+03  8.9797537E+01  0.0000000E+00  1.0000000E+00
-11  1  4  4   0   0 -1.5500918E+02 -7.0547922E+01  1.3162375E+02  2.1524327E+02  1.2063132E-05  0.0000000E+00  1.0000000E+00
 11  1  4  4   0   0 -2.9995015E+02 -6.0772750E+01  3.7631023E+02  4.8504928E+02  5.3947966E-06  0.0000000E+00  1.0000000E+00
-13  1  5  5   0   0  1.2633617E+01  1.5249155E+01  1.6113490E+01  2.5530170E+01  1.5258789E-05  0.0000000E+00  1.0000000E+00
 13  1  5  5   0   0  4.4232571E+02  1.1607152E+02  9.1777597E+02  1.0253962E+03  1.3902073E-06  0.0000000E+00  1.0000000E+00
</event>
<event>
9 100 1.0000000E+00 1.0000000E+03 7.8125000E-03 0.0000000E+00
 21 -1  0  0 501 502  0.0000000E+00  0.0000000E+00  2.0799959E+02  2.0799959E+02  0.0000000E+00  0.0000000E+00  1.0000000E+00
 21 -1  0  0 502 501  0.0000000E+00  0.0000000E+00 -1.1934982E+03  1.1934982E+03  0.0000000E+00  0.0000000E+00  1.0000000E+00
 39  2  1  2   0   0 -3.2329694E-13 -7.2475359E-13 -9.8549862E+02  1.4014978E+03  9.9648811E+02  0.0000000E+00  1.0000000E+00
 23  2  3  3   0   0  1.6843952E+01  3.8802237E+01 -1.1788705E+03  1.1830862E+03  9.0377025E+01  0.0000000E+00  1.0000000E+00
 23  2  3  3   0   0 -1.6843952E+01 -3.8802237E+01  1.9337190E+02  2.1841156E+02  9.2312432E+01  0.0000000E+00  1.0000000E+00
-11  1  4  4   0   0 -1.0811861E+01  4.4767916E+00 -1.8575569E+01  2.1954265E+01  3.7376247E-05  0.0000000E+00  1.0000000E+00
 11  1  4  4   0   0  2.7655813E+01  3.4325446E+01 -1.1602950E+03  1.1611320E+03  2.7079145E-06  0.0000000E+00  1.0000000E+00
-13  1  5  5   0   0 -1.6893786E+01 -3.6845635E+01  2.0380487E+02  2.0779659E+02  2.6788956E-06  0.0000000E+00  1.0000000E+00
 13  1  5  5   0   0  4.9833551E-02 -1.9566021E+00 -1.0432964E+01  1.0614967E+01  1.2063132E-05  0.0000000E+00  1.0000000E+00
</event>
<event>
9 100 1.0000000E+00 1.0000000E+03 7.8125000E-03 0.0000000E+00
 21 -1  0  0 501 502  0.0000000E+00  0.0000000E+00  2.5991543E+02  2.5991543E+02  0.0000000E+00  0.0000000E+00  1.0000000E+00
 21 -1  0  0 502 501  0.0000000E+00  0.0000000E+00 -9.5161266E+02  9.5161266E+02  0.0000000E+00  0.0000000E+00  1.0000000E+00
 39  2  1  2   0   0  4.5474735E-13  1.5631940E-13 -6.9169724E+02  1.2115281E+03  9.9466338E+02  0.0000000E+00  1.0000000E+00
 23  2  3  3   0   0  3.9444063E+02  1.0858832E+02 -2.1272911E+01  4.1956705E+02  9.0604270E+01  0.0000000E+00  1.0000000E+00
 23  2  3  3   0   0 -3.9444063E+02 -1.0858832E+02 -6.7042433E+02  7.9196104E+02  1.0177759E+02  0.0000000E+00  1.0000000E+00
-11  1  4  4   0   0  7.0048928E+01 -1.2716852E+01 -1.7066257E+01  7.3210845E+01  1.5956131E-05  0.0000000E+00  1.0000000E+00
 11  1  4  4   0   0  3.2439171E+02  1.2130517E+02 -4.2066542E+00  3.4635620E+02  4.1088314E-06  0.0000000E+00  1.0000000E+00
-13  1  5  5   0   0 -7.9343105E+01 -1.1119327E+00 -2.0416130E+02  2.1903972E+02  1.4273290E-05  0.0000000E+00  1.0000000E+00
 13  1  5  5   0   0 -3.1509753E+02 -1.0747639E+02 -4.6626303E+02  5.7292132E+02  8.5299224E-06  0.0000000E+00  1.0000000E+00
</event>
<event>
9 100 1.0000000E+00 1.0000000E+03 7.8125000E-03 0.0000000E+00
 21 -1  0  0 501 502  0.0000000E+00  0.0000000E+00  2.6147482E+02  2.6147482E+02  0.0000000E+00  0.0000000E+00  1.0000000E+00
 21 -1  0  0 502 501  0.0000000E+00  0.0000000E+00 -9.5467047E+02  9.5467047E+02  0.0000000E+00  0.0000000E+00  1.0000000E+00
 39  2  1  2   0   0  8.5265128E-13 -1.6342483E-13 -6.9319565E+02  1.2161453E+03  9.9924429E+02  0.0000000E+00  1.0000000E+00
 23  2  3  3   0   0 -3.0027920E+02  5.3544425E+01 -8.1508847E+02  8.7509781E+02  9.1609806E+01  0.0000000E+00  1.0000000E+00
 23  2  3  3   0   0  3.0027920E+02 -5.3544425E+01  1.2189283E+02  3.4104748E+02  9.1765542E+01  0.0000000E+00  1.0000000E+00
-11  1  4  4   0   0 -2.6678066E+02  6.6234678E+01 -7.6947954E+02  8.1710324E+02  0.0000000E+00  0.0000000E+00  1.0000000E+00
 11  1  4  4   0   0 -3.3498543E+01 -1.2690253E+01 -4.5608936E+01  5.7994568E+01  0.0000000E+00  0.0000000E+00  1.0000000E+00
-13  1  5  5   0   0  2.3434776E+02 -7.9444955E+01  8.9244204E+01  2.6304924E+02  4.3702847E-06  0.0000000E+00  1.0000000E+00
 13  1  5  5   0   0  6.5931442E+01  2.5900530E+01  3.2648624E+01  7.7998238E+01  9.2462155E-06  0.0000000E+00  1.0000000E+00
</event>
<event>
9 100 1.0000000E+00 1.0000000E+03 7.8125000E-03 0.0000000E+00
 21 -1  0  0 501 502  0.0000000E+00  0.0000000E+00  1.1498735E+02  1.1498735E+02  0.0000000E+00  0.0000000E+00  1.0000000E+00
 21 -1  0  0 502 501  0.0000000E+00  0.0000000E+00 -1.6385341E+03  1.6385341E+03  0.0000000E+00  0.0000000E+00  1.0000000E+00
 39  2  1  2   0   0 -1.5916157E-12  2.8990144E-12 -1.5235467E+03  1.7535214E+03  8.6812601E+02  0.0000000E+00  1.0000000E+00
 23  2  3  3   0   0 -2.1072803E+02  3.6975473E+02 -8.2586669E+02  9.3105574E+02  6.0697116E+01  0.0000000E+00  1.0000000E+00
 23  2  3  3   0   0  2.1072803E+02 -3.6975473E+02 -6.9768005E+02  8.2246570E+02  9.2560862E+01  0.0000000E+00  1.0000000E+00
-11  1  4  4   0   0 -6.1585523E+01  1.1203917E+02 -3.1157886E+02  3.3678916E+02  2.0185481E-05  0.0000000E+00  1.0000000E+00
 11  1  4  4   0   0 -1.4914250E+02  2.5771556E+02 -5.1428783E+02  5.9426658E+02  1.0092740E-05  0.0000000E+00  1.0000000E+00
-13  1  5  5   0   0  2.0847540E+02 -3.5188583E+02 -6.9153842E+02  8.0343700E+02  3.4136346E-06  0.0000000E+00  1.0000000E+00
 13  1  5  5   0   0  2.2526307E+00 -1.7868896E+01 -6.1416346E+00  1.9028701E+01  4.2478671E-05  0.0000000E+00  1.0000000E+00
</event>
<event>
9 100 1.0000000E+00 1.0000000E+03 7.8125000E-03 0.0000000E+00
 21 -1  0  0 501 502  0.0000000E+00  0.0000000E+00  2.4810460E+02  2.4810460E+02  0.0000000E+00  0.0000000E+00  1.0000000E+00
 21 -1  0  0 502 501  0.0000000E+00  0.0000000E+00 -1.0280506E+03  1.0280506E+03  0.0000000E+00  0.0000000E+00  1.0000000E+00
 39  2  1  2   0   0  1.4210855E-12  8.8107299E-13 -7.7994604E+02  1.2761552E+03  1.0100774E+03  0.0000000E+00  1.0000000E+00
 23  2  3  3   0   0  3.9382590E+02  2.3678515E+02 -1.5149855E+02  4.9259745E+02  9.2381763E+01  0.0000000E+00  1.0000000E+00
 23  2  3  3   0   0 -3.9382590E+02 -2.3678515E+02 -6.2844749E+02  7.8355778E+02  8.8603081E+01  0.0000000E+00  1.0000000E+00
-11  1  4  4   0   0  1.1897258E+01  1.2481207E+01 -2.7819239E+01  3.2729732E+01  1.7113074E-05  0.0000000E+00  1.0000000E+00
 11  1  4  4   0   0  3.8192864E+02  2.2430394E+02 -1.2367931E+02  4.5986772E+02  2.2868307E-06  0.0000000E+00  1.0000000E+00
-13  1  5  5   0   0 -2.2418697E+02 -1.7146741E+02 -4.3084074E+02  5.1505788E+02  2.6973983E-06  0.0000000E+00  1.0000000E+00
 13  1  5  5   0   0 -1.6963893E+02 -6.5317736E+01 -1.9760675E+02  2.6849991E+02  1.6184390E-05  0.0000000E+00  1.0000000E+00
</event>
<event>
9 100 1.0000000E+00 1.0000000E+03 7.8125000E-03 0.0000000E+00
 21 -1  0  0 501 502  0.0000000E+00  0.0000000E+00  3.1859926E+02  3.1859926E+02  0.0000000E+00  0.0000000E+00  1.0000000E+00
 21 -1  0  0 502 501  0.0000000E+00  0.0000000E+00 -7.8087317E+02  7.8087317E+02  0.0000000E+00  0.0000000E+00  1.0000000E+00
 39  2  1  2   0   0 -4.7961635E-14  1.3926638E-12 -4.6227391E+02  1.0994724E+03  9.9756827E+02  0.0000000E+00  1.0000000E+00
 23  2  3  3   0   0 -8.0385158E+00  2.3989852E+02 -7.0203092E+02  7.4758823E+02  9.1786913E+01  0.0000000E+00  1.0000000E+00
 23  2  3  3   0   0  8.0385158E+00 -2.3989852E+02  2.3975701E+02  3.5188420E+02  9.3397769E+01  0.0000000E+00  1.0000000E+00
-11  1  4  4   0   0 -4.1282418E+00  6.0836916E+00  2.9116189E-01  7.3578842E+00  0.0000000E+00  0.0000000E+00  1.0000000E+00
 11  1  4  4   0   0 -3.9102741E+00  2.3381483E+02 -7.0232208E+02  7.4023035E+02  9.6320188E-07  0.0000000E+00  1.0000000E+00
-13  1  5  5   0   0  3.3035623E+01 -2.1975227E+02  1.8849241E+02  2.9139629E+02  6.4681339E-06  0.0000000E+00  1.0000000E+00
 13  1  5  5   0   0 -2.4997107E+01 -2.0146259E+01  5.1264605E+01  6.0487906E+01  2.1239335E-05  0.0000000E+00  1.0000000E+00
</event>
<event>
9 100 1.0000000E+00 1.0000000E+03 7.8125000E-03 0.0000000E+00
 21 -1  0  0 501 502  0.0000000E+00  0.0000000E+00  1.7368248E+02  1.7368248E+02  0.0000000E+00  0.0000000E+00  1.0000000E+00
 21 -1  0  0 502 501  0.0000000E+00  0.0000000E+00 -1.4729071E+03  1.4729071E+03  0.0000000E+00  0.0000000E+00  1.0000000E+00
 39  2  1  2   0   0 -1.4210855E-12  2.0463631E-12 -1.2992247E+03  1.6465896E+03  1.0115694E+03  0.0000000E+00  1.0000000E+00
 23  2  3  3   0   0 -2.7855407E+02  3.5618740E+02 -9.8698355E+02  1.0895207E+03  9.1961859E+01  0.0000000E+00  1.0000000E+00
 23  2  3  3   0   0  2.7855407E+02 -3.5618740E+02 -3.1224111E+02  5.5706892E+02  9.1484610E+01  0.0000000E+00  1.0000000E+00
-11  1  4  4   0   0 -2.1211046E+02  3.0029268E+02 -7.1453827E+02  8.0357419E+02  8.5299224E-06  0.0000000E+00  1.0000000E+00
 11  1  4  4   0   0 -6.6443614E+01  5.5894723E+01 -2.7244528E+02  2.8594651E+02  2.0185481E-05  0.0000000E+00  1.0000000E+00
-13  1  5  5   0   0  3.8859507E+00 -8.2257900E+00  6.4037746E+00  1.1125312E+01  2.1579186E-05  0.0000000E+00  1.0000000E+00
 13  1  5  5   0   0  2.7466812E+02 -3.4796161E+02 -3.1864488E+02  5.4594361E+02  1.5702176E-06  0.0000000E+00  1.0000000E+00
</event>
<event>
9 100 1.0000000E+00 1.0000000E+03 7.8125000E-03 0.0000000E+00
 21 -1  0  0 501 502  0.0000000E+00  0.0000000E+00  3.3983571E+02  3.3983571E+02  0.0000000E+00  0.0000000E+00  1.0000000E+00
 21 -1  0  0 502 501  0.0000000E+00  0.0000000E+00 -7.1951026E+02  7.1951026E+02  0.0000000E+00  0.0000000E+00  1.0000000E+00
 39  2  1  2   0   0 -5.6843419E-13 -1.1937118E-12 -3.7967455E+02  1.0593460E+03  9.8896972E+02  0.0000000E+00  1.0000000E+00
 23  2  3  3   0   0  1.8314918E+02  4.2088614E+02 -1.8757933E+01  4.6833942E+02  9.1110856E+01  0.0000000E+00  1.0000000E+00
 23  2  3  3   0   0 -1.8314918E+02 -4.2088614E+02 -3.6091662E+02  5.9100654E+02  9.1318996E+01  0.0000000E+00  1.0000000E+00
-11  1  4  4   0   0  1.4296581E+02  2.3617483E+02 -3.6495182E+01  2.7847742E+02  9.5516327E-06  0.0000000E+00  1.0000000E+00
 11  1  4  4   0   0  4.0183375E+01  1.8471131E+02  1.7737249E+01  1.8986201E+02  1.2287234E-05  0.0000000E+00  1.0000000E+00
-13  1  5  5   0   0 -6.7093972E+01 -2.3982667E+02 -1.5544131E+02  2.9356504E+02  1.2936268E-05  0.0000000E+00  1.0000000E+00
 13  1  5  5   0   0 -1.1605521E+02 -1.8105948E+02 -2.0547531E+02  2.9744151E+02  1.4774259E-05  0.0000000E+00  1.0000000E+00
</event>
<event>
9 100 1.0000000E+00 1.0000000E+03 7.8125000E-03 0.0000000E+00
 21 -1  0  0 501 502  0.0000000E+00  0.0000000E+00  4.2820698E+02  4.2820698E+02  0.0000000E+00  0.0000000E+00  1.0000000E+00
 21 -1  0  0 502 501  0.0000000E+00  0.0000000E+00 -5.8377744E+02  5.8377744E+02  0.0000000E+00  0.0000000E+00  1.0000000E+00
 39  2  1  2   0   0 -7.8159701E-14  4.5474735E-13 -1.5557047E+02  1.0119844E+03  9.9995515E+02  0.0000000E+00  1.0000000E+00
 23  2  3  3   0   0  5.2899109E+01 -3.4580442E+02 -4.2679597E+02  5.5951758E+02  9.2336952E+01  0.0000000E+00  1.0000000E+00
 23  2  3  3   0   0 -5.2899109E+01  3.4580442E+02  2.7122550E+02  4.5246684E+02  9.3722789E+01  0.0000000E+00  1.0000000E+00
-11  1  4  4   0   0 -7.1803704E-01 -1.8465518E+02 -2.7789334E+02  3.3365065E+02  6.0315660E-06  0.0000000E+00  1.0000000E+00
 11  1  4  4   0   0  5.3617146E+01 -1.6114924E+02 -1.4890263E+02  2.2586692E+02  1.2063132E-05  0.0000000E+00  1.0000000E+00
-13  1  5  5   0   0 -2.3852667E+00  3.3699213E+01 -3.0377030E+00  3.3919819E+01  1.9073486E-05  0.0000000E+00  1.0000000E+00
 13  1  5  5   0   0 -5.0513843E+01  3.1210520E+02  2.7426320E+02  4.1854702E+02  3.3940645E-06  0.0000000E+00  1.0000000E+00
</event>
<event>
9 100 1.0000000E+00 1.0000000E+03 7.8125000E-03 0.0000000E+00
 21 -1  0  0 501 502  0.0000000E+00  0.0000000E+00  3.0365310E+02  3.0365310E+02  0.0000000E+00  0.0000000E+00  1.0000000E+00
 21 -1  0  0 502 501  0.0000000E+00  0.0000000E+00 -9.5164739E+02  9.5164739E+02  0.0000000E+00  0.0000000E+00  1.0000000E+00
 39  2  1  2   0   0 -8.2422957E-13  2.8421709E-12 -6.4799429E+02  1.2553005E+03  1.0751199E+03  0.0000000E+00  1.0000000E+00
 23  2  3  3   0   0 -1.2861109E+02  4.4381863E+02 -6.2621552E+02  7.8377598E+02  9.2968408E+01  0.0000000E+00  1.0000000E+00
 23  2  3  3   0   0  1.2861109E+02 -4.4381863E+02 -2.1778774E+01  4.7152450E+02  9.1352335E+01  0.0000000E+00  1.0000000E+00
-11  1  4  4   0   0 -1.1905676E+01  1.3600370E+02 -1.3158951E+02  1.8961685E+02  2.2888184E-05  0.0000000E+00  1.0000000E+00
 11  1  4  4   0   0 -1.1670541E+02  3.0781494E+02 -4.9462601E+02  5.9415913E+02  8.0921949E-06  0.0000000E+00  1.0000000E+00
-13  1  5  5   0   0  7.4532396E+01 -3.3492929E+02 -4.9911950E+01  3.4673320E+02  7.9504642E-06  0.0000000E+00  1.0000000E+00
 13  1  5  5   0   0  5.4078689E+01 -1.0888934E+02  2.8133176E+01  1.2479130E+02  1.8541548E-05  0.0000000E+00  1.0000000E+00
</event>
<event>
9 100 1.0000000E+00 1.0000000E+03 7.8125000E-03 0.0000000E+00
 21 -1  0  0 501 502  0.0000000E+00  0.0000000E+00  1.6572304E+03  1.6572304E+03  0.0000000E+00  0.0000000E+00  1.0000000E+00
 21 -1  0  0 502 501  0.0000000E+00  0.0000000E+00 -1.4893194E+02  1.4893194E+02  0.0000000E+00  0.0000000E+00  1.0000000E+00
 39  2  1  2   0   0  4.5474735E-13  2.1600499E-12  1.5082985E+03  1.8061624E+03  9.9360867E+02  0.0000000E+00  1.0000000E+00
 23  2  3  3   0   0  8.4497142E+01  4.0805911E+02  1.2155657E+03  1.2882773E+03  9.1686949E+01  0.0000000E+00  1.0000000E+00
 23  2  3  3   0   0 -8.4497142E+01 -4.0805911E+02  2.9273283E+02  5.1788509E+02  9.4129940E+01  0.0000000E+00  1.0000000E+00
-11  1  4  4   0   0 -1.0810418E+01  1.2536297E+02  2.9951801E+02  3.2487501E+02  3.2368780E-05  0.0000000E+00  1.0000000E+00
 11  1  4  4   0   0  9.5307560E+01  2.8269614E+02  9.1604767E+02  9.6340229E+02  1.2063132E-05  0.0000000E+00  1.0000000E+00
-13  1  5  5   0   0 -5.0351620E+01 -1.5892184E+02  1.6987822E+02  2.3801270E+02  1.0092740E-05  0.0000000E+00  1.0000000E+00
 13  1  5  5   0   0 -3.4145522E+01 -2.4913727E+02  1.2285462E+02  2.7987238E+02  1.1757687E-05  0.0000000E+00  1.0000000E+00
</event>
<event>
9 100 1.0000000E+00 1.0000000E+03 7.8125000E-03 0.0000000E+00
 21 -1  0  0 501 502  0.0000000E+00  0.0000000E+00  3.9490058E+02  3.9490058E+02  0.0000000E+00  0.0000000E+00  1.0000000E+00
 21 -1  0  0 502 501  0.0000000E+00  0.0000000E+00 -6.4303988E+02  6.4303988E+02  0.0000000E+00  0.0000000E+00  1.0000000E+00
 39  2  1  2   0   0 -5.4001248E-13 -1.4779289E-12 -2.4813929E+02  1.0379405E+03  1.0078429E+03  0.0000000E+00  1.0000000E+00
 23  2  3  3   0   0 -1.7736812E+02 -4.5209322E+02 -2.1978330E+01  4.9452706E+02  9.0698629E+01  0.0000000E+00  1.0000000E+00
 23  2  3  3   0   0  1.7736812E+02  4.5209322E+02 -2.2616096E+02  5.4341340E+02  9.1113178E+01  0.0000000E+00  1.0000000E+00
-11  1  4  4   0   0  2.4219771E-01 -8.7230857E+01 -1.6006836E+01  8.8687654E+01  1.7666318E-05  0.0000000E+00  1.0000000E+00
 11  1  4  4   0   0 -1.7761032E+02 -3.6486236E+02 -5.9714940E+00  4.0583941E+02  1.2388593E-06  0.0000000E+00  1.0000000E+00
-13  1  5  5   0   0  5.7971254E+00  1.1665801E+02 -4.2795300E+01  1.2439508E+02  7.6293945E-06  0.0000000E+00  1.0000000E+00
 13  1  5  5   0   0  1.7157100E+02  3.3543521E+02 -1.8336566E+02  4.1901832E+02  1.9073486E-06  0.0000000E+00  1.0000000E+00
</event>
<event>
9 100 1.0000000E+00 1.0000000E+03 7.8125000E-03 0.0000000E+00
 21 -1  0  0 501 502  0.0000000E+00  0.0000000E+00  1.5408107E+02  1.5408107E+02  0.0000000E+00  0.0000000E+00  1.0000000E+00
 21 -1  0  0 502 501  0.0000000E+00  0.0000000E+00 -1.6153881E+03  1.6153881E+03  0.0000000E+00  0.0000000E+00  1.0000000E+00
 39  2  1  2   0   0  5.3290705E-14 -1.6484591E-12 -1.4613070E+03  1.7694692E+03  9.9779902E+02  0.0000000E+00  1.0000000E+00
 23  2  3  3   0   0  1.1135411E+01 -3.1898370E+02 -1.3917074E+03  1.4307513E+03  9.1242415E+01  0.0000000E+00  1.0000000E+00
 23  2  3  3   0   0 -1.1135411E+01  3.1898370E+02 -6.9599636E+01  3.3871787E+02  8.9504694E+01  0.0000000E+00  1.0000000E+00
-11  1  4  4   0   0 -9.8839217E+00 -1.9429929E+02 -1.0123996E+03  1.0309233E+03  7.6293945E-06  0.0000000E+00  1.0000000E+00
 11  1  4  4   0   0  2.1019332E+01 -1.2468442E+02 -3.7930779E+02  3.9982798E+02  1.0789593E-05  0.0000000E+00  1.0000000E+00
-13  1  5  5   0   0  2.1496592E+01  2.7606143E+02 -5.0168339E+01  2.8140519E+02  1.7026492E-06  0.0000000E+00  1.0000000E+00
 13  1  5  5   0   0 -3.2632002E+01  4.2922270E+01 -1.9431296E+01  5.7312687E+01  7.9218138E-06  0.0000000E+00  1.0000000E+00
</event>
<event>
9 100 1.0000000E+00 1.0000000E+03 7.8125000E-03 0.0000000E+00
 21 -1  0  0 501 502  0.0000000E+00  0.0000000E+00  6.3701140E+02  6.3701140E+02  0.0000000E+00  0.0000000E+00  1.0000000E+00
 21 -1  0  0 502 501  0.0000000E+00  0.0000000E+00 -3.9487865E+02  3.9487865E+02  0.0000000E+00  0.0000000E+00  1.0000000E+00
 39  2  1  2   0   0  1.1368684E-12 -5.9685590E-13  2.4213275E+02  1.0318900E+03  1.0030797E+03  0.0000000E+00  1.0000000E+00
 23  2  3  3   0   0  3.2414653E+02 -1.6989093E+02 -2.1899052E+02  4.3610080E+02  9.1066763E+01  0.0000000E+00  1.0000000E+00
 23  2  3  3   0   0 -3.2414653E+02  1.6989093E+02  4.6112327E+02  5.9578925E+02  9.1631142E+01  0.0000000E+00  1.0000000E+00
-11  1  4  4   0   0  6.6052180E+01 -7.8284829E+01 -7.2732224E+01  1.2562397E+02  1.1911388E-05  0.0000000E+00  1.0000000E+00
 11  1  4  4   0   0  2.5809435E+02 -9.1606098E+01 -1.4625829E+02  3.1047683E+02  6.0315660E-06  0.0000000E+00  1.0000000E+00
-13  1  5  5   0   0 -1.1731159E+02  9.2028512E+01  1.3074936E+02  1.9830948E+02  1.5728400E-05  0.0000000E+00  1.0000000E+00
 13  1  5  5   0   0 -2.0683495E+02  7.7862415E+01  3.3037391E+02  3.9747977E+02  8.7405695E-06  0.0000000E+00  1.0000000E+00
</event>
<event>
9 100 1.0000000E+00 1.0000000E+03 7.8125000E-03 0.0000000E+00
 21 -1  0  0 501 502  0.0000000E+00  0.0000000E+00  3.0728936E+02  3.0728936E+02  0.0000000E+00  0.0000000E+00  1.0000000E+00
 21 -1  0  0 502 501  0.0000000E+00  0.0000000E+00 -8.0322685E+02  8.0322685E+02  0.0000000E+00  0.0000000E+00  1.0000000E+00
 39  2  1  2   0   0 -1.6768809E-12 -7.8159701E-13 -4.9593750E+02  1.1105162E+03  9.9362581E+02  0.0000000E+00  1.0000000E+00
 23  2  3  3   0   0  1.9370100E+02  9.1043847E+01 -7.3905262E+02  7.7442144E+02  8.7867703E+01  0.0000000E+00  1.0000000E+00
 23  2  3  3   0   0 -1.9370100E+02 -9.1043847E+01  2.4311512E+02  3.3609477E+02  8.9697677E+01  0.0000000E+00  1.0000000E+00
-11  1  4  4   0   0  4.2303619E+01 -1.0614297E+01 -8.6600004E+01  9.6962984E+01  1.8688124E-05  0.0000000E+00  1.0000000E+00
 11  1  4  4   0   0  1.5139738E+02  1.0165814E+02 -6.5245262E+02  6.7745846E+02  3.3036247E-06  0.0000000E+00  1.0000000E+00
-13  1  5  5   0   0 -1.8323923E+02 -6.7373302E+01  2.4096118E+02  3.1012589E+02  3.2574634E-06  0.0000000E+00  1.0000000E+00
 13  1  5  5   0   0 -1.0461773E+01 -2.3670544E+01  2.1539404E+00  2.5968882E+01  1.4525934E-05  0.0000000E+00  1.0000000E+00
</event>
<event>
9 100 1.0000000E+00 1.0000000E+03 7.8125000E-03 0.0000000E+00
 21 -1  0  0 501 502  0.0000000E+00  0.0000000E+00  1.8157138E+03  1.8157138E+03  0.0000000E+00  0.0000000E+00  1.0000000E+00
 21 -1  0  0 502 501  0.0000000E+00  0.0000000E+00 -1.3721382E+02  1.3721382E+02  0.0000000E+00  0.0000000E+00  1.0000000E+00
 39  2  1  2   0   0  6.8212103E-13  5.6843419E-13  1.6785000E+03  1.9529276E+03  9.9828056E+02  0.0000000E+00  1.0000000E+00
 23  2  3  3   0   0 -1.9193512E+02 -1.5567409E+02  1.2083020E+01  2.6495284E+02  9.4765471E+01  0.0000000E+00  1.0000000E+00
 23  2  3  3   0   0  1.9193512E+02  1.5567409E+02  1.6664169E+03  1.6879747E+03  1.0601810E+02  0.0000000E+00  1.0000000E+00
-11  1  4  4   0   0 -3.0616802E+01  1.7242836E+00  2.4465603E+01  3.9229166E+01  1.8317934E-05  0.0000000E+00  1.0000000E+00
 11  1  4  4   0   0 -1.6131832E+02 -1.5739838E+02 -1.2382583E+01  2.2572367E+02  5.9077795E-06  0.0000000E+00  1.0000000E+00
-13  1  5  5   0   0  2.8317023E+01  6.2744079E+01  7.0240721E+02  7.0577232E+02  5.5016346E-05  0.0000000E+00  1.0000000E+00
 13  1  5  5   0   0  1.6361810E+02  9.2930015E+01  9.6400972E+02  9.8220243E+02  4.3158373E-05  0.0000000E+00  1.0000000E+00
</event>
<event>
9 100 1.0000000E+00 1.0000000E+03 7.8125000E-03 0.0000000E+00
 21 -1  0  0 501 502  0.0000000E+00  0.0000000E+00  1.9466343E+02  1.9466343E+02  0.0000000E+00  0.0000000E+00  1.0000000E+00
 21 -1  0  0 502 501  0.0000000E+00  0.0000000E+00 -1.2808565E+03  1.2808565E+03  0.0000000E+00  0.0000000E+00  1.0000000E+00
 39  2  1  2   0   0  5.1159077E-13 -1.1368684E-12 -1.0861931E+03  1.4755200E+03  9.9867098E+02  0.0000000E+00  1.0000000E+00
 23  2  3  3   0   0 -1.2067150E+02  2.8289850E+02 -1.1080708E+03  1.1533251E+03  8.8003498E+01  0.0000000E+00  1.0000000E+00
 23  2  3  3   0   0  1.2067150E+02 -2.8289850E+02  2.1877692E+01  3.2219492E+02  9.3476009E+01  0.0000000E+00  1.0000000E+00
-11  1  4  4   0   0 -1.0557634E+02  2.6077312E+02 -8.8472232E+02  9.2837631E+02  6.6072495E-06  0.0000000E+00  1.0000000E+00
 11  1  4  4   0   0 -1.5095158E+01  2.2125379E+01 -2.2334848E+02  2.2494875E+02  3.4119690E-05  0.0000000E+00  1.0000000E+00
-13  1  5  5   0   0  2.2327003E+01 -5.1312894E-01  3.5519931E+00  2.2613602E+01  1.5840039E-05  0.0000000E+00  1.0000000E+00
 13  1  5  5   0   0  9.8344494E+01 -2.8238537E+02  1.8325699E+01  2.9958132E+02  2.4506861E-06  0.0000000E+00  1.0000000E+00
</event>
<event>
9 100 1.0000000E+00 1.0000000E+03 7.8125000E-03 0.0000000E+00
 21 -1  0  0 501 502  0.0000000E+00  0.0000000E+00  3.0298113E+03  3.0298113E+03  0.0000000E+00  0.0000000E+00  1.0000000E+00
 21 -1  0  0 502 501  0.0000000E+00  0.0000000E+00 -8.3045639E+01  8.3045639E+01  0.0000000E+00  0.0000000E+00  1.0000000E+00
 39  2  1  2   0   0 -7.0485839E-12 -6.9348971E-12  2.9467657E+03  3.1128570E+03  1.0032200E+03  0.0000000E+00  1.0000000E+00
 23  2  3  3   0   0  3.4738560E+02  3.4151677E+02  1.2367584E+03  1.3324286E+03  9.2110270E+01  0.0000000E+00  1.0000000E+00
 23  2  3  3   0   0 -3.4738560E+02 -3.4151677E+02  1.7100073E+03  1.7804284E+03  9.2139109E+01  0.0000000E+00  1.0000000E+00
-11  1  4  4   0   0 -3.7544196E+00  1.5002742E+00  3.2584286E+01  3.2834162E+01  5.2857996E-05  0.0000000E+00  1.0000000E+00
 11  1  4  4   0   0  3.5114002E+02  3.4001649E+02  1.2041741E+03  1.2995945E+03  3.6000416E-06  0.0000000E+00  1.0000000E+00
-13  1  5  5   0   0 -2.6729165E+02 -2.1636567E+02  1.2839311E+03  1.3291870E+03  2.4722064E-05  0.0000000E+00  1.0000000E+00
 13  1  5  5   0   0 -8.0093949E+01 -1.2515110E+02  4.2607623E+02  4.5124139E+02  6.1035156E-05  0.0000000E+00  1.0000000E+00
</event>
<event>
9 100 1.0000000E+00 1.0000000E+03 7.8125000E-03 0.0000000E+00
 21 -1  0  0 501 502  0.0000000E+00  0.0000000E+00  4.0369833E+02  4.0369833E+02  0.0000000E+00  0.0000000E+00  1.0000000E+00
 21 -1  0  0 502 501  0.0000000E+00  0.0000000E+00 -6.3876852E+02  6.3876852E+02  0.0000000E+00  0.0000000E+00  1.0000000E+00
 39  2  1  2   0   0 -1.3145041E-13 -6.8212103E-13 -2.3507019E+02  1.0424668E+03  1.0156176E+03  0.0000000E+00  1.0000000E+00
 23  2  3  3   0   0 -3.0431823E+01 -1.5175899E+02  3.7035423E+02  4.1140139E+02  9.0177391E+01  0.0000000E+00  1.0000000E+00
 23  2  3  3   0   0  3.0431823E+01  1.5175899E+02 -6.0542442E+02  6.3106546E+02  8.8022747E+01  0.0000000E+00  1.0000000E+00
-11  1  4  4   0   0 -3.3870171E+01 -1.4212583E+02  2.4231982E+02  2.8295907E+02  7.3871295E-06  0.0000000E+00  1.0000000E+00
 11  1  4  4   0   0  3.4383482E+00 -9.6331631E+00  1.2803441E+02  1.2844232E+02  1.3214499E-05  0.0000000E+00  1.0000000E+00
-13  1  5  5   0   0  3.2162758E+01  9.3537344E+01 -5.0813386E+02  5.1767142E+02  3.3036247E-06  0.0000000E+00  1.0000000E+00
 13  1  5  5   0   0 -1.7309351E+00  5.8221646E+01 -9.7290553E+01  1.1339404E+02  9.3440618E-06  0.0000000E+00  1.0000000E+00
</event>
<event>
9 100 1.0000000E+00 1.0000000E+03 7.8125000E-03 0.0000000E+00
 21 -1  0  0 501 502  0.0000000E+00  0.0000000E+00  9.1496910E+02  9.1496910E+02  0.0000000E+00  0.0000000E+00  1.0000000E+00
 21 -1  0  0 502 501  0.0000000E+00  0.0000000E+00 -2.7437428E+02  2.7437428E+02  0.0000000E+00  0.0000000E+00  1.0000000E+00
 39  2  1  2   0   0  2.6716407E-12  1.1084467E-12  6.4059482E+02  1.1893434E+03  1.0020858E+03  0.0000000E+00  1.0000000E+00
 23  2  3  3   0   0 -3.4298254E+02 -1.5408620E+02 -5.7957400E+01  3.9060929E+02  8.8526705E+01  0.0000000E+00  1.0000000E+00
 23  2  3  3   0   0  3.4298254E+02  1.5408620E+02  6.9855222E+02  7.9873409E+02  9.2851290E+01  0.0000000E+00  1.0000000E+00
-11  1  4  4   0   0 -6.3779023E+01 -2.2881523E+01  2.3193857E+01  7.1619012E+01  1.0315565E-05  0.0000000E+00  1.0000000E+00
 11  1  4  4   0   0 -2.7920351E+02 -1.3120467E+02 -8.1151257E+01  3.1899028E+02  1.7192608E-06  0.0000000E+00  1.0000000E+00
-13  1  5  5   0   0  7.3793283E+01  2.1472552E+00  9.1984358E+01  1.1794567E+02  1.0789593E-05  0.0000000E+00  1.0000000E+00
 13  1  5  5   0   0  2.6918925E+02  1.5193894E+02  6.0656786E+02  6.8078842E+02  3.5683226E-06  0.0000000E+00  1.0000000E+00
</event>
<event>
9 100 1.0000000E+00 1.0000000E+03 7.8125000E-03 0.0000000E+00
 21 -1  0  0 501 502  0.0000000E+00  0.0000000E+00  2.2308826E+02  2.2308826E+02  0.0000000E+00  0.0000000E+00  1.0000000E+00
 21 -1  0  0 502 501  0.0000000E+00  0.0000000E+00 -1.1241963E+03  1.1241963E+03  0.0000000E+00  0.0000000E+00  1.0000000E+00
 39  2  1  2   0   0  1.5916157E-12  8.3844043E-13 -9.0110802E+02  1.3472846E+03  1.0015887E+03  0.0000000E+00  1.0000000E+00
 23  2  3  3   0   0  1.2262331E+02  6.5658286E+01 -1.0857967E+03  1.0985246E+03  9.1947377E+01  0.0000000E+00  1.0000000E+00
 23  2  3  3   0   0 -1.2262331E+02 -6.5658286E+01  1.8468872E+02  2.4875991E+02  9.1782794E+01  0.0000000E+00  1.0000000E+00
-11  1  4  4   0   0  1.2749135E+02  7.4068596E+01 -1.0689909E+03  1.0791116E+03  1.4697108E-06  0.0000000E+00  1.0000000E+00
 11  1  4  4   0   0 -4.8680429E+00 -8.4103109E+00 -1.6805806E+01  1.9413044E+01  1.5258789E-05  0.0000000E+00  1.0000000E+00
-13  1  5  5   0   0 -1.1498231E+02 -2.3065699E+01  1.0196620E+02  1.5540291E+02  6.1805160E-06  0.0000000E+00  1.0000000E+00
 13  1  5  5   0   0 -7.6409987E+00 -4.2592587E+01  8.2722529E+01  9.3357003E+01  7.5092391E-06  0.0000000E+00  1.0000000E+00
</event>
<event>
9 100 1.0000000E+00 1.0000000E+03 7.8125000E-03 0.0000000E+00
 21 -1  0  0 501 502  0.0000000E+00  0.0000000E+00  3.1965047E+02  3.1965047E+02  0.0000000E+00  0.0000000E+00  1.0000000E+00
 21 -1  0  0 502 501  0.0000000E+00  0.0000000E+00 -7.8778833E+02  7.8778833E+02  0.0000000E+00  0.0000000E+00  1.0000000E+00
 39  2  1  2   0   0  7.3896445E-13 -9.2370556E-14 -4.6813786E+02  1.1074388E+03  1.0036272E+03  0.0000000E+00  1.0000000E+00
 23  2  3  3   0   0 -2.4194741E+02  3.0519513E+01 -7.0734782E+02  7.5365505E+02  9.0471051E+01  0.0000000E+00  1.0000000E+00
 23  2  3  3   0   0  2.4194741E+02 -3.0519513E+01  2.3920996E+02  3.5378375E+02  9.2041004E+01  0.0000000E+00  1.0000000E+00
-11  1  4  4   0   0 -2.2332408E+02  3.6638367E+01 -6.9392827E+02  7.2989893E+02  4.7683716E-07  0.0000000E+00  1.0000000E+00
 11  1  4  4   0   0 -1.8623328E+01 -6.1188534E+00 -1.3419551E+01  2.3756117E+01  1.0789593E-05  0.0000000E+00  1.0000000E+00
-13  1  5  5   0   0  4.6084068E+01 -2.7660698E+01  9.9808312E+01  1.1336029E+02  5.7220459E-06  0.0000000E+00  1.0000000E+00
 13  1  5  5   0   0  1.9586334E+02 -2.8588154E+00  1.3940165E+02  2.4042346E+02  1.3486992E-06  0.0000000E+00  1.0000000E+00
</event>
<event>
9 100 1.0000000E+00 1.0000000E+03 7.8125000E-03 0.0000000E+00
 21 -1  0  0 501 502  0.0000000E+00  0.0000000E+00  2.0107023E+03  2.0107023E+03  0.0000000E+00  0.0000000E+00  1.0000000E+00
 21 -1  0  0 502 501  0.0000000E+00  0.0000000E+00 -1.1907276E+02  1.1907276E+02  0.0000000E+00  0.0000000E+00  1.0000000E+00
 39  2  1  2   0   0  8.4696694E-12  4.8316906E-12  1.8916296E+03  2.1297751E+03  9.7861101E+02  0.0000000E+00  1.0000000E+00
 23  2  3  3   0   0 -4.0256294E+02 -2.2895546E+02  6.5830530E+02  8.0926814E+02  8.4092421E+01  0.0000000E+00  1.0000000E+00
 23  2  3  3   0   0  4.0256294E+02  2.2895546E+02  1.2333243E+03  1.3205069E+03  9.0400919E+01  0.0000000E+00  1.0000000E+00
-11  1  4  4   0   0 -1.1285225E+02 -8.7214470E+01  2.6202327E+02  2.9832564E+02  2.8032185E-05  0.0000000E+00  1.0000000E+00
 11  1  4  4   0   0 -2.8971069E+02 -1.4174099E+02  3.9628203E+02  5.1094251E+02  1.6184390E-05  0.0000000E+00  1.0000000E+00
-13  1  5  5   0   0  3.6864980E+02  1.8751034E+02  1.0223650E+03  1.1028568E+03  1.2063132E-05  0.0000000E+00  1.0000000E+00
 13  1  5  5   0   0  3.3913138E+01  4.1445120E+01  2.1095925E+02  2.1765019E+02  5.2857996E-05  0.0000000E+00  1.0000000E+00
</event>
<event>
9 100 1.0000000E+00 1.0000000E+03 7.8125000E-03 0.0000000E+00
 21 -1  0  0 501 502  0.0000000E+00  0.0000000E+00  2.5862466E+02  2.5862466E+02  0.0000000E+00  0.0000000E+00  1.0000000E+00
 21 -1  0  0 502 501  0.0000000E+00  0.0000000E+00 -9.6514482E+02  9.6514482E+02  0.0000000E+00  0.0000000E+00  1.0000000E+00
 39  2  1  2   0   0 -5.6843419E-14  3.9790393E-13 -7.0652016E+02  1.2237695E+03  9.9922020E+02  0.0000000E+00  1.0000000E+00
 23  2  3  3   0   0 -7.0325597E+01  4.5027921E+02 -1.2875125E+02  4.8236762E+02  9.1676496E+01  0.0000000E+00  1.0000000E+00
 23  2  3  3   0   0  7.0325597E+01 -4.5027921E+02 -5.7776891E+02  7.4140186E+02  9.0347929E+01  0.0000000E+00  1.0000000E+00
-11  1  4  4   0   0 -5.7516175E+01  2.1318209E+02 -2.1573163E+01  2.2185607E+02  1.3486992E-05  0.0000000E+00  1.0000000E+00
 11  1  4  4   0   0 -1.2809421E+01  2.3709712E+02 -1.0717809E+02  2.6051155E+02  1.0870946E-05  0.0000000E+00  1.0000000E+00
-13  1  5  5   0   0  1.7705017E+01 -1.0094608E+02 -1.9652319E+02  2.2164147E+02  1.3214499E-05  0.0000000E+00  1.0000000E+00
 13  1  5  5   0   0  5.2620580E+01 -3.4933313E+02 -3.8124572E+02  5.1976038E+02  7.6293945E-06  0.0000000E+00  1.0000000E+00
</event>
<event>
9 100 1.0000000E+00 1.0000000E+03 7.8125000E-03 0.0000000E+00
 21 -1  0  0 501 502  0.0000000E+00  0.0000000E+00  7.0408835E+02  7.0408835E+02  0.0000000E+00  0.0000000E+00  1.0000000E+00
 21 -1  0  0 502 501  0.0000000E+00  0.0000000E+00 -3.5216874E+02  3.5216874E+02  0.0000000E+00  0.0000000E+00  1.0000000E+00
 39  2  1  2   0   0  7.1054274E-14  2.2737368E-13  3.5191961E+02  1.0562571E+03  9.9590743E+02  0.0000000E+00  1.0000000E+00
 23  2  3  3   0   0  1.0496295E+02  2.4496040E+02  6.1182569E+02  6.7368320E+02  9.2171367E+01  0.0000000E+00  1.0000000E+00
 23  2  3  3   0   0 -1.0496295E+02 -2.4496040E+02 -2.5990607E+02  3.8257389E+02  8.8254124E+01  0.0000000E+00  1.0000000E+00
-11  1  4  4   0   0  9.4270932E+01  1.8568744E+02  5.4648285E+02  5.8481650E+02  4.8628039E-06  0.0000000E+00  1.0000000E+00
 11  1  4  4   0   0  1.0692020E+01  5.9272966E+01  6.5342834E+01  8.8866697E+01  7.6293945E-06  0.0000000E+00  1.0000000E+00
-13  1  5  5   0   0 -9.7115804E+01 -2.3113433E+02 -2.0033647E+02  3.2091940E+02  2.6973983E-06  0.0000000E+00  1.0000000E+00
 13  1  5  5   0   0 -7.8471480E+00 -1.3826069E+01 -5.9569604E+01  6.1654486E+01  8.5299224E-06  0.0000000E+00  1.0000000E+00
</event>
<event>
9 100 1.0000000E+00 1.0000000E+03 7.8125000E-03 0.0000000E+00
 21 -1  0  0 501 502  0.0000000E+00  0.0000000E+00  1.8922087E+02  1.8922087E+02  0.0000000E+00  0.0000000E+00  1.0000000E+00
 21 -1  0  0 502 501  0.0000000E+00  0.0000000E+00 -1.2968097E+03  1.2968097E+03  0.0000000E+00  0.0000000E+00  1.0000000E+00
 39  2  1  2   0   0 -2.9132252E-12  1.2505552E-12 -1.1075888E+03  1.4860305E+03  9.9072388E+02  0.0000000E+00  1.0000000E+00
 23  2  3  3   0   0 -1.1420567E+02  4.9965452E+01 -1.2596943E+03  1.2691082E+03  9.0919217E+01  0.0000000E+00  1.0000000E+00
 23  2  3  3   0   0  1.1420567E+02 -4.9965452E+01  1.5210556E+02  2.1692233E+02  9.1540781E+01  0.0000000E+00  1.0000000E+00
-11  1  4  4   0   0 -8.7266992E+01  6.2003049E+01 -1.1653727E+03  1.1702792E+03  2.6973983E-06  0.0000000E+00  1.0000000E+00
 11  1  4  4   0   0 -2.6938681E+01 -1.2037597E+01 -9.4321625E+01  9.8828970E+01  3.7376247E-05  0.0000000E+00  1.0000000E+00
-13  1  5  5   0   0  1.1198348E+02 -7.1448839E+01  1.2661122E+02  1.8350923E+02  3.5842172E-06  0.0000000E+00  1.0000000E+00
 13  1  5  5   0   0  2.2221952E+00  2.1483388E+01  2.5494341E+01  3.3413104E+01  1.1523291E-05  0.0000000E+00  1.0000000E+00
</event>
<event>
9 100 1.0000000E+00 1.0000000E+03 7.8125000E-03 0.0000000E+00
 21 -1  0  0 501 502  0.0000000E+00  0.0000000E+00  5.2988102E+02  5.2988102E+02  0.0000000E+00  0.0000000E+00  1.0000000E+00
 21 -1  0  0 502 501  0.0000000E+00  0.0000000E+00 -4.7180760E+02  4.7180760E+02  0.0000000E+00  0.0000000E+00  1.0000000E+00
 39  2  1  2   0   0  3.6948222E-13  7.3896445E-13  5.8073417E+01  1.0016886E+03  1.0000038E+03  0.0000000E+00  1.0000000E+00
 23  2  3  3   0   0  2.3752046E+02  4.3237908E+02  6.8527335E+01  4.9962277E+02  3.9487681E+01  0.0000000E+00  1.0000000E+00
 23  2  3  3   0   0 -2.3752046E+02 -4.3237908E+02 -1.0453918E+01  5.0206586E+02  9.2699546E+01  0.0000000E+00  1.0000000E+00
-11  1  4  4   0   0  9.1782499E+01  1.7644871E+02  4.6682116E+01  2.0429732E+02  1.1195523E-05  0.0000000E+00  1.0000000E+00
 11  1  4  4   0   0  1.4573796E+02  2.5593037E+02  2.1845219E+01  2.9532545E+02  6.3259598E-06  0.0000000E+00  1.0000000E+00
-13  1  5  5   0   0 -5.5796146E+01 -1.8801419E+02 -2.1792889E+01  1.9732581E+02  1.4698075E-05  0.0000000E+00  1.0000000E+00
 13  1  5  5   0   0 -1.8172431E+02 -2.4436489E+02  1.1338971E+01  3.0474005E+02  1.0699656E-05  0.0000000E+00  1.0000000E+00
</event>
<event>
9 100 1.0000000E+00 1.0000000E+03 7.8125000E-03 0.0000000E+00
 21 -1  0  0 501 502  0.0000000E+00  0.0000000E+00  2.5720592E+02  2.5720592E+02  0.0000000E+00  0.0000000E+00  1.0000000E+00
 21 -1  0  0 502 501  0.0000000E+00  0.0000000E+00 -9.8474057E+02  9.8474057E+02  0.0000000E+00  0.0000000E+00  1.0000000E+00
 39  2  1  2   0   0  8.5265128E-14 -1.3642421E-12 -7.2753465E+02  1.2419465E+03  1.0065408E+03  0.0000000E+00  1.0000000E+00
 23  2  3  3   0   0 -3.1533344E+01  4.8965427E+02 -2.8310226E+02  5.7378683E+02  9.1262197E+01  0.0000000E+00  1.0000000E+00
 23  2  3  3   0   0  3.1533344E+01 -4.8965427E+02 -4.4443240E+02  6.6815965E+02  9.0341103E+01  0.0000000E+00  1.0000000E+00
-11  1  4  4   0   0  1.7484103E+01  3.6221444E+01 -4.1009910E+01  5.7441271E+01  1.3754087E-05  0.0000000E+00  1.0000000E+00
 11  1  4  4   0   0 -4.9017447E+01  4.5343282E+02 -2.4209235E+02  5.1634556E+02  2.6117447E-06  0.0000000E+00  1.0000000E+00
-13  1  5  5   0   0  9.7222766E+00 -4.6825192E+02 -4.1646956E+02  6.2673860E+02  2.0230487E-06  0.0000000E+00  1.0000000E+00
 13  1  5  5   0   0  2.1811068E+01 -2.1402347E+01 -2.7962837E+01  4.1421050E+01  1.5258789E-05  0.0000000E+00  1.0000000E+00
</event>
<event>
9 100 1.0000000E+00 1.0000000E+03 7.8125000E-03 0.0000000E+00
 21 -1  0  0 501 502  0.0000000E+00  0.0000000E+00  1.1638035E+03  1.1638035E+03  0.0000000E+00  0.0000000E+00  1.0000000E+00
 21 -1  0  0 502 501  0.0000000E+00  0.0000000E+00 -2.1419957E+02  2.1419957E+02  0.0000000E+00  0.0000000E+00  1.0000000E+00
 39  2  1  2   0   0  4.2632564E-13  2.0463631E-12  9.4960392E+02  1.3780031E+03  9.9857139E+02  0.0000000E+00  1.0000000E+00
 23  2  3  3   0   0  3.6633009E+01  1.7723488E+02  1.1040170E+03  1.1224097E+03  9.0530990E+01  0.0000000E+00  1.0000000E+00
 23  2  3  3   0   0 -3.6633009E+01 -1.7723488E+02 -1.5441305E+02  2.5559337E+02  9.3436603E+01  0.0000000E+00  1.0000000E+00
-11  1  4  4   0   0 -7.2591598E+00  2.0181266E+00  2.1991655E+02  2.2004558E+02  2.4126264E-05  0.0000000E+00  1.0000000E+00
 11  1  4  4   0   0  4.3892168E+01  1.7521675E+02  8.8410042E+02  9.0236411E+02  4.6720309E-06  0.0000000E+00  1.0000000E+00
-13  1  5  5   0   0 -2.8928424E+01 -9.3085281E+01 -1.3888265E+02  1.6967650E+02  7.9002578E-06  0.0000000E+00  1.0000000E+00
 13  1  5  5   0   0 -7.7045844E+00 -8.4149598E+01 -1.5530406E+01  8.5916872E+01  1.2507321E-05  0.0000000E+00  1.0000000E+00
</event>
<event>
9 100 1.0000000E+00 1.0000000E+03 7.8125000E-03 0.0000000E+00
 21 -1  0  0 501 502  0.0000000E+00  0.0000000E+00  1.5728007E+03  1.5728007E+03  0.0000000E+00  0.0000000E+00  1.0000000E+00
 21 -1  0  0 502 501  0.0000000E+00  0.0000000E+00 -1.5837246E+02  1.5837246E+02  0.0000000E+00  0.0000000E+00  1.0000000E+00
 39  2  1  2   0   0  3.1263880E-13 -7.1054274E-14  1.4144282E+03  1.7311732E+03  9.9817497E+02  0.0000000E+00  1.0000000E+00
 23  2  3  3   0   0 -1.7552634E+02  4.4783355E+01  1.4977206E+03  1.5112937E+03  8.9591624E+01  0.0000000E+00  1.0000000E+00
 23  2  3  3   0   0  1.7552634E+02 -4.4783355E+01 -8.3292393E+01  2.1987941E+02  9.2705389E+01  0.0000000E+00  1.0000000E+00
-11  1  4  4   0   0 -1.8053319E+01  3.4862399E+01  1.8468452E+02  1.8881123E+02  3.0517578E-05  0.0000000E+00  1.0000000E+00
 11  1  4  4   0   0 -1.5747302E+02  9.9209560E+00  1.3130361E+03  1.3224825E+03  2.6973983E-06  0.0000000E+00  1.0000000E+00
-13  1  5  5   0   0  1.0100950E+02  1.8207170E+01 -2.3006021E+01  1.0518412E+02  8.7665445E-06  0.0000000E+00  1.0000000E+00
 13  1  5  5   0   0  7.4516835E+01 -6.2990525E+01 -6.0286373E+01  1.1469530E+02  8.1760541E-06  0.0000000E+00  1.0000000E+00
</event>
<event>
9 100 1.0000000E+00 1.0000000E+03 7.8125000E-03 0.0000000E+00
 21 -1  0  0 501 502  0.0000000E+00  0.0000000E+00  3.1344652E+02  3.1344652E+02  0.0000000E+00  0.0000000E+00  1.0000000E+00
 21 -1  0  0 502 501  0.0000000E+00  0.0000000E+00 -7.9016796E+02  7.9016796E+02  0.0000000E+00  0.0000000E+00  1.0000000E+00
 39  2  1  2   0   0  1.3642421E-12 -4.4053650E-13 -4.7672144E+02  1.1036145E+03  9.9533994E+02  0.0000000E+00  1.0000000E+00
 23  2  3  3   0   0 -3.3407887E+02  1.0671642E+02  1.4101813E+02  3.8761821E+02  8.5817687E+01  0.0000000E+00  1.0000000E+00
 23  2  3  3   0   0  3.3407887E+02 -1.0671642E+02 -6.1773958E+02  7.1599627E+02  8.9729556E+01  0.0000000E+00  1.0000000E+00
-11  1  4  4   0   0 -2.5623960E+02  1.1676376E+02  9.8253472E+01  2.9823858E+02  4.2382214E-06  0.0000000E+00  1.0000000E+00
 11  1  4  4   0   0 -7.7839275E+01 -1.0047339E+01  4.2764661E+01  8.9379629E+01  1.2212990E-05  0.0000000E+00  1.0000000E+00
-13  1  5  5   0   0  2.0681790E+02 -1.0161001E+02 -4.4798535E+02  5.0377486E+02  8.9462581E-06  0.0000000E+00  1.0000000E+00
 13  1  5  5   0   0  1.2726097E+02 -5.1064065E+00 -1.6975422E+02  2.1222141E+02  1.6184390E-05  0.0000000E+00  1.0000000E+00
</event>
<event>
9 100 1.0000000E+00 1.0000000E+03 7.8125000E-03 0.0000000E+00
 21 -1  0  0 501 502  0.0000000E+00  0.0000000E+00  2.5092567E+02  2.5092567E+02  0.0000000E+00  0.0000000E+00  1.0000000E+00
 21 -1  0  0 502 501  0.0000000E+00  0.0000000E+00 -1.0644712E+03  1.0644712E+03  0.0000000E+00  0.0000000E+00  1.0000000E+00
 39  2  1  2   0   0 -7.9580786E-13  6.5369932E-13 -8.1354548E+02  1.3153968E+03  1.0336404E+03  0.0000000E+00  1.0000000E+00
 23  2  3  3   0   0  1.6046918E+02 -1.2477738E+02 -1.0006686E+03  1.0251572E+03  9.1049092E+01  0.0000000E+00  1.0000000E+00
 23  2  3  3   0   0 -1.6046918E+02  1.2477738E+02  1.8712307E+02  2.9023965E+02  8.8905894E+01  0.0000000E+00  1.0000000E+00
-11  1  4  4   0   0  1.4507448E+02 -6.9620811E+01 -8.1967097E+02  8.3531680E+02  4.2649612E-06  0.0000000E+00  1.0000000E+00
 11  1  4  4   0   0  1.5394705E+01 -5.5156565E+01 -1.8099758E+02  1.8984038E+02  1.0789593E-05  0.0000000E+00  1.0000000E+00
-13  1  5  5   0   0 -2.8649044E+01 -1.2721866E+01  2.4587373E+01  3.9839083E+01  1.1284027E-05  0.0000000E+00  1.0000000E+00
 13  1  5  5   0   0 -1.3182014E+02  1.3749924E+02  1.6253570E+02  2.5040057E+02  3.0902580E-06  0.0000000E+00  1.0000000E+00
</event>
<event>
9 100 1.0000000E+00 1.0000000E+03 7.8125000E-03 0.0000000E+00
 21 -1  0  0 501 502  0.0000000E+00  0.0000000E+00  9.2879805E+02  9.2879805E+02  0.0000000E+00  0.0000000E+00  1.0000000E+00
 21 -1  0  0 502 501  0.0000000E+00  0.0000000E+00 -2.6675567E+02  2.6675567E+02  0.0000000E+00  0.0000000E+00  1.0000000E+00
 39  2  1  2   0   0 -1.1368684E-12 -1.2505552E-12  6.6204238E+02  1.1955537E+03  9.9551422E+02  0.0000000E+00  1.0000000E+00
 23  2  3  3   0   0  3.2957022E+02  3.6039583E+02  2.8935989E+02  5.7450296E+02  8.8446752E+01  0.0000000E+00  1.0000000E+00
 23  2  3  3   0   0 -3.2957022E+02 -3.6039583E+02  3.7268249E+02  6.2105075E+02  9.1159849E+01  0.0000000E+00  1.0000000E+00
-11  1  4  4   0   0  2.1307731E+02  2.8954119E+02  1.9852771E+02  4.1066932E+02  6.6072495E-06  0.0000000E+00  1.0000000E+00
 11  1  4  4   0   0  1.1649291E+02  7.0854639E+01  9.0832180E+01  1.6383364E+02  7.1366451E-06  0.0000000E+00  1.0000000E+00
-13  1  5  5   0   0 -6.8958212E+01 -1.0192710E+02  5.1815583E+01  1.3352611E+02  1.3754087E-05  0.0000000E+00  1.0000000E+00
 13  1  5  5   0   0 -2.6061200E+02 -2.5846873E+02  3.2086691E+02  4.8752464E+02  4.5736613E-06  0.0000000E+00  1.0000000E+00
</event>
<event>
9 100 1.0000000E+00 1.0000000E+03 7.8125000E-03 0.0000000E+00
 21 -1  0  0 501 502  0.0000000E+00  0.0000000E+00  1.9630884E+02  1.9630884E+02  0.0000000E+00  0.0000000E+00  1.0000000E+00
 21 -1  0  0 502 501  0.0000000E+00  0.0000000E+00 -1.2520387E+03  1.2520387E+03  0.0000000E+00  0.0000000E+00  1.0000000E+00
 39  2  1  2   0   0  2.3590019E-12 -1.0061285E-11 -1.0557299E+03  1.4483476E+03  9.9153672E+02  0.0000000E+00  1.0000000E+00
 23  2  3  3   0   0  9.3880054E+01 -3.9839208E+02 -9.1469753E+02  1.0061468E+03  9.0167152E+01  0.0000000E+00  1.0000000E+00
 23  2  3  3   0   0 -9.3880054E+01  3.9839208E+02 -1.4103235E+02  4.4220075E+02  9.0120273E+01  0.0000000E+00  1.0000000E+00
-11  1  4  4   0   0  2.5061557E+01 -1.8062137E+01 -9.4983668E+01  9.9881028E+01  0.0000000E+00  0.0000000E+00  1.0000000E+00
 11  1  4  4   0   0  6.8818497E+01 -3.8032994E+02 -8.1971386E+02  9.0626578E+02  3.3036247E-06  0.0000000E+00  1.0000000E+00
-13  1  5  5   0   0 -7.8225562E+01  1.9477033E+02 -1.0548288E+02  2.3490713E+02  9.8186780E-06  0.0000000E+00  1.0000000E+00
 13  1  5  5   0   0 -1.5654491E+01  2.0362175E+02 -3.5549466E+01  2.0729362E+02  1.0359555E-05  0.0000000E+00  1.0000000E+00
</event>
<event>
9 100 1.0000000E+00 1.0000000E+03 7.8125000E-03 0.0000000E+00
 21 -1  0  0 501 502  0.0000000E+00  0.0000000E+00  1.6464570E+02  1.6464570E+02  0.0000000E+00  0.0000000E+00  1.0000000E+00
 21 -1  0  0 502 501  0.0000000E+00  0.0000000E+00 -1.5354286E+03  1.5354286E+03  0.0000000E+00  0.0000000E+00  1.0000000E+00
 39  2  1  2   0   0  1.8189894E-12 -1.0373924E-12 -1.3707829E+03  1.7000743E+03  1.0055878E+03  0.0000000E+00  1.0000000E+00
 23  2  3  3   0   0 -1.5424924E+02  8.7750552E+01  9.5266883E+01  2.2077006E+02  9.0391656E+01  0.0000000E+00  1.0000000E+00
 23  2  3  3   0   0  1.5424924E+02 -8.7750552E+01 -1.4660498E+03  1.4793043E+03  8.6868086E+01  0.0000000E+00  1.0000000E+00
-11  1  4  4   0   0 -3.4820891E+01 -1.8390278E+01  1.9022805E+01  4.3732869E+01  7.3253114E-06  0.0000000E+00  1.0000000E+00
 11  1  4  4   0   0 -1.1942835E+02  1.0614083E+02  7.6244078E+01  1.7703719E+02  2.0921145E-06  0.0000000E+00  1.0000000E+00
-13  1  5  5   0   0  1.4322335E+02 -8.6981710E+01 -1.4509372E+03  1.4605812E+03  1.4003921E-06  0.0000000E+00  1.0000000E+00
 13  1  5  5   0   0  1.1025891E+01 -7.6884178E-01 -1.5112632E+01  1.8723062E+01  2.1579186E-05  0.0000000E+00  1.0000000E+00
</event>
<event>
9 100 1.0000000E+00 1.0000000E+03 7.8125000E-03 0.0000000E+00
 21 -1  0  0 501 502  0.0000000E+00  0.0000000E+00  2.6188241E+02  2.6188241E+02  0.0000000E+00  0.0000000E+00  1.0000000E+00
 21 -1  0  0 502 501  0.0000000E+00  0.0000000E+00 -9.3540910E+02  9.3540910E+02  0.0000000E+00  0.0000000E+00  1.0000000E+00
 39  2  1  2   0   0 -2.0747848E-12  2.5011104E-12 -6.7352669E+02  1.1972915E+03  9.8988321E+02  0.0000000E+00  1.0000000E+00
 23  2  3  3   0   0 -2.1727729E+02  2.5716163E+02 -7.6180185E+02  8.3781503E+02  9.0831978E+01  0.0000000E+00  1.0000000E+00
 23  2  3  3   0   0  2.1727729E+02 -2.5716163E+02  8.8275165E+01  3.5947648E+02  8.9940606E+01  0.0000000E+00  1.0000000E+00
-11  1  4  4   0   0 -7.4800240E+01  1.5584443E+02 -3.4695842E+02  3.8763734E+02  1.0789593E-05  0.0000000E+00  1.0000000E+00
 11  1  4  4   0   0 -1.4247705E+02  1.0131720E+02 -4.1484343E+02  4.5017770E+02  9.3440618E-06  0.0000000E+00  1.0000000E+00
-13  1  5  5   0   0  1.9198109E+02 -2.0872432E+02  3.9683543E+01  2.8635182E+02  5.5608291E-06  0.0000000E+00  1.0000000E+00
 13  1  5  5   0   0  2.5296198E+01 -4.8437311E+01  4.8591622E+01  7.3124664E+01  1.3571023E-05  0.0000000E+00  1.0000000E+00
</event>
<event>
9 100 1.0000000E+00 1.0000000E+03 7.8125000E-03 0.0000000E+00
 21 -1  0  0 501 502  0.0000000E+00  0.0000000E+00  3.5340651E+02  3.5340651E+02  0.0000000E+00  0.0000000E+00  1.0000000E+00
 21 -1  0  0 502 501  0.0000000E+00  0.0000000E+00 -7.4763874E+02  7.4763874E+02  0.0000000E+00  0.0000000E+00  1.0000000E+00
 39  2  1  2   0   0  1.0800250E-12  2.1316282E-13 -3.9423223E+02  1.1010452E+03  1.0280475E+03  0.0000000E+00  1.0000000E+00
 23  2  3  3   0   0 -3.5779917E+02 -7.0960712E+01 -5.7246891E+02  6.8498472E+02  9.1802792E+01  0.0000000E+00  1.0000000E+00
 23  2  3  3   0   0  3.5779917E+02  7.0960712E+01  1.7823668E+02  4.1606052E+02  9.1007589E+01  0.0000000E+00  1.0000000E+00
-11  1  4  4   0   0 -1.9668143E+02  4.9684821E+00 -3.2862442E+02  3.8301733E+02  5.3947966E-06  0.0000000E+00  1.0000000E+00
 11  1  4  4   0   0 -1.6111774E+02 -7.5929194E+01 -2.4384449E+02  3.0196738E+02  7.6293945E-06  0.0000000E+00  1.0000000E+00
-13  1  5  5   0   0  4.5399038E+01 -2.0903033E+01  1.7797627E+01  5.3054359E+01  5.7220459E-06  0.0000000E+00  1.0000000E+00
 13  1  5  5   0   0  3.1240013E+02  9.1863746E+01  1.6043905E+02  3.6300617E+02  1.6689301E-06  0.0000000E+00  1.0000000E+00
</event>
<event>
9 100 1.0000000E+00 1.0000000E+03 7.8125000E-03 0.0000000E+00
 21 -1  0  0 501 502  0.0000000E+00  0.0000000E+00  1.2425938E+03  1.2425938E+03  0.0000000E+00  0.0000000E+00  1.0000000E+00
 21 -1  0  0 502 501  0.0000000E+00  0.0000000E+00 -1.9636749E+02  1.9636749E+02  0.0000000E+00  0.0000000E+00  1.0000000E+00
 39  2  1  2   0   0  6.5369932E-13  2.6716407E-12  1.0462263E+03  1.4389613E+03  9.8793730E+02  0.0000000E+00  1.0000000E+00
 23  2  3  3   0   0 -6.5746806E+01 -2.6695643E+02 -5.9491710E+01  2.9589188E+02  9.1784346E+01  0.0000000E+00  1.0000000E+00
 23  2  3  3   0   0  6.5746806E+01  2.6695643E+02  1.1057180E+03  1.1430694E+03  9.1689419E+01  0.0000000E+00  1.0000000E+00
-11  1  4  4   0   0  1.3013370E+01 -1.6719296E+00 -2.6698793E+00  1.3389227E+01  1.5093986E-05  0.0000000E+00  1.0000000E+00
 11  1  4  4   0   0 -7.8760176E+01 -2.6528450E+02 -5.6821830E+01  2.8250266E+02  2.9335236E-06  0.0000000E+00  1.0000000E+00
-13  1  5  5   0   0  6.4079574E+01  2.4317701E+02  8.5487428E+02  8.9109555E+02  1.0789593E-05  0.0000000E+00  1.0000000E+00
 13  1  5  5   0   0  1.6672318E+00  2.3779418E+01  2.5084375E+02  2.5197386E+02  1.5258789E-05  0.0000000E+00  1.0000000E+00
</event>
<event>
9 100 1.0000000E+00 1.0000000E+03 7.8125000E-03 0.0000000E+00
 21 -1  0  0 501 502  0.0000000E+00  0.0000000E+00  2.8005141E+02  2.8005141E+02  0.0000000E+00  0.0000000E+00  1.0000000E+00
 21 -1  0  0 502 501  0.0000000E+00  0.0000000E+00 -8.8939564E+02  8.8939564E+02  0.0000000E+00  0.0000000E+00  1.0000000E+00
 39  2  1  2   0   0  5.6843419E-14 -2.8421709E-14 -6.0934422E+02  1.1694471E+03  9.9815130E+02  0.0000000E+00  1.0000000E+00
 23  2  3  3   0   0 -2.6973666E+02  2.1070441E+02  1.0709766E+02  3.7016393E+02  9.1636305E+01  0.0000000E+00  1.0000000E+00
 23  2  3  3   0   0  2.6973666E+02 -2.1070441E+02 -7.1644189E+02  7.9928312E+02  9.1707786E+01  0.0000000E+00  1.0000000E+00
-11  1  4  4   0   0 -2.6834337E+02  1.9126400E+02  1.1515862E+02  3.4907247E+02  1.4003921E-06  0.0000000E+00  1.0000000E+00
 11  1  4  4   0   0 -1.3932935E+00  1.9440409E+01 -8.0609570E+00  2.1091463E+01  8.8440118E-06  0.0000000E+00  1.0000000E+00
-13  1  5  5   0   0  5.5050319E+01 -1.5249173E+01 -6.7984055E+01  8.8796997E+01  2.6428998E-05  0.0000000E+00  1.0000000E+00
 13  1  5  5   0   0  2.1468634E+02 -1.9545523E+02 -6.4845783E+02  7.1048612E+02  5.2234894E-06  0.0000000E+00  1.0000000E+00
</event>
<event>
9 100 1.0000000E+00 1.0000000E+03 7.8125000E-03 0.0000000E+00
 21 -1  0  0 501 502  0.0000000E+00  0.0000000E+00  7.4519580E+02  7.4519580E+02  0.0000000E+00  0.0000000E+00  1.0000000E+00
 21 -1  0  0 502 501  0.0000000E+00  0.0000000E+00 -3.3845276E+02  3.3845276E+02  0.0000000E+00  0.0000000E+00  1.0000000E+00
 39  2  1  2   0   0 -2.5579538E-12 -9.9475983E-14  4.0674304E+02  1.0836486E+03  1.0044174E+03  0.0000000E+00  1.0000000E+00
 23  2  3  3   0   0  4.6537573E+02  1.7464829E+01  3.8967488E+02  6.0891899E+02  4.5345740E+01  0.0000000E+00  1.0000000E+00
 23  2  3  3   0   0 -4.6537573E+02 -1.7464829E+01  1.7068163E+01  4.7472957E+02  9.0538679E+01  0.0000000E+00  1.0000000E+00
-11  1  4  4   0   0  7.6674081E+01  1.8335267E+01  5.6872146E+01  9.7208732E+01  1.0092740E-05  0.0000000E+00  1.0000000E+00
 11  1  4  4   0   0  3.8870165E+02 -8.7043754E-01  3.3280273E+02  5.1171026E+02  1.3486992E-06  0.0000000E+00  1.0000000E+00
-13  1  5  5   0   0 -1.3723635E+02 -3.9630493E+01  2.8432400E+01  1.4564612E+02  9.7007361E-06  0.0000000E+00  1.0000000E+00
 13  1  5  5   0   0 -3.2813938E+02  2.2165664E+01 -1.1364237E+01  3.2908345E+02  4.9554371E-06  0.0000000E+00  1.0000000E+00
</event>
<event>
9 100 1.0000000E+00 1.0000000E+03 7.8125000E-03 0.0000000E+00
 21 -1  0  0 501 502  0.0000000E+00  0.0000000E+00  7.9304225E+02  7.9304225E+02  0.0000000E+00  0.0000000E+00  1.0000000E+00
 21 -1  0  0 502 501  0.0000000E+00  0.0000000E+00 -2.6891185E+02  2.6891185E+02  0.0000000E+00  0.0000000E+00  1.0000000E+00
 39  2  1  2   0   0 -1.1368684E-13 -1.7053026E-13  5.2413040E+02  1.0619541E+03  9.2359830E+02  0.0000000E+00  1.0000000E+00
 23  2  3  3   0   0  2.7507286E+02  2.9655742E+02  4.9586949E+02  6.4624494E+02  9.0191945E+01  0.0000000E+00  1.0000000E+00
 23  2  3  3   0   0 -2.7507286E+02 -2.9655742E+02  2.8260908E+01  4.1570915E+02  9.1673521E+01  0.0000000E+00  1.0000000E+00
-11  1  4  4   0   0  2.0913937E+02  2.1638088E+02  3.0202302E+02  4.2635416E+02  5.3947966E-06  0.0000000E+00  1.0000000E+00
 11  1  4  4   0   0  6.5933493E+01  8.0176543E+01  1.9384647E+02  2.1989078E+02  9.3440618E-06  0.0000000E+00  1.0000000E+00
-13  1  5  5   0   0 -1.1347213E+01 -1.7574108E+01 -1.9804985E+01  2.8807047E+01  9.4649473E-06  0.0000000E+00  1.0000000E+00
 13  1  5  5   0   0 -2.6372565E+02 -2.7898331E+02  4.8065893E+01  3.8690210E+02  1.3902073E-06  0.0000000E+00  1.0000000E+00
</event>
<event>
9 100 1.0000000E+00 1.0000000E+03 7.8125000E-03 0.0000000E+00
 21 -1  0  0 501 502  0.0000000E+00  0.0000000E+00  2.5946936E+02  2.5946936E+02  0.0000000E+00  0.0000000E+00  1.0000000E+00
 21 -1  0  0 502 501  0.0000000E+00  0.0000000E+00 -9.7518707E+02  9.7518707E+02  0.0000000E+00  0.0000000E+00  1.0000000E+00
 39  2  1  2   0   0  1.0658141E-13  2.4726887E-12 -7.1571772E+02  1.2346564E+03  1.0060441E+03  0.0000000E+00  1.0000000E+00
 23  2  3  3   0   0 -6.8499420E+00 -1.4940523E+02  2.2082631E+02  2.8197630E+02  9.1528859E+01  0.0000000E+00  1.0000000E+00
 23  2  3  3   0   0  6.8499420E+00  1.4940523E+02 -9.3654403E+02  9.5268013E+02  9.0088076E+01  0.0000000E+00  1.0000000E+00
-11  1  4  4   0   0 -2.5962164E+01 -3.3024672E+00  4.9579990E+01  5.6063496E+01  1.1911388E-05  0.0000000E+00  1.0000000E+00
 11  1  4  4   0   0  1.9112222E+01 -1.4610276E+02  1.7124632E+02  2.2591281E+02  4.6720309E-06  0.0000000E+00  1.0000000E+00
-13  1  5  5   0   0  5.3060369E+00  1.4741927E+02 -9.3816237E+02  9.4968902E+02  4.8193221E-07  0.0000000E+00  1.0000000E+00
 13  1  5  5   0   0  1.5439051E+00  1.9859616E+00  1.6183442E+00  2.9911076E+00  2.8546580E-05  0.0000000E+00  1.0000000E+00
</event>
<event>
9 100 1.0000000E+00 1.0000000E+03 7.8125000E-03 0.0000000E+00
 21 -1  0  0 501 502  0.0000000E+00  0.0000000E+00  7.3686828E+02  7.3686828E+02  0.0000000E+00  0.0000000E+00  1.0000000E+00
 21 -1  0  0 502 501  0.0000000E+00  0.0000000E+00 -3.9417922E+02  3.9417922E+02  0.0000000E+00  0.0000000E+00  1.0000000E+00
 39  2  1  2   0   0  1.5347723E-12 -1.6484591E-12  3.4268906E+02  1.1310475E+03  1.0778834E+03  0.0000000E+00  1.0000000E+00
 23  2  3  3   0   0  3.6434346E+02 -3.8565227E+02  1.4538091E+02  5.5791693E+02  9.3069081E+01  0.0000000E+00  1.0000000E+00
 23  2  3  3   0   0 -3.6434346E+02  3.8565227E+02  1.9730815E+02  5.7313057E+02  8.9857176E+01  0.0000000E+00  1.0000000E+00
-11  1  4  4   0   0  1.7513795E+02 -1.4274508E+02  2.4999867E+01  2.2732016E+02  1.5078915E-05  0.0000000E+00  1.0000000E+00
 11  1  4  4   0   0  1.8920551E+02 -2.4290719E+02  1.2038104E+02  3.3059677E+02  1.0370523E-05  0.0000000E+00  1.0000000E+00
-13  1  5  5   0   0 -4.7603295E+01  8.2997289E+01  8.4092079E+00  9.6048625E+01  1.6184390E-05  0.0000000E+00  1.0000000E+00
 13  1  5  5   0   0 -3.1674017E+02  3.0265498E+02  1.8889895E+02  4.7708195E+02  4.6184947E-06  0.0000000E+00  1.0000000E+00
</event>
<event>
9 100 1.0000000E+00 1.0000000E+03 7.8125000E-03 0.0000000E+00
 21 -1  0  0 501 502  0.0000000E+00  0.0000000E+00  1.7632835E+02  1.7632835E+02  0.0000000E+00  0.0000000E+00  1.0000000E+00
 21 -1  0  0 502 501  0.0000000E+00  0.0000000E+00 -1.4107174E+03  1.4107174E+03  0.0000000E+00  0.0000000E+00  1.0000000E+00
 39  2  1  2   0   0  2.1316282E-14  1.4210855E-14 -1.2343890E+03  1.5870457E+03  9.9749581E+02  0.0000000E+00  1.0000000E+00
 23  2  3  3   0   0 -3.5149134E+01 -1.0511981E+02  1.4272572E+02  2.0249973E+02  9.1377659E+01  0.0000000E+00  1.0000000E+00
 23  2  3  3   0   0  3.5149134E+01  1.0511981E+02 -1.3771148E+03  1.3845460E+03  9.0757689E+01  0.0000000E+00  1.0000000E+00
-11  1  4  4   0   0 -1.4902221E+01 -7.9066519E+01  1.4860133E+02  1.6898505E+02  1.1950694E-06  0.0000000E+00  1.0000000E+00
 11  1  4  4   0   0 -2.0246913E+01 -2.6053286E+01 -5.8756158E+00  3.3514684E+01  0.0000000E+00  0.0000000E+00  1.0000000E+00
-13  1  5  5   0   0 -2.2719929E+01 -5.8567977E-01 -2.2717230E+02  2.2830636E+02  3.0517578E-05  0.0000000E+00  1.0000000E+00
 13  1  5  5   0   0  5.7869063E+01  1.0570549E+02 -1.1499425E+03  1.1562397E+03  4.6720309E-06  0.0000000E+00  1.0000000E+00
</event>
<event>
9 100 1.0000000E+00 1.0000000E+03 7.8125000E-03 0.0000000E+00
 21 -1  0  0 501 502  0.0000000E+00  0.0000000E+00  7.2376800E+02  7.2376800E+02  0.0000000E+00  0.0000000E+00  1.0000000E+00
 21 -1  0  0 502 501  0.0000000E+00  0.0000000E+00 -3.4995326E+02  3.4995326E+02  0.0000000E+00  0.0000000E+00  1.0000000E+00
 39  2  1  2   0   0  1.4210855E-12 -9.6633812E-13  3.7381474E+02  1.0737213E+03  1.0065485E+03  0.0000000E+00  1.0000000E+00
 23  2  3  3   0   0 -1.7694219E+02  1.2326138E+02  6.6175182E+02  7.0234730E+02  9.4203790E+01  0.0000000E+00  1.0000000E+00
 23  2  3  3   0   0  1.7694219E+02 -1.2326138E+02 -2.8793708E+02  3.7137396E+02  9.2243951E+01  0.0000000E+00  1.0000000E+00
-11  1  4  4   0   0 -1.7663553E+02  1.2074435E+02  6.6479981E+02  6.9838249E+02  1.1496128E-06  0.0000000E+00  1.0000000E+00
 11  1  4  4   0   0 -3.0666189E-01  2.5170299E+00 -3.0479933E+00  3.9648133E+00  1.5258789E-05  0.0000000E+00  1.0000000E+00
-13  1  5  5   0   0  7.9180181E+01 -6.1026317E+01 -2.0743407E+02  2.3026638E+02  7.0726380E-06  0.0000000E+00  1.0000000E+00
 13  1  5  5   0   0  9.7762006E+01 -6.2235063E+01 -8.0503011E+01  1.4110757E+02  8.5299224E-06  0.0000000E+00  1.0000000E+00
</event>
<event>
9 100 1.0000000E+00 1.0000000E+03 7.8125000E-03 0.0000000E+00
 21 -1  0  0 501 502  0.0000000E+00  0.0000000E+00  6.3297643E+02  6.3297643E+02  0.0000000E+00  0.0000000E+00  1.0000000E+00
 21 -1  0  0 502 501  0.0000000E+00  0.0000000E+00 -3.9684365E+02  3.9684365E+02  0.0000000E+00  0.0000000E+00  1.0000000E+00
 39  2  1  2   0   0 -3.1263880E-13 -1.9895197E-13  2.3613278E+02  1.0298201E+03  1.0023825E+03  0.0000000E+00  1.0000000E+00
 23  2  3  3   0   0 -1.1279222E+02 -7.1659547E+01  6.0533270E+02  6.2654157E+02  9.0936660E+01  0.0000000E+00  1.0000000E+00
 23  2  3  3   0   0  1.1279222E+02  7.1659547E+01 -3.6919993E+02  4.0327851E+02  9.2020632E+01  0.0000000E+00  1.0000000E+00
-11  1  4  4   0   0 -9.7047453E+01 -7.8035506E+01  3.6597284E+02  3.8657971E+02  5.3947966E-06  0.0000000E+00  1.0000000E+00
 11  1  4  4   0   0 -1.5744765E+01  6.3759594E+00  2.3935986E+02  2.3996186E+02  7.6293945E-06  0.0000000E+00  1.0000000E+00
-13  1  5  5   0   0  1.1792892E+02  8.5822614E+01 -3.1692021E+02  3.4887128E+02  3.5683226E-06  0.0000000E+00  1.0000000E+00
 13  1  5  5   0   0 -5.1366971E+00 -1.4163067E+01 -5.2279713E+01  5.4407228E+01  1.2063132E-05  0.0000000E+00  1.0000000E+00
</event>
<event>
9 100 1.0000000E+00 1.0000000E+03 7.8125000E-03 0.0000000E+00
 21 -1  0  0 501 502  0.0000000E+00  0.0000000E+00  1.9515224E+03  1.9515224E+03  0.0000000E+00  0.0000000E+00  1.0000000E+00
 21 -1  0  0 502 501  0.0000000E+00  0.0000000E+00 -1.3078677E+02  1.3078677E+02  0.0000000E+00  0.0000000E+00  1.0000000E+00
 39  2  1  2   0   0 -2.2026825E-13  6.8212103E-13  1.8207357E+03  2.0823092E+03  1.0104124E+03  0.0000000E+00  1.0000000E+00
 23  2  3  3   0   0  3.9527175E+01 -1.2046742E+02  1.9001421E+03  1.9065159E+03  9.0488528E+01  0.0000000E+00  1.0000000E+00
 23  2  3  3   0   0 -3.9527175E+01  1.2046742E+02 -7.9406433E+01  1.7579327E+02  9.2320616E+01  0.0000000E+00  1.0000000E+00
-11  1  4  4   0   0 -2.3147274E+01 -8.4476705E+00  4.6206071E+02  4.6271726E+02  4.0370961E-05  0.0000000E+00  1.0000000E+00
 11  1  4  4   0   0  6.2674448E+01 -1.1201975E+02  1.4380814E+03  1.4437987E+03  1.4273290E-05  0.0000000E+00  1.0000000E+00
-13  1  5  5   0   0 -8.4270682E+00  1.2527665E+01  2.0501385E+01  2.5461042E+01  1.4016093E-05  0.0000000E+00  1.0000000E+00
 13  1  5  5   0   0 -3.1100107E+01  1.0793976E+02 -9.9907818E+01  1.5033223E+02  5.0124636E-06  0.0000000E+00  1.0000000E+00
</event>
<event>
9 100 1.0000000E+00 1.0000000E+03 7.8125000E-03 0.0000000E+00
 21 -1  0  0 501 502  0.0000000E+00  0.0000000E+00  1.2958113E+03  1.2958113E+03  0.0000000E+00  0.0000000E+00  1.0000000E+00
 21 -1  0  0 502 501  0.0000000E+00  0.0000000E+00 -1.9426488E+02  1.9426488E+02  0.0000000E+00  0.0000000E+00  1.0000000E+00
 39  2  1  2   0   0  7.9580786E-13  4.2632564E-13  1.1015464E+03  1.4900762E+03  1.0034553E+03  0.0000000E+00  1.0000000E+00
 23  2  3  3   0   0 -1.3914308E+02 -7.2877930E+01 -1.4360784E+02  2.3140187E+02  9.0838444E+01  0.0000000E+00  1.0000000E+00
 23  2  3  3   0   0  1.3914308E+02  7.2877930E+01  1.2451543E+03  1.2586743E+03  9.5811829E+01  0.0000000E+00  1.0000000E+00
-11  1  4  4   0   0 -6.6124721E+01 -6.0535418E+01 -2.7653379E+01  9.3817509E+01  4.6720309E-06  0.0000000E+00  1.0000000E+00
 11  1  4  4   0   0 -7.3018360E+01 -1.2342512E+01 -1.1595447E+02  1.3758436E+02  3.2515959E-06  0.0000000E+00  1.0000000E+00
-13  1  5  5   0   0  6.9103003E+01  7.1732621E+01  4.7439921E+02  4.8474261E+02  1.0789593E-05  0.0000000E+00  1.0000000E+00
 13  1  5  5   0   0  7.0040078E+01  1.1453099E+00  7.7075507E+02  7.7393171E+02  5.3947966E-06  0.0000000E+00  1.0000000E+00
</event>
<event>
9 100 1.0000000E+00 1.0000000E+03 7.8125000E-03 0.0000000E+00
 21 -1  0  0 501 502  0.0000000E+00  0.0000000E+00  5.0954657E+02  5.0954657E+02  0.0000000E+00  0.0000000E+00  1.0000000E+00
 21 -1  0  0 502 501  0.0000000E+00  0.0000000E+00 -4.9527704E+02  4.9527704E+02  0.0000000E+00  0.0000000E+00  1.0000000E+00
 39  2  1  2   0   0  1.4210855E-14  0.0000000E+00  1.4269525E+01  1.0048236E+03  1.0047223E+03  0.0000000E+00  1.0000000E+00
 23  2  3  3   0   0 -4.1466700E+01  4.2353323E+02  2.5571070E+02  5.0499933E+02  9.2393027E+01  0.0000000E+00  1.0000000E+00
 23  2  3  3   0   0  4.1466700E+01 -4.2353323E+02 -2.4144118E+02  4.9982429E+02  1.0213027E+02  0.0000000E+00  1.0000000E+00
-11  1  4  4   0   0  8.3258201E+00  3.2424763E+02  1.9368055E+02  3.7778036E+02  4.5236745E-06  0.0000000E+00  1.0000000E+00
 11  1  4  4   0   0 -4.9792520E+01  9.9285598E+01  6.2030154E+01  1.2721897E+02  1.2361032E-05  0.0000000E+00  1.0000000E+00
-13  1  5  5   0   0 -1.7968225E+00  6.0765107E-01  6.4024906E+00  6.6775517E+00  2.2728682E-05  0.0000000E+00  1.0000000E+00
 13  1  5  5   0   0  4.3263522E+01 -4.2414088E+02 -2.4784367E+02  4.9314674E+02  2.0107183E-06  0.0000000E+00  1.0000000E+00
</event>
<event>
9 100 1.0000000E+00 1.0000000E+03 7.8125000E-03 0.0000000E+00
 21 -1  0  0 501 502  0.0000000E+00  0.0000000E+00  4.6937049E+02  4.6937049E+02  0.0000000E+00  0.0000000E+00  1.0000000E+00
 21 -1  0  0 502 501  0.0000000E+00  0.0000000E+00 -5.3029412E+02  5.3029412E+02  0.0000000E+00  0.0000000E+00  1.0000000E+00
 39  2  1  2   0   0  5.6843419E-14 -1.1368684E-13 -6.0923633E+01  9.9966461E+02  9.9780642E+02  0.0000000E+00  1.0000000E+00
 23  2  3  3   0   0  3.3715805E+02 -3.5039560E+02 -9.4263356E+01  5.0372005E+02  9.1627958E+01  0.0000000E+00  1.0000000E+00
 23  2  3  3   0   0 -3.3715805E+02  3.5039560E+02  3.3339723E+01  4.9594456E+02  9.1634315E+01  0.0000000E+00  1.0000000E+00
-11  1  4  4   0   0  4.6770523E+01 -3.7869836E+01  1.7573403E+01  6.2693148E+01  1.2936268E-05  0.0000000E+00  1.0000000E+00
 11  1  4  4   0   0  2.9038752E+02 -3.1252576E+02 -1.1183676E+02  4.4102690E+02  2.3481507E-06  0.0000000E+00  1.0000000E+00
-13  1  5  5   0   0 -1.9066404E+02  1.6338017E+02  5.6149542E+01  2.5729094E+02  1.0821157E-05  0.0000000E+00  1.0000000E+00
 13  1  5  5   0   0 -1.4649401E+02  1.8701542E+02 -2.2809818E+01  2.3865362E+02  1.0249226E-05  0.0000000E+00  1.0000000E+00
</event>
<event>
9 100 1.0000000E+00 1.0000000E+03 7.8125000E-03 0.0000000E+00
 21 -1  0  0 501 502  0.0000000E+00  0.0000000E+00  6.2263680E+02  6.2263680E+02  0.0000000E+00  0.0000000E+00  1.0000000E+00
 21 -1  0  0 502 501  0.0000000E+00  0.0000000E+00 -4.0243242E+02  4.0243242E+02  0.0000000E+00  0.0000000E+00  1.0000000E+00
 39  2  1  2   0   0  4.2632564E-14  2.1316282E-14  2.2020438E+02  1.0250692E+03  1.0011378E+03  0.0000000E+00  1.0000000E+00
 23  2  3  3   0   0 -9.1611742E+01 -4.6803013E+01 -3.8269390E+02  4.0661878E+02  9.1109707E+01  0.0000000E+00  1.0000000E+00
 23  2  3  3   0   0  9.1611742E+01  4.6803013E+01  6.0289828E+02  6.1845044E+02  9.1713571E+01  0.0000000E+00  1.0000000E+00
-11  1  4  4   0   0  1.5384543E+01 -1.8173702E+01 -4.0897083E+01  4.7323767E+01  9.3440618E-06  0.0000000E+00  1.0000000E+00
 11  1  4  4   0   0 -1.0699629E+02 -2.8629312E+01 -3.4179682E+02  3.5929501E+02  2.1851424E-06  0.0000000E+00  1.0000000E+00
-13  1  5  5   0   0  5.5754431E+01  4.4269147E+01  5.4942295E+02  5.5401615E+02  1.9073486E-06  0.0000000E+00  1.0000000E+00
 13  1  5  5   0   0  3.5857311E+01  2.5338657E+00  5.3475327E+01  6.4434291E+01  1.3214499E-05  0.0000000E+00  1.0000000E+00
</event>
<event>
9 100 1.0000000E+00 1.0000000E+03 7.8125000E-03 0.0000000E+00
 21 -1  0  0 501 502  0.0000000E+00  0.0000000E+00  3.3568271E+02  3.3568271E+02  0.0000000E+00  0.0000000E+00  1.0000000E+00
 21 -1  0  0 502 501  0.0000000E+00  0.0000000E+00 -7.5502583E+02  7.5502583E+02  0.0000000E+00  0.0000000E+00  1.0000000E+00
 39  2  1  2   0   0  1.4210855E-13  1.7053026E-13 -4.1934312E+02  1.0907085E+03  1.0068746E+03  0.0000000E+00  1.0000000E+00
 23  2  3  3   0   0 -2.2523571E+02 -3.9412076E+02  2.6392897E+00  4.6317744E+02  9.2000423E+01  0.0000000E+00  1.0000000E+00
 23  2  3  3   0   0  2.2523571E+02  3.9412076E+02 -4.2198241E+02  6.2753110E+02  9.8304808E+01  0.0000000E+00  1.0000000E+00
-11  1  4  4   0   0 -9.6523434E+01 -2.4760168E+02  2.4762723E+01  2.6690177E+02  1.0176871E-05  0.0000000E+00  1.0000000E+00
 11  1  4  4   0   0 -1.2871227E+02 -1.4651908E+02 -2.2123433E+01  1.9627566E+02  1.1238598E-05  0.0000000E+00  1.0000000E+00
-13  1  5  5   0   0  2.0837661E+01  1.0361338E+02 -1.3124652E+02  1.6850991E+02  1.2651920E-05  0.0000000E+00  1.0000000E+00
 13  1  5  5   0   0  2.0439805E+02  2.9050738E+02 -2.9073589E+02  4.5902119E+02  9.1473227E-06  0.0000000E+00  1.0000000E+00
</event>
<event>
9 100 1.0000000E+00 1.0000000E+03 7.8125000E-03 0.0000000E+00
 21 -1  0  0 501 502  0.0000000E+00  0.0000000E+00  2.8487356E+02  2.8487356E+02  0.0000000E+00  0.0000000E+00  1.0000000E+00
 21 -1  0  0 502 501  0.0000000E+00  0.0000000E+00 -8.2665953E+02  8.2665953E+02  0.0000000E+00  0.0000000E+00  1.0000000E+00
 39  2  1  2   0   0  4.6895821E-13 -1.5347723E-12 -5.4178597E+02  1.1115331E+03  9.7055334E+02  0.0000000E+00  1.0000000E+00
 23  2  3  3   0   0  7.5460510E+01 -2.4738429E+02 -7.2942297E+02  7.7910256E+02  8.9719807E+01  0.0000000E+00  1.0000000E+00
 23  2  3  3   0   0 -7.5460510E+01  2.4738429E+02  1.8763700E+02  3.3243054E+02  9.1701391E+01  0.0000000E+00  1.0000000E+00
-11  1  4  4   0   0  6.8146212E+01 -2.3958382E+02 -6.0568692E+02  6.5490530E+02  5.5608291E-06  0.0000000E+00  1.0000000E+00
 11  1  4  4   0   0  7.3142978E+00 -7.8004680E+00 -1.2373605E+02  1.2419725E+02  2.1579186E-05  0.0000000E+00  1.0000000E+00
-13  1  5  5   0   0 -4.1755256E+01  2.0004102E+02  1.8268325E+02  2.7410414E+02  2.9242746E-06  0.0000000E+00  1.0000000E+00
 13  1  5  5   0   0 -3.3705254E+01  4.7343268E+01  4.9537543E+00  5.8326399E+01  8.9462581E-06  0.0000000E+00  1.0000000E+00
</event>
<event>
9 100 1.0000000E+00 1.0000000E+03 7.8125000E-03 0.0000000E+00
 21 -1  0  0 501 502  0.0000000E+00  0.0000000E+00  7.2264689E+02  7.2264689E+02  0.0000000E+00  0.0000000E+00  1.0000000E+00
 21 -1  0  0 502 501  0.0000000E+00  0.0000000E+00 -3.5041566E+02  3.5041566E+02  0.0000000E+00  0.0000000E+00  1.0000000E+00
 39  2  1  2   0   0  1.2505552E-12 -4.5474735E-13  3.7223123E+02  1.0730625E+03  1.0064329E+03  0.0000000E+00  1.0000000E+00
 23  2  3  3   0   0 -3.3706352E+02  1.2990970E+02 -1.7575684E+02  4.1027819E+02  8.3362949E+01  0.0000000E+00  1.0000000E+00
 23  2  3  3   0   0  3.3706352E+02 -1.2990970E+02  5.4798807E+02  6.6278436E+02  9.2216206E+01  0.0000000E+00  1.0000000E+00
-11  1  4  4   0   0 -2.9109621E+01  1.9676803E+00  7.0066509E+00  3.0005582E+01  1.3214499E-05  0.0000000E+00  1.0000000E+00
 11  1  4  4   0   0 -3.0795390E+02  1.2794202E+02 -1.8276349E+02  3.8027261E+02  2.1997264E-06  0.0000000E+00  1.0000000E+00
-13  1  5  5   0   0  1.9620917E+02 -9.5160516E+01  2.5270402E+02  3.3378569E+02  3.8146973E-06  0.0000000E+00  1.0000000E+00
 13  1  5  5   0   0  1.4085435E+02 -3.4749183E+01  2.9528405E+02  3.2899867E+02  4.6720309E-06  0.0000000E+00  1.0000000E+00
</event>
<event>
9 100 1.0000000E+00 1.0000000E+03 7.8125000E-03 0.0000000E+00
 21 -1  0  0 501 502  0.0000000E+00  0.0000000E+00  1.6293591E+02  1.6293591E+02  0.0000000E+00  0.0000000E+00  1.0000000E+00
 21 -1  0  0 502 501  0.0000000E+00  0.0000000E+00 -1.5633915E+03  1.5633915E+03  0.0000000E+00  0.0000000E+00  1.0000000E+00
 39  2  1  2   0   0  3.8653525E-12  1.0658141E-12 -1.4004556E+03  1.7263274E+03  1.0094209E+03  0.0000000E+00  1.0000000E+00
 23  2  3  3   0   0 -3.7310997E+02 -1.0042994E+02 -1.2324921E+03  1.2947179E+03  8.9220996E+01  0.0000000E+00  1.0000000E+00
 23  2  3  3   0   0  3.7310997E+02  1.0042994E+02 -1.6796354E+02  4.3160958E+02  9.3690217E+01  0.0000000E+00  1.0000000E+00
-11  1  4  4   0   0 -2.6344450E+01 -2.4944729E+01 -6.4530390E+01  7.4029999E+01  3.4119690E-05  0.0000000E+00  1.0000000E+00
 11  1  4  4   0   0 -3.4676552E+02 -7.5485208E+01 -1.1679617E+03  1.2206879E+03  2.1324806E-06  0.0000000E+00  1.0000000E+00
-13  1  5  5   0   0  3.3476451E+01  3.7919124E+01 -8.7359125E+00  5.1330779E+01  1.4145276E-05  0.0000000E+00  1.0000000E+00
 13  1  5  5   0   0  3.3963352E+02  6.2510813E+01 -1.5922762E+02  3.8027880E+02  3.9357123E-06  0.0000000E+00  1.0000000E+00
</event>
<event>
9 100 1.0000000E+00 1.0000000E+03 7.8125000E-03 0.0000000E+00
 21 -1  0  0 501 502  0.0000000E+00  0.0000000E+00  4.2926739E+02  4.2926739E+02  0.0000000E+00  0.0000000E+00  1.0000000E+00
 21 -1  0  0 502 501  0.0000000E+00  0.0000000E+00 -5.8283237E+02  5.8283237E+02  0.0000000E+00  0.0000000E+00  1.0000000E+00
 39  2  1  2   0   0 -2.8421709E-13 -5.3290705E-14 -1.5356498E+02  1.0120998E+03  1.0003818E+03  0.0000000E+00  1.0000000E+00
 23  2  3  3   0   0  1.5570129E+02  3.0912305E+01 -5.4791310E+02  5.7789672E+02  9.2506188E+01  0.0000000E+00  1.0000000E+00
 23  2  3  3   0   0 -1.5570129E+02 -3.0912305E+01  3.9434812E+02  4.3420304E+02  8.8449864E+01  0.0000000E+00  1.0000000E+00
-11  1  4  4   0   0  2.9749642E+01  4.6313922E+01 -1.3081953E+02  1.4192875E+02  1.8688124E-05  0.0000000E+00  1.0000000E+00
 11  1  4  4   0   0  1.2595165E+02 -1.5401617E+01 -4.1709357E+02  4.3596798E+02  7.3871295E-06  0.0000000E+00  1.0000000E+00
-13  1  5  5   0   0 -5.4914476E+01  1.9750029E+01  2.1110176E+02  2.1901967E+02  4.6720309E-06  0.0000000E+00  1.0000000E+00
 13  1  5  5   0   0 -1.0078682E+02 -5.0662334E+01  1.8324636E+02  2.1518337E+02  0.0000000E+00  0.0000000E+00  1.0000000E+00
</event>
<event>
9 100 1.0000000E+00 1.0000000E+03 7.8125000E-03 0.0000000E+00
 21 -1  0  0 501 502  0.0000000E+00  0.0000000E+00  1.6403374E+02  1.6403374E+02  0.0000000E+00  0.0000000E+00  1.0000000E+00
 21 -1  0  0 502 501  0.0000000E+00  0.0000000E+00 -1.5161039E+03  1.5161039E+03  0.0000000E+00  0.0000000E+00  1.0000000E+00
 39  2  1  2   0   0  2.7711167E-13  2.2168933E-12 -1.3520701E+03  1.6801376E+03  9.9738095E+02  0.0000000E+00  1.0000000E+00
 23  2  3  3   0   0 -5.7520223E+01 -4.6121788E+02 -9.4038708E+02  1.0529553E+03  9.1413544E+01  0.0000000E+00  1.0000000E+00
 23  2  3  3   0   0  5.7520223E+01  4.6121788E+02 -4.1168307E+02  6.2718236E+02  8.8567776E+01  0.0000000E+00  1.0000000E+00
-11  1  4  4   0   0 -8.1900168E+01 -3.8710949E+02 -7.8471149E+02  8.7882508E+02  8.0921949E-06  0.0000000E+00  1.0000000E+00
 11  1  4  4   0   0  2.4379946E+01 -7.4108383E+01 -1.5567559E+02  1.7413019E+02  3.0517578E-05  0.0000000E+00  1.0000000E+00
-13  1  5  5   0   0 -2.1839632E+00  2.7282777E+02 -2.7136145E+02  3.8480748E+02  3.3036247E-06  0.0000000E+00  1.0000000E+00
 13  1  5  5   0   0  5.9704186E+01  1.8839011E+02 -1.4032162E+02  2.4237488E+02  1.0789593E-05  0.0000000E+00  1.0000000E+00
</event>
<event>
9 100 1.0000000E+00 1.0000000E+03 7.8125000E-03 0.0000000E+00
 21 -1  0  0 501 502  0.0000000E+00  0.0000000E+00  7.4420577E+02  7.4420577E+02  0.0000000E+00  0.0000000E+00  1.0000000E+00
 21 -1  0  0 502 501  0.0000000E+00  0.0000000E+00 -3.5026269E+02  3.5026269E+02  0.0000000E+00  0.0000000E+00  1.0000000E+00
 39  2  1  2   0   0  2.2737368E-13 -1.7053026E-13  3.9394308E+02  1.0944685E+03  1.0211122E+03  0.0000000E+00  1.0000000E+00
 23  2  3  3   0   0  3.9019163E+02 -3.1174100E+02  2.5543963E+02  5.6795176E+02  8.8813482E+01  0.0000000E+00  1.0000000E+00
 23  2  3  3   0   0 -3.9019163E+02  3.1174100E+02  1.3850344E+02  5.2651670E+02  9.2761412E+01  0.0000000E+00  1.0000000E+00
-11  1  4  4   0   0  1.4358508E+02 -1.5357230E+02  1.4241193E+02  2.5393362E+02  2.6973983E-06  0.0000000E+00  1.0000000E+00
 11  1  4  4   0   0  2.4660655E+02 -1.5816870E+02  1.1302770E+02  3.1401814E+02  8.7405695E-06  0.0000000E+00  1.0000000E+00
-13  1  5  5   0   0 -3.6848125E+02  2.5765808E+02  1.2531092E+02  4.6676434E+02  2.4430634E-06  0.0000000E+00  1.0000000E+00
 13  1  5  5   0   0 -2.1710372E+01  5.4082922E+01  1.3192526E+01  5.9752367E+01  1.0271387E-05  0.0000000E+00  1.0000000E+00
</event>
<event>
9 100 1.0000000E+00 1.0000000E+03 7.8125000E-03 0.0000000E+00
 21 -1  0  0 501 502  0.0000000E+00  0.0000000E+00  9.7221445E+02  9.7221445E+02  0.0000000E+00  0.0000000E+00  1.0000000E+00
 21 -1  0  0 502 501  0.0000000E+00  0.0000000E+00 -2.5974541E+02  2.5974541E+02  0.0000000E+00  0.0000000E+00  1.0000000E+00
 39  2  1  2   0   0  1.3073986E-12 -3.4106051E-13  7.1246905E+02  1.2319599E+03  1.0050438E+03  0.0000000E+00  1.0000000E+00
 23  2  3  3   0   0  3.7845346E+02 -9.9749044E+01  7.2619155E+02  8.2997036E+02  9.1212648E+01  0.0000000E+00  1.0000000E+00
 23  2  3  3   0   0 -3.7845346E+02  9.9749044E+01 -1.3722498E+01  4.0198950E+02  9.0721332E+01  0.0000000E+00  1.0000000E+00
-11  1  4  4   0   0  1.1906692E+02 -4.8519039E+01  1.6136779E+02  2.0632642E+02  3.4119690E-05  0.0000000E+00  1.0000000E+00
 11  1  4  4   0   0  2.5938654E+02 -5.1230006E+01  5.6482375E+02  6.2364394E+02  1.0271387E-05  0.0000000E+00  1.0000000E+00
-13  1  5  5   0   0 -3.7693557E+02  9.6808387E+01 -2.5259165E+01  3.8998758E+02  2.9053825E-06  0.0000000E+00  1.0000000E+00
 13  1  5  5   0   0 -1.5178900E+00  2.9406571E+00  1.1536667E+01  1.2001922E+01  2.1134701E-05  0.0000000E+00  1.0000000E+00
</event>
<event>
9 100 1.0000000E+00 1.0000000E+03 7.8125000E-03 0.0000000E+00
 21 -1  0  0 501 502  0.0000000E+00  0.0000000E+00  3.1341922E+02  3.1341922E+02  0.0000000E+00  0.0000000E+00  1.0000000E+00
 21 -1  0  0 502 501  0.0000000E+00  0.0000000E+00 -8.1362003E+02  8.1362003E+02  0.0000000E+00  0.0000000E+00  1.0000000E+00
 39  2  1  2   0   0  8.5265128E-13  1.2079227E-13 -5.0020081E+02  1.1270392E+03  1.0099587E+03  0.0000000E+00  1.0000000E+00
 23  2  3  3   0   0 -4.7494282E+02 -5.5023984E+01 -3.9934703E+02  6.3002973E+02  9.4133342E+01  0.0000000E+00  1.0000000E+00
 23  2  3  3   0   0  4.7494282E+02  5.5023984E+01 -1.0085378E+02  4.9700952E+02  9.0822120E+01  0.0000000E+00  1.0000000E+00
-11  1  4  4   0   0 -3.5241300E+02 -7.2559204E+01 -3.2961432E+02  4.8796040E+02  5.5608291E-06  0.0000000E+00  1.0000000E+00
 11  1  4  4   0   0 -1.2252982E+02  1.7535220E+01 -6.9732717E+01  1.4206932E+02  1.7059845E-05  0.0000000E+00  1.0000000E+00
-13  1  5  5   0   0  3.3535381E+02  7.9452931E+01 -7.9646509E+01  3.5372095E+02  5.1797774E-06  0.0000000E+00  1.0000000E+00
 13  1  5  5   0   0  1.3958901E+02 -2.4428947E+01 -2.1207267E+01  1.4328857E+02  5.3947966E-06  0.0000000E+00  1.0000000E+00
</event>
<event>
9 100 1.0000000E+00 1.0000000E+03 7.8125000E-03 0.0000000E+00
 21 -1  0  0 501 502  0.0000000E+00  0.0000000E+00  2.2539553E+02  2.2539553E+02  0.0000000E+00  0.0000000E+00  1.0000000E+00
 21 -1  0  0 502 501  0.0000000E+00  0.0000000E+00 -1.1082418E+03  1.1082418E+03  0.0000000E+00  0.0000000E+00  1.0000000E+00
 39  2  1  2   0   0  4.2632564E-12  3.0127012E-12 -8.8284627E+02  1.3336373E+03  9.9958541E+02  0.0000000E+00  1.0000000E+00
 23  2  3  3   0   0  3.3729301E+02  2.4496218E+02 -7.8792373E+02  8.9630840E+02  9.3658460E+01  0.0000000E+00  1.0000000E+00
 23  2  3  3   0   0 -3.3729301E+02 -2.4496218E+02 -9.4922541E+01  4.3732893E+02  9.2050326E+01  0.0000000E+00  1.0000000E+00
-11  1  4  4   0   0  2.8436072E+02  1.6951525E+02 -5.6120736E+02  6.5157512E+02  6.6072495E-06  0.0000000E+00  1.0000000E+00
 11  1  4  4   0   0  5.2932285E+01  7.5446931E+01 -2.2671637E+02  2.4473328E+02  7.6293945E-06  0.0000000E+00  1.0000000E+00
-13  1  5  5   0   0 -3.3083007E+02 -2.4771932E+02 -1.0367907E+02  4.2610181E+02  1.9036197E-06  0.0000000E+00  1.0000000E+00
 13  1  5  5   0   0 -6.4629343E+00  2.7571464E+00  8.7565331E+00  1.1227121E+01  1.1680077E-05  0.0000000E+00  1.0000000E+00
</event>
<event>
9 100 1.0000000E+00 1.0000000E+03 7.8125000E-03 0.0000000E+00
 21 -1  0  0 501 502  0.0000000E+00  0.0000000E+00  3.1306138E+02  3.1306138E+02  0.0000000E+00  0.0000000E+00  1.0000000E+00
 21 -1  0  0 502 501  0.0000000E+00  0.0000000E+00 -7.9459958E+02  7.9459958E+02  0.0000000E+00  0.0000000E+00  1.0000000E+00
 39  2  1  2   0   0  2.2737368E-13  1.4210855E-13 -4.8153819E+02  1.1076610E+03  9.9751379E+02  0.0000000E+00  1.0000000E+00
 23  2  3  3   0   0 -3.0077528E+02 -2.4264320E+02 -5.7596478E+02  6.9888774E+02  8.5832140E+01  0.0000000E+00  1.0000000E+00
 23  2  3  3   0   0  3.0077528E+02  2.4264320E+02  9.4426586E+01  4.0877322E+02  9.4008885E+01  0.0000000E+00  1.0000000E+00
-11  1  4  4   0   0 -2.4545843E+02 -2.0174881E+02 -5.2348557E+02  6.1236391E+02  2.7804145E-06  0.0000000E+00  1.0000000E+00
 11  1  4  4   0   0 -5.5316854E+01 -4.0894390E+01 -5.2479214E+01  8.6523831E+01  2.0185481E-05  0.0000000E+00  1.0000000E+00
-13  1  5  5   0   0  1.2278299E+02  1.5931446E+02  4.4634598E+01  2.0603156E+02  5.5197892E-06  0.0000000E+00  1.0000000E+00
 13  1  5  5   0   0  1.7799229E+02  8.3328746E+01  4.9791988E+01  2.0274165E+02  6.6927284E-06  0.0000000E+00  1.0000000E+00
</event>
<event>
9 100 1.0000000E+00 1.0000000E+03 7.8125000E-03 0.0000000E+00
 21 -1  0  0 501 502  0.0000000E+00  0.0000000E+00  1.8154186E+02  1.8154186E+02  0.0000000E+00  0.0000000E+00  1.0000000E+00
 21 -1  0  0 502 501  0.0000000E+00  0.0000000E+00 -1.3760035E+03  1.3760035E+03  0.0000000E+00  0.0000000E+00  1.0000000E+00
 39  2  1  2   0   0  2.9842795E-13 -1.3642421E-12 -1.1944616E+03  1.5575454E+03  9.9960439E+02  0.0000000E+00  1.0000000E+00
 23  2  3  3   0   0  5.3421338E+01 -2.3950378E+02 -1.2605191E+03  1.2874144E+03  9.1166802E+01  0.0000000E+00  1.0000000E+00
 23  2  3  3   0   0 -5.3421338E+01  2.3950378E+02  6.6057488E+01  2.7013099E+02  9.1603834E+01  0.0000000E+00  1.0000000E+00
-11  1  4  4   0   0  7.0645971E+01 -2.0560280E+02 -9.4901484E+02  9.7359772E+02  1.0789593E-05  0.0000000E+00  1.0000000E+00
 11  1  4  4   0   0 -1.7224633E+01 -3.3900981E+01 -3.1150428E+02  3.1381664E+02  2.1579186E-05  0.0000000E+00  1.0000000E+00
-13  1  5  5   0   0 -1.0174745E+01 -5.8997684E+00 -1.7352560E+00  1.1888810E+01  1.6926040E-05  0.0000000E+00  1.0000000E+00
 13  1  5  5   0   0 -4.3246593E+01  2.4540355E+02  6.7792744E+01  2.5824218E+02  3.0994415E-06  0.0000000E+00  1.0000000E+00
</event>
<event>
9 100 1.0000000E+00 1.0000000E+03 7.8125000E-03 0.0000000E+00
 21 -1  0  0 501 502  0.0000000E+00  0.0000000E+00  4.9919880E+02  4.9919880E+02  0.0000000E+00  0.0000000E+00  1.0000000E+00
 21 -1  0  0 502 501  0.0000000E+00  0.0000000E+00 -3.8881996E+02  3.8881996E+02  0.0000000E+00  0.0000000E+00  1.0000000E+00
 39  2  1  2   0   0 -6.8212103E-13 -5.1159077E-13  1.1037883E+02  8.8801876E+02  8.8113213E+02  0.0000000E+00  1.0000000E+00
 23  2  3  3   0   0 -3.3317746E+02 -2.3633692E+02  1.9380578E+02  4.6156996E+02  9.2864318E+01  0.0000000E+00  1.0000000E+00
 23  2  3  3   0   0  3.3317746E+02  2.3633692E+02 -8.3426950E+01  4.2644880E+02  8.9644626E+01  0.0000000E+00  1.0000000E+00
-11  1  4  4   0   0 -1.7423263E+02 -1.5050979E+02  1.5282246E+02  2.7634201E+02  6.3974418E-06  0.0000000E+00  1.0000000E+00
 11  1  4  4   0   0 -1.5894484E+02 -8.5827139E+01  4.0983319E+01  1.8522795E+02  8.5299224E-06  0.0000000E+00  1.0000000E+00
-13  1  5  5   0   0  3.7053153E+01  1.0213372E+01  1.4709845E+01  4.1153719E+01  4.8628039E-06  0.0000000E+00  1.0000000E+00
 13  1  5  5   0   0  2.9612431E+02  2.2612355E+02 -9.8136795E+01  3.8529508E+02  1.1557769E-06  0.0000000E+00  1.0000000E+00
</event>
<event>
9 100 1.0000000E+00 1.0000000E+03 7.8125000E-03 0.0000000E+00
 21 -1  0  0 501 502  0.0000000E+00  0.0000000E+00  1.5810681E+02  1.5810681E+02  0.0000000E+00  0.0000000E+00  1.0000000E+00
 21 -1  0  0 502 501  0.0000000E+00  0.0000000E+00 -1.5979290E+03  1.5979290E+03  0.0000000E+00  0.0000000E+00  1.0000000E+00
 39  2  1  2   0   0  2.6432190E-12 -9.4928509E-12 -1.4398222E+03  1.7560358E+03  1.0052730E+03  0.0000000E+00  1.0000000E+00
 23  2  3  3   0   0  1.2841106E+02 -4.6426209E+02 -9.1495307E+02  1.0378144E+03  8.8830328E+01  0.0000000E+00  1.0000000E+00
 23  2  3  3   0   0 -1.2841106E+02  4.6426209E+02 -5.2486910E+02  7.1822143E+02  9.1245614E+01  0.0000000E+00  1.0000000E+00
-11  1  4  4   0   0 -7.0581472E+00 -4.5623535E+01 -1.2989736E+02  1.3785735E+02  1.5258789E-05  0.0000000E+00  1.0000000E+00
 11  1  4  4   0   0  1.3546921E+02 -4.1863855E+02 -7.8505570E+02  8.9995700E+02  2.6973983E-06  0.0000000E+00  1.0000000E+00
-13  1  5  5   0   0 -5.1838468E+01  7.1033762E+01 -7.2577246E+01  1.1401964E+02  7.6293945E-06  0.0000000E+00  1.0000000E+00
 13  1  5  5   0   0 -7.6572593E+01  3.9322832E+02 -4.5229186E+02  6.0420179E+02  3.6935647E-06  0.0000000E+00  1.0000000E+00
</event>
<event>
9 100 1.0000000E+00 1.0000000E+03 7.8125000E-03 0.0000000E+00
 21 -1  0  0 501 502  0.0000000E+00  0.0000000E+00  4.3580051E+02  4.3580051E+02  0.0000000E+00  0.0000000E+00  1.0000000E+00
 21 -1  0  0 502 501  0.0000000E+00  0.0000000E+00 -5.7503878E+02  5.7503878E+02  0.0000000E+00  0.0000000E+00  1.0000000E+00
 39  2  1  2   0   0 -1.1368684E-12 -1.1937118E-12 -1.3923828E+02  1.0108393E+03  1.0012037E+03  0.0000000E+00  1.0000000E+00
 23  2  3  3   0   0 -3.5836440E+02 -3.3605158E+02 -4.6729818E+01  5.0081141E+02  8.5279994E+01  0.0000000E+00  1.0000000E+00
 23  2  3  3   0   0  3.5836440E+02  3.3605158E+02 -9.2508459E+01  5.1002788E+02  1.0106885E+02  0.0000000E+00  1.0000000E+00
-11  1  4  4   0   0 -3.2267185E+02 -2.7115624E+02 -1.9589358E+01  4.2193195E+02  2.7183900E-06  0.0000000E+00  1.0000000E+00
 11  1  4  4   0   0 -3.5692553E+01 -6.4895340E+01 -2.7140460E+01  7.8879453E+01  1.4453358E-05  0.0000000E+00  1.0000000E+00
-13  1  5  5   0   0  2.5334494E+02  2.4541797E+02 -1.1169624E+02  3.6998606E+02  4.1295309E-06  0.0000000E+00  1.0000000E+00
 13  1  5  5   0   0  1.0501947E+02  9.0633616E+01  1.9187779E+01  1.4004182E+02  5.5608291E-06  0.0000000E+00  1.0000000E+00
</event>
<event>
9 100 1.0000000E+00 1.0000000E+03 7.8125000E-03 0.0000000E+00
 21 -1  0  0 501 502  0.0000000E+00  0.0000000E+00  6.2864814E+02  6.2864814E+02  0.0000000E+00  0.0000000E+00  1.0000000E+00
 21 -1  0  0 502 501  0.0000000E+00  0.0000000E+00 -3.9540884E+02  3.9540884E+02  0.0000000E+00  0.0000000E+00  1.0000000E+00
 39  2  1  2   0   0  1.3073986E-12 -1.6484591E-12  2.3323930E+02  1.0240570E+03  9.9714198E+02  0.0000000E+00  1.0000000E+00
 23  2  3  3   0   0  2.2167002E+02 -2.8197791E+02 -2.1784269E+02  4.4082056E+02  1.3497475E+02  0.0000000E+00  1.0000000E+00
 23  2  3  3   0   0 -2.2167002E+02  2.8197791E+02  4.5108200E+02  5.8323642E+02  8.9669486E+01  0.0000000E+00  1.0000000E+00
-11  1  4  4   0   0  8.7352449E+00 -8.3252174E+01 -1.2936179E+01  8.4702856E+01  5.3947966E-06  0.0000000E+00  1.0000000E+00
 11  1  4  4   0   0  2.1293478E+02 -1.9872574E+02 -2.0490651E+02  3.5611770E+02  2.5678467E-06  0.0000000E+00  1.0000000E+00
-13  1  5  5   0   0 -7.2349507E+01  8.5848141E+01  2.1169987E+02  2.3962719E+02  1.1444092E-05  0.0000000E+00  1.0000000E+00
 13  1  5  5   0   0 -1.4932052E+02  1.9612977E+02  2.3938212E+02  3.4360923E+02  6.6072495E-06  0.0000000E+00  1.0000000E+00
</event>
<event>
9 100 1.0000000E+00 1.0000000E+03 7.8125000E-03 0.0000000E+00
 21 -1  0  0 501 502  0.0000000E+00  0.0000000E+00  1.4024956E+03  1.4024956E+03  0.0000000E+00  0.0000000E+00  1.0000000E+00
 21 -1  0  0 502 501  0.0000000E+00  0.0000000E+00 -7.6673824E+02  7.6673824E+02  0.0000000E+00  0.0000000E+00  1.0000000E+00
 39  2  1  2   0   0 -2.8421709E-14 -1.1368684E-13  6.3575738E+02  2.1692339E+03  2.0739788E+03  0.0000000E+00  1.0000000E+00
 23  2  3  3   0   0  1.9435755E+02 -5.3237211E+02  1.2213335E+03  1.3495202E+03  9.1402000E+01  0.0000000E+00  1.0000000E+00
 23  2  3  3   0   0 -1.9435755E+02  5.3237211E+02 -5.8557614E+02  8.1971364E+02  8.8521898E+01  0.0000000E+00  1.0000000E+00
-11  1  4  4   0   0  1.4032154E+02 -2.5212655E+02  6.2731653E+02  6.9049545E+02  1.3214499E-05  0.0000000E+00  1.0000000E+00
 11  1  4  4   0   0  5.4036017E+01 -2.8024556E+02  5.9401699E+02  6.5902477E+02  1.3214499E-05  0.0000000E+00  1.0000000E+00
-13  1  5  5   0   0 -1.8645394E+02  4.5635615E+02 -4.6977151E+02  6.8096350E+02  5.0463701E-06  0.0000000E+00  1.0000000E+00
 13  1  5  5   0   0 -7.9036125E+00  7.6015958E+01 -1.1580462E+02  1.3875015E+02  9.3440618E-06  0.0000000E+00  1.0000000E+00
</event>
<event>
9 100 1.0000000E+00 1.0000000E+03 7.8125000E-03 0.0000000E+00
 21 -1  0  0 501 502  0.0000000E+00  0.0000000E+00  7.7055088E+02  7.7055088E+02  0.0000000E+00  0.0000000E+00  1.0000000E+00
 21 -1  0  0 502 501  0.0000000E+00  0.0000000E+00 -2.8955227E+02  2.8955227E+02  0.0000000E+00  0.0000000E+00  1.0000000E+00
 39  2  1  2   0   0  7.3896445E-13 -2.9842795E-13  4.8099860E+02  1.0601032E+03  9.4470050E+02  0.0000000E+00  1.0000000E+00
 23  2  3  3   0   0  2.6579104E+02 -1.1539056E+02 -1.6838735E+02  3.4391171E+02  7.7208180E+01  0.0000000E+00  1.0000000E+00
 23  2  3  3   0   0 -2.6579104E+02  1.1539056E+02  6.4938596E+02  7.1619144E+02  8.5253754E+01  0.0000000E+00  1.0000000E+00
-11  1  4  4   0   0  8.2483769E+01 -1.7934518E+01 -1.4865811E+01  8.5710043E+01  8.9462581E-06  0.0000000E+00  1.0000000E+00
 11  1  4  4   0   0  1.8330728E+02 -9.7456040E+01 -1.5352154E+02  2.5820167E+02  3.9680760E-06  0.0000000E+00  1.0000000E+00
-13  1  5  5   0   0 -1.8040020E+02  1.1101073E+02  5.1562454E+02  5.5743724E+02  9.1473227E-06  0.0000000E+00  1.0000000E+00
 13  1  5  5   0   0 -8.5390849E+01  4.3798318E+00  1.3376141E+02  1.5875420E+02  2.8546580E-05  0.0000000E+00  1.0000000E+00
</event>
<event>
9 100 1.0000000E+00 1.0000000E+03 7.8125000E-03 0.0000000E+00
 21 -1  0  0 501 502  0.0000000E+00  0.0000000E+00  2.6284870E+02  2.6284870E+02  0.0000000E+00  0.0000000E+00  1.0000000E+00
 21 -1  0  0 502 501  0.0000000E+00  0.0000000E+00 -9.3926617E+02  9.3926617E+02  0.0000000E+00  0.0000000E+00  1.0000000E+00
 39  2  1  2   0   0  2.9558578E-12  1.4495072E-12 -6.7641747E+02  1.2021149E+03  9.9375025E+02  0.0000000E+00  1.0000000E+00
 23  2  3  3   0   0  2.5615008E+02  1.2928792E+02 -8.1630163E+02  8.6999613E+02  9.0645905E+01  0.0000000E+00  1.0000000E+00
 23  2  3  3   0   0 -2.5615008E+02 -1.2928792E+02  1.3988416E+02  3.3211874E+02  9.1689967E+01  0.0000000E+00  1.0000000E+00
-11  1  4  4   0   0  7.2572691E+01  1.8061978E+01 -1.2032650E+02  1.4167391E+02  7.6293945E-06  0.0000000E+00  1.0000000E+00
 11  1  4  4   0   0  1.8357738E+02  1.1122594E+02 -6.9597513E+02  7.2832222E+02  6.1805160E-06  0.0000000E+00  1.0000000E+00
-13  1  5  5   0   0 -2.2134820E+02 -1.2355976E+02  1.5109089E+02  2.9511099E+02  2.8659857E-06  0.0000000E+00  1.0000000E+00
 13  1  5  5   0   0 -3.4801874E+01 -5.7281585E+00 -1.1206732E+01  3.7007743E+01  1.4016093E-05  0.0000000E+00  1.0000000E+00
</event>
<event>
9 100 1.0000000E+00 1.0000000E+03 7.8125000E-03 0.0000000E+00
 21 -1  0  0 501 502  0.0000000E+00  0.0000000E+00  6.4050624E+02  6.4050624E+02  0.0000000E+00  0.0000000E+00  1.0000000E+00
 21 -1  0  0 502 501  0.0000000E+00  0.0000000E+00 -3.8894711E+02  3.8894711E+02  0.0000000E+00  0.0000000E+00  1.0000000E+00
 39  2  1  2   0   0  9.0949470E-13  5.5067062E-14  2.5155913E+02  1.0294534E+03  9.9824456E+02  0.0000000E+00  1.0000000E+00
 23  2  3  3   0   0 -2.6484119E+02 -1.3958132E+01  5.5185680E+02  6.1904389E+02  9.1289257E+01  0.0000000E+00  1.0000000E+00
 23  2  3  3   0   0  2.6484119E+02  1.3958132E+01 -3.0029767E+02  4.1040946E+02  8.9003084E+01  0.0000000E+00  1.0000000E+00
-11  1  4  4   0   0 -7.2242677E+01 -4.5069277E+01  1.7956682E+02  1.9873220E+02  5.3947966E-06  0.0000000E+00  1.0000000E+00
 11  1  4  4   0   0 -1.9259852E+02  3.1111145E+01  3.7228998E+02  4.2031169E+02  5.3947966E-06  0.0000000E+00  1.0000000E+00
-13  1  5  5   0   0  2.6774247E+02  1.5092882E+01 -2.7208840E+02  3.8202870E+02  2.8210067E-06  0.0000000E+00  1.0000000E+00
 13  1  5  5   0   0 -2.9012790E+00 -1.1347498E+00 -2.8209266E+01  2.8380764E+01  1.3754087E-05  0.0000000E+00  1.0000000E+00
</event>
<event>
9 100 1.0000000E+00 1.0000000E+03 7.8125000E-03 0.0000000E+00
 21 -1  0  0 501 502  0.0000000E+00  0.0000000E+00  4.9322641E+02  4.9322641E+02  0.0000000E+00  0.0000000E+00  1.0000000E+00
 21 -1  0  0 502 501  0.0000000E+00  0.0000000E+00 -5.1602017E+02  5.1602017E+02  0.0000000E+00  0.0000000E+00  1.0000000E+00
 39  2  1  2   0   0  6.8212103E-13  7.6738615E-13 -2.2793764E+01  1.0092466E+03  1.0089891E+03  0.0000000E+00  1.0000000E+00
 23  2  3  3   0   0  1.8455951E+02  2.1127102E+02  3.9801664E+02  4.9546517E+02  9.1492266E+01  0.0000000E+00  1.0000000E+00
 23  2  3  3   0   0 -1.8455951E+02 -2.1127102E+02 -4.2081040E+02  5.1378140E+02  9.0511194E+01  0.0000000E+00  1.0000000E+00
-11  1  4  4   0   0  1.2647212E+01  1.1005765E+01  8.2154627E+01  8.3847848E+01  9.3440618E-06  0.0000000E+00  1.0000000E+00
 11  1  4  4   0   0  1.7191230E+02  2.0026525E+02  3.1586201E+02  4.1161732E+02  2.8610229E-06  0.0000000E+00  1.0000000E+00
-13  1  5  5   0   0  2.8134256E+00 -3.2877066E+01 -7.4705667E+01  8.1668559E+01  8.5299224E-06  0.0000000E+00  1.0000000E+00
 13  1  5  5   0   0 -1.8737294E+02 -1.7839395E+02 -3.4610474E+02  4.3211284E+02  2.8610229E-06  0.0000000E+00  1.0000000E+00
</event>
<event>
9 100 1.0000000E+00 1.0000000E+03 7.8125000E-03 0.0000000E+00
 21 -1  0  0 501 502  0.0000000E+00  0.0000000E+00  1.7253706E+02  1.7253706E+02  0.0000000E+00  0.0000000E+00  1.0000000E+00
 21 -1  0  0 502 501  0.0000000E+00  0.0000000E+00 -1.4427093E+03  1.4427093E+03  0.0000000E+00  0.0000000E+00  1.0000000E+00
 39  2  1  2   0   0  2.1600499E-12  3.1263880E-13 -1.2701723E+03  1.6152464E+03  9.9783931E+02  0.0000000E+00  1.0000000E+00
 23  2  3  3   0   0 -3.6464753E+02 -5.5492430E+01 -1.1597354E+03  1.2203585E+03  9.0781694E+01  0.0000000E+00  1.0000000E+00
 23  2  3  3   0   0  3.6464753E+02  5.5492430E+01 -1.1043683E+02  3.9488790E+02  8.7709322E+01  0.0000000E+00  1.0000000E+00
-11  1  4  4   0   0 -2.4378024E+02 -6.7118360E+01 -8.7529319E+02  9.1108278E+02  1.3214499E-05  0.0000000E+00  1.0000000E+00
 11  1  4  4   0   0 -1.2086729E+02  1.1625930E+01 -2.8444225E+02  3.0927570E+02  2.8546580E-05  0.0000000E+00  1.0000000E+00
-13  1  5  5   0   0  3.4654212E+02  3.9265016E+01 -1.1990536E+02  3.6879598E+02  2.5761345E-06  0.0000000E+00  1.0000000E+00
 13  1  5  5   0   0  1.8105414E+01  1.6227414E+01  9.4685285E+00  2.6091915E+01  1.4273290E-05  0.0000000E+00  1.0000000E+00
</event>
<event>
9 100 1.0000000E+00 1.0000000E+03 7.8125000E-03 0.0000000E+00
 21 -1  0  0 501 502  0.0000000E+00  0.0000000E+00  2.4175367E+02  2.4175367E+02  0.0000000E+00  0.0000000E+00  1.0000000E+00
 21 -1  0  0 502 501  0.0000000E+00  0.0000000E+00 -1.0460915E+03  1.0460915E+03  0.0000000E+00  0.0000000E+00  1.0000000E+00
 39  2  1  2   0   0  7.9936058E-15  2.8421709E-13 -8.0433778E+02  1.2878451E+03  1.0057762E+03  0.0000000E+00  1.0000000E+00
 23  2  3  3   0   0  4.2718021E+00  3.7638997E+02 -8.0732230E+02  9.0017169E+02  1.2981569E+02  0.0000000E+00  1.0000000E+00
 23  2  3  3   0   0 -4.2718021E+00 -3.7638997E+02  2.9845197E+00  3.8767344E+02  9.2704529E+01  0.0000000E+00  1.0000000E+00
-11  1  4  4   0   0 -5.6105368E+00  1.1869270E+02 -1.3369642E+02  1.7886914E+02  1.0789593E-05  0.0000000E+00  1.0000000E+00
 11  1  4  4   0   0  9.8823389E+00  2.5769727E+02 -6.7362588E+02  7.2130255E+02  1.9073486E-06  0.0000000E+00  1.0000000E+00
-13  1  5  5   0   0 -2.9257898E+01 -7.2387952E+01  2.4655322E+01  8.1877501E+01  2.5005552E-06  0.0000000E+00  1.0000000E+00
 13  1  5  5   0   0  2.4986096E+01 -3.0400202E+02 -2.1670803E+01  3.0579594E+02  3.2515959E-06  0.0000000E+00  1.0000000E+00
</event>
<event>
9 100 1.0000000E+00 1.0000000E+03 7.8125000E-03 0.0000000E+00
 21 -1  0  0 501 502  0.0000000E+00  0.0000000E+00  1.9900005E+02  1.9900005E+02  0.0000000E+00  0.0000000E+00  1.0000000E+00
 21 -1  0  0 502 501  0.0000000E+00  0.0000000E+00 -1.2559904E+03  1.2559904E+03  0.0000000E+00  0.0000000E+00  1.0000000E+00
 39  2  1  2   0   0  4.4622084E-12  5.7980287E-12 -1.0569903E+03  1.4549904E+03  9.9988429E+02  0.0000000E+00  1.0000000E+00
 23  2  3  3   0   0  2.2203717E+02  2.8989749E+02 -1.0077372E+03  1.0757088E+03  9.0962355E+01  0.0000000E+00  1.0000000E+00
 23  2  3  3   0   0 -2.2203717E+02 -2.8989749E+02 -4.9253149E+01  3.7928162E+02  8.9931171E+01  0.0000000E+00  1.0000000E+00
-11  1  4  4   0   0  4.5392936E+01  1.3432231E+01 -1.5362400E+02  1.6075222E+02  1.8688124E-05  0.0000000E+00  1.0000000E+00
 11  1  4  4   0   0  1.7664423E+02  2.7646526E+02 -8.5411319E+02  9.1495660E+02  2.6973983E-06  0.0000000E+00  1.0000000E+00
-13  1  5  5   0   0 -6.8223028E+01 -1.3637147E+02 -5.4401133E+01  1.6189825E+02  1.2286511E-05  0.0000000E+00  1.0000000E+00
 13  1  5  5   0   0 -1.5381414E+02 -1.5352602E+02  5.1479840E+00  2.1738337E+02  9.6552166E-06  0.0000000E+00  1.0000000E+00
</event>
<event>
9 100 1.0000000E+00 1.0000000E+03 7.8125000E-03 0.0000000E+00
 21 -1  0  0 501 502  0.0000000E+00  0.0000000E+00  2.0641197E+02  2.0641197E+02  0.0000000E+00  0.0000000E+00  1.0000000E+00
 21 -1  0  0 502 501  0.0000000E+00  0.0000000E+00 -1.2123976E+03  1.2123976E+03  0.0000000E+00  0.0000000E+00  1.0000000E+00
 39  2  1  2   0   0 -2.5011104E-12  1.0516032E-12 -1.0059856E+03  1.4188095E+03  1.0005066E+03  0.0000000E+00  1.0000000E+00
 23  2  3  3   0   0 -4.5405787E+02  1.7928937E+02 -4.1721369E+02  6.4870227E+02  9.1837576E+01  0.0000000E+00  1.0000000E+00
 23  2  3  3   0   0  4.5405787E+02 -1.7928937E+02 -5.8877191E+02  7.7010728E+02  8.9997955E+01  0.0000000E+00  1.0000000E+00
-11  1  4  4   0   0 -3.9561268E+02  1.4772420E+02 -3.9613945E+02  5.7901493E+02  1.8157418E-06  0.0000000E+00  1.0000000E+00
 11  1  4  4   0   0 -5.8445190E+01  3.1565178E+01 -2.1074237E+01  6.9687332E+01  0.0000000E+00  0.0000000E+00  1.0000000E+00
-13  1  5  5   0   0  2.6815114E+02 -1.3510201E+02 -3.0502267E+02  4.2801451E+02  7.6293945E-06  0.0000000E+00  1.0000000E+00
 13  1  5  5   0   0  1.8590673E+02 -4.4187361E+01 -2.8374924E+02  3.4209278E+02  5.3947966E-06  0.0000000E+00  1.0000000E+00
</event>
<event>
9 100 1.0000000E+00 1.0000000E+03 7.8125000E-03 0.0000000E+00
 21 -1  0  0 501 502  0.0000000E+00  0.0000000E+00  1.1455179E+03  1.1455179E+03  0.0000000E+00  0.0000000E+00  1.0000000E+00
 21 -1  0  0 502 501  0.0000000E+00  0.0000000E+00 -2.1388234E+02  2.1388234E+02  0.0000000E+00  0.0000000E+00  1.0000000E+00
 39  2  1  2   0   0  7.1054274E-14 -1.5916157E-12  9.3163559E+02  1.3594003E+03  9.8996172E+02  0.0000000E+00  1.0000000E+00
 23  2  3  3   0   0 -2.0001745E+01  4.2524798E+02  1.5135851E+02  4.6053153E+02  8.9128974E+01  0.0000000E+00  1.0000000E+00
 23  2  3  3   0   0  2.0001745E+01 -4.2524798E+02  7.8027708E+02  8.9886874E+02  1.3377883E+02  0.0000000E+00  1.0000000E+00
-11  1  4  4   0   0 -3.6870038E+01  9.7591564E+01  5.8253610E+01  1.1948639E+02  1.7533089E-05  0.0000000E+00  1.0000000E+00
 11  1  4  4   0   0  1.6868293E+01  3.2765642E+02  9.3104901E+01  3.4104514E+02  7.6293945E-06  0.0000000E+00  1.0000000E+00
-13  1  5  5   0   0  3.4031164E+00 -4.6274307E+01  2.2761776E+01  5.1681633E+01  3.0517578E-05  0.0000000E+00  1.0000000E+00
 13  1  5  5   0   0  1.6598629E+01 -3.7897367E+02  7.5751530E+02  8.4718710E+02  1.0115244E-06  0.0000000E+00  1.0000000E+00
</event>
<event>
9 100 1.0000000E+00 1.0000000E+03 7.8125000E-03 0.0000000E+00
 21 -1  0  0 501 502  0.0000000E+00  0.0000000E+00  1.0817443E+03  1.0817443E+03  0.0000000E+00  0.0000000E+00  1.0000000E+00
 21 -1  0  0 502 501  0.0000000E+00  0.0000000E+00 -2.3594653E+02  2.3594653E+02  0.0000000E+00  0.0000000E+00  1.0000000E+00
 39  2  1  2   0   0 -4.6895821E-13  1.8758328E-12  8.4579774E+02  1.3176908E+03  1.0104134E+03  0.0000000E+00  1.0000000E+00
 23  2  3  3   0   0  7.7078531E+01 -3.1457200E+02 -6.8869466E+01  3.4313577E+02  9.0013948E+01  0.0000000E+00  1.0000000E+00
 23  2  3  3   0   0 -7.7078531E+01  3.1457200E+02  9.1466720E+02  9.7455502E+02  9.0800559E+01  0.0000000E+00  1.0000000E+00
-11  1  4  4   0   0  2.2042262E+01 -1.9873113E+01 -2.7574347E+01  4.0511067E+01  1.1641079E-05  0.0000000E+00  1.0000000E+00
 11  1  4  4   0   0  5.5036270E+01 -2.9469889E+02 -4.1295120E+01  3.0262471E+02  3.1268304E-06  0.0000000E+00  1.0000000E+00
-13  1  5  5   0   0 -9.1299817E+01  2.9056941E+02  8.7118515E+02  9.2289208E+02  3.3378601E-06  0.0000000E+00  1.0000000E+00
 13  1  5  5   0   0  1.4221285E+01  2.4002587E+01  4.3482057E+01  5.1662931E+01  2.1579186E-05  0.0000000E+00  1.0000000E+00
</event>
<event>
9 100 1.0000000E+00 1.0000000E+03 7.8125000E-03 0.0000000E+00
 21 -1  0  0 501 502  0.0000000E+00  0.0000000E+00  5.6365375E+02  5.6365375E+02  0.0000000E+00  0.0000000E+00  1.0000000E+00
 21 -1  0  0 502 501  0.0000000E+00  0.0000000E+00 -4.5231722E+02  4.5231722E+02  0.0000000E+00  0.0000000E+00  1.0000000E+00
 39  2  1  2   0   0  7.8159701E-14  4.9737992E-14  1.1133652E+02  1.0159710E+03  1.0098521E+03  0.0000000E+00  1.0000000E+00
 23  2  3  3   0   0 -6.0213285E+01 -4.0084990E+01 -4.3781591E+02  4.5469422E+02  9.9154542E+01  0.0000000E+00  1.0000000E+00
 23  2  3  3   0   0  6.0213285E+01  4.0084990E+01  5.4915243E+02  5.6127675E+02  9.0723477E+01  0.0000000E+00  1.0000000E+00
-11  1  4  4   0   0 -6.6165743E+01 -2.2782824E+01 -4.2847234E+02  4.3414918E+02  2.7026615E-06  0.0000000E+00  1.0000000E+00
 11  1  4  4   0   0  5.9524573E+00 -1.7302165E+01 -9.3435663E+00  2.0545046E+01  1.7892516E-05  0.0000000E+00  1.0000000E+00
-13  1  5  5   0   0  7.8360113E+01  2.7976291E+01  3.0480529E+02  3.1595766E+02  5.3947966E-06  0.0000000E+00  1.0000000E+00
 13  1  5  5   0   0 -1.8146828E+01  1.2108699E+01  2.4434714E+02  2.4531909E+02  7.6293945E-06  0.0000000E+00  1.0000000E+00
</event>
<event>
9 100 1.0000000E+00 1.0000000E+03 7.8125000E-03 0.0000000E+00
 21 -1  0  0 501 502  0.0000000E+00  0.0000000E+00  2.0828177E+02  2.0828177E+02  0.0000000E+00  0.0000000E+00  1.0000000E+00
 21 -1  0  0 502 501  0.0000000E+00  0.0000000E+00 -1.2090114E+03  1.2090114E+03  0.0000000E+00  0.0000000E+00  1.0000000E+00
 39  2  1  2   0   0  4.2632564E-13  4.8316906E-13 -1.0007297E+03  1.4172932E+03  1.0036235E+03  0.0000000E+00  1.0000000E+00
 23  2  3  3   0   0 -1.2871216E+02 -1.3531184E+02 -1.1442544E+03  1.1629483E+03  9.0854395E+01  0.0000000E+00  1.0000000E+00
 23  2  3  3   0   0  1.2871216E+02  1.3531184E+02  1.4352472E+02  2.5434492E+02  9.5999357E+01  0.0000000E+00  1.0000000E+00
-11  1  4  4   0   0 -7.2071543E+01 -1.3126427E+02 -7.7227654E+02  7.8666109E+02  9.3440618E-06  0.0000000E+00  1.0000000E+00
 11  1  4  4   0   0 -5.6640619E+01 -4.0475698E+00 -3.7197785E+02  3.7628721E+02  3.0517578E-05  0.0000000E+00  1.0000000E+00
-13  1  5  5   0   0  1.2971394E+02  1.4656372E+02  1.4408090E+02  2.4303484E+02  2.4076445E-06  0.0000000E+00  1.0000000E+00
 13  1  5  5   0   0 -1.0017786E+00 -1.1251883E+01 -5.5617346E-01  1.1310073E+01  1.1601949E-05  0.0000000E+00  1.0000000E+00
</event>
<event>
9 100 1.0000000E+00 1.0000000E+03 7.8125000E-03 0.0000000E+00
 21 -1  0  0 501 502  0.0000000E+00  0.0000000E+00  2.2296140E+02  2.2296140E+02  0.0000000E+00  0.0000000E+00  1.0000000E+00
 21 -1  0  0 502 501  0.0000000E+00  0.0000000E+00 -1.1352783E+03  1.1352783E+03  0.0000000E+00  0.0000000E+00  1.0000000E+00
 39  2  1  2   0   0  2.7853275E-12  7.3896445E-13 -9.1231694E+02  1.3582397E+03  1.0062271E+03  0.0000000E+00  1.0000000E+00
 23  2  3  3   0   0  3.0284001E+02  8.0852921E+01 -9.7195355E+02  1.0264475E+03  1.0320599E+02  0.0000000E+00  1.0000000E+00
 23  2  3  3   0   0 -3.0284001E+02 -8.0852921E+01  5.9636611E+01  3.3179226E+02  9.0996221E+01  0.0000000E+00  1.0000000E+00
-11  1  4  4   0   0  1.7321268E+02 -2.9900067E+00 -4.5207625E+02  4.8413274E+02  7.6293945E-06  0.0000000E+00  1.0000000E+00
 11  1  4  4   0   0  1.2962733E+02  8.3842928E+01 -5.1987730E+02  5.4231475E+02  9.3440618E-06  0.0000000E+00  1.0000000E+00
-13  1  5  5   0   0 -1.4832348E+02  6.0248363E+00  1.6550869E+01  1.4936560E+02  1.0381480E-05  0.0000000E+00  1.0000000E+00
 13  1  5  5   0   0 -1.5451653E+02 -8.6877757E+01  4.3085741E+01  1.8242665E+02  8.2107426E-06  0.0000000E+00  1.0000000E+00
</event>
<event>
9 100 1.0000000E+00 1.0000000E+03 7.8125000E-03 0.0000000E+00
 21 -1  0  0 501 502  0.0000000E+00  0.0000000E+00  5.4781045E+02  5.4781045E+02  0.0000000E+00  0.0000000E+00  1.0000000E+00
 21 -1  0  0 502 501  0.0000000E+00  0.0000000E+00 -4.9649081E+02  4.9649081E+02  0.0000000E+00  0.0000000E+00  1.0000000E+00
 39  2  1  2   0   0  1.1937118E-12 -9.0949470E-13  5.1319635E+01  1.0443013E+03  1.0430395E+03  0.0000000E+00  1.0000000E+00
 23  2  3  3   0   0 -3.8555749E+02  2.9519329E+02  1.9248318E+02  5.3030154E+02  9.1522040E+01  0.0000000E+00  1.0000000E+00
 23  2  3  3   0   0  3.8555749E+02 -2.9519329E+02 -1.4116354E+02  5.1399972E+02  9.2059267E+01  0.0000000E+00  1.0000000E+00
-11  1  4  4   0   0 -2.2043198E+02  2.0684429E+02  1.5345316E+02  3.3900249E+02  7.9932473E-06  0.0000000E+00  1.0000000E+00
 11  1  4  4   0   0 -1.6512552E+02  8.8349002E+01  3.9030024E+01  1.9129905E+02  1.0619668E-05  0.0000000E+00  1.0000000E+00
-13  1  5  5   0   0  3.8592886E+02 -2.7865964E+02 -1.2817664E+02  4.9297214E+02  8.7600580E-07  0.0000000E+00  1.0000000E+00
 13  1  5  5   0   0 -3.7136586E-01 -1.6533652E+01 -1.2986906E+01  2.1027584E+01  1.9073486E-06  0.0000000E+00  1.0000000E+00
</event>
<event>
9 100 1.0000000E+00 1.0000000E+03 7.8125000E-03 0.0000000E+00
 21 -1  0  0 501 502  0.0000000E+00  0.0000000E+00  3.6333852E+02  3.6333852E+02  0.0000000E+00  0.0000000E+00  1.0000000E+00
 21 -1  0  0 502 501  0.0000000E+00  0.0000000E+00 -6.9365029E+02  6.9365029E+02  0.0000000E+00  0.0000000E+00  1.0000000E+00
 39  2  1  2   0   0 -6.8212103E-13  6.8212103E-13 -3.3031177E+02  1.0569888E+03  1.0040515E+03  0.0000000E+00  1.0000000E+00
 23  2  3  3   0   0 -3.0263016E+02  2.8874606E+02 -4.4157240E+02  6.1500383E+02  9.1017721E+01  0.0000000E+00  1.0000000E+00
 23  2  3  3   0   0  3.0263016E+02 -2.8874606E+02  1.1126063E+02  4.4198497E+02  8.9512510E+01  0.0000000E+00  1.0000000E+00
-11  1  4  4   0   0 -5.1737444E+01  1.1847082E+01 -3.9873153E+01  6.6385125E+01  1.5258789E-05  0.0000000E+00  1.0000000E+00
 11  1  4  4   0   0 -2.5089272E+02  2.7689897E+02 -4.0169925E+02  5.4861870E+02  3.2340670E-06  0.0000000E+00  1.0000000E+00
-13  1  5  5   0   0  2.3355471E+02 -1.6601696E+02  8.3226456E+01  2.9838914E+02  2.9394217E-06  0.0000000E+00  1.0000000E+00
 13  1  5  5   0   0  6.9075449E+01 -1.2272910E+02  2.8034175E+01  1.4359584E+02  4.4731290E-06  0.0000000E+00  1.0000000E+00
</event>
<event>
9 100 1.0000000E+00 1.0000000E+03 7.8125000E-03 0.0000000E+00
 21 -1  0  0 501 502  0.0000000E+00  0.0000000E+00  1.7030351E+02  1.7030351E+02  0.0000000E+00  0.0000000E+00  1.0000000E+00
 21 -1  0  0 502 501  0.0000000E+00  0.0000000E+00 -1.5056808E+03  1.5056808E+03  0.0000000E+00  0.0000000E+00  1.0000000E+00
 39  2  1  2   0   0 -8.8107299E-13 -2.7284841E-12 -1.3353773E+03  1.6759843E+03  1.0127640E+03  0.0000000E+00  1.0000000E+00
 23  2  3  3   0   0  1.4021644E+02  4.5134613E+02 -4.1698762E+02  6.3917686E+02  1.0627513E+02  0.0000000E+00  1.0000000E+00
 23  2  3  3   0   0 -1.4021644E+02 -4.5134613E+02 -9.1838968E+02  1.0368075E+03  9.0311422E+01  0.0000000E+00  1.0000000E+00
-11  1  4  4   0   0  3.6956946E+01  1.1820785E+02 -1.7614215E+02  2.1532526E+02  2.6973983E-06  0.0000000E+00  1.0000000E+00
 11  1  4  4   0   0  1.0325949E+02  3.3313828E+02 -2.4084547E+02  4.2385160E+02  3.8146973E-06  0.0000000E+00  1.0000000E+00
-13  1  5  5   0   0 -3.1401313E+01 -2.5127724E+02 -4.9835439E+02  5.5900214E+02  5.3947966E-06  0.0000000E+00  1.0000000E+00
 13  1  5  5   0   0 -1.0881512E+02 -2.0006889E+02 -4.2003529E+02  4.7780533E+02  7.6293945E-06  0.0000000E+00  1.0000000E+00
</event>
<event>
9 100 1.0000000E+00 1.0000000E+03 7.8125000E-03 0.0000000E+00
 21 -1  0  0 501 502  0.0000000E+00  0.0000000E+00  3.8398244E+02  3.8398244E+02  0.0000000E+00  0.0000000E+00  1.0000000E+00
 21 -1  0  0 502 501  0.0000000E+00  0.0000000E+00 -6.5586714E+02  6.5586714E+02  0.0000000E+00  0.0000000E+00  1.0000000E+00
 39  2  1  2   0   0  5.1159077E-13  7.3896445E-13 -2.7188470E+02  1.0398496E+03  1.0036762E+03  0.0000000E+00  1.0000000E+00
 23  2  3  3   0   0  1.8273537E+02  2.9322098E+02  2.2922083E+02  4.2442801E+02  9.0698356E+01  0.0000000E+00  1.0000000E+00
 23  2  3  3   0   0 -1.8273537E+02 -2.9322098E+02 -5.0110553E+02  6.1542158E+02  9.0918717E+01  0.0000000E+00  1.0000000E+00
-11  1  4  4   0   0  1.2646729E+02  1.3450329E+02  8.7383757E+01  2.0425727E+02  7.3871295E-06  0.0000000E+00  1.0000000E+00
 11  1  4  4   0   0  5.6268075E+01  1.5871769E+02  1.4183707E+02  2.2017074E+02  5.8788433E-06  0.0000000E+00  1.0000000E+00
-13  1  5  5   0   0 -1.2101521E+02 -1.1029344E+02 -2.1431577E+02  2.6970461E+02  1.0789593E-05  0.0000000E+00  1.0000000E+00
 13  1  5  5   0   0 -6.1720157E+01 -1.8292754E+02 -2.8678975E+02  3.4571697E+02  2.6973983E-06  0.0000000E+00  1.0000000E+00
</event>
<event>
9 100 1.0000000E+00 1.0000000E+03 7.8125000E-03 0.0000000E+00
 21 -1  0  0 501 502  0.0000000E+00  0.0000000E+00  7.6210110E+02  7.6210110E+02  0.0000000E+00  0.0000000E+00  1.0000000E+00
 21 -1  0  0 502 501  0.0000000E+00  0.0000000E+00 -3.2910210E+02  3.2910210E+02  0.0000000E+00  0.0000000E+00  1.0000000E+00
 39  2  1  2   0   0  2.1600499E-12 -7.6738615E-13  4.3299901E+02  1.0912032E+03  1.0016168E+03  0.0000000E+00  1.0000000E+00
 23  2  3  3   0   0 -4.3232931E+02  1.5297501E+02  4.1282729E+02  6.2324269E+02  8.7721667E+01  0.0000000E+00  1.0000000E+00
 23  2  3  3   0   0  4.3232931E+02 -1.5297501E+02  2.0171717E+01  4.6796051E+02  9.0940410E+01  0.0000000E+00  1.0000000E+00
-11  1  4  4   0   0 -1.2675872E+02  5.3731631E+01  1.7927581E+02  2.2604132E+02  6.6072495E-06  0.0000000E+00  1.0000000E+00
 11  1  4  4   0   0 -3.0557059E+02  9.9243383E+01  2.3355148E+02  3.9720137E+02  5.7220459E-06  0.0000000E+00  1.0000000E+00
-13  1  5  5   0   0  1.9350140E+02 -7.6179394E+01 -3.5554973E+01  2.1097452E+02  6.4681339E-06  0.0000000E+00  1.0000000E+00
 13  1  5  5   0   0  2.3882791E+02 -7.6795621E+01  5.5726690E+01  2.5698599E+02  2.0784850E-06  0.0000000E+00  1.0000000E+00
</event>
<event>
9 100 1.0000000E+00 1.0000000E+03 7.8125000E-03 0.0000000E+00
 21 -1  0  0 501 502  0.0000000E+00  0.0000000E+00  3.0154026E+02  3.0154026E+02  0.0000000E+00  0.0000000E+00  1.0000000E+00
 21 -1  0  0 502 501  0.0000000E+00  0.0000000E+00 -8.3717978E+02  8.3717978E+02  0.0000000E+00  0.0000000E+00  1.0000000E+00
 39  2  1  2   0   0  9.3791641E-13 -1.8758328E-12 -5.3563952E+02  1.1387200E+03  1.0048749E+03  0.0000000E+00  1.0000000E+00
 23  2  3  3   0   0  1.8092648E+02 -3.5132568E+02 -6.0384156E+02  7.2739673E+02  9.1198945E+01  0.0000000E+00  1.0000000E+00
 23  2  3  3   0   0 -1.8092648E+02  3.5132568E+02  6.8202035E+01  4.1132331E+02  9.1494356E+01  0.0000000E+00  1.0000000E+00
-11  1  4  4   0   0  1.2224937E+02 -3.0898506E+02 -5.1372914E+02  6.1182866E+02  2.6973983E-06  0.0000000E+00  1.0000000E+00
 11  1  4  4   0   0  5.8677110E+01 -4.2340625E+01 -9.0112416E+01  1.1556807E+02  1.5258789E-05  0.0000000E+00  1.0000000E+00
-13  1  5  5   0   0 -6.3765460E+01  1.9149805E+02  2.7916540E-01  2.0183561E+02  4.0460975E-06  0.0000000E+00  1.0000000E+00
 13  1  5  5   0   0 -1.1716102E+02  1.5982764E+02  6.7922869E+01  2.0948770E+02  4.6663406E-06  0.0000000E+00  1.0000000E+00
</event>
<event>
9 100 1.0000000E+00 1.0000000E+03 7.8125000E-03 0.0000000E+00
 21 -1  0  0 501 502  0.0000000E+00  0.0000000E+00  1.8592112E+03  1.8592112E+03  0.0000000E+00  0.0000000E+00  1.0000000E+00
 21 -1  0  0 502 501  0.0000000E+00  0.0000000E+00 -1.2665010E+02  1.2665010E+02  0.0000000E+00  0.0000000E+00  1.0000000E+00
 39  2  1  2   0   0  2.7853275E-12  6.3948846E-13  1.7325611E+03  1.9858613E+03  9.7050353E+02  0.0000000E+00  1.0000000E+00
 23  2  3  3   0   0  4.5448048E+02  1.0280311E+02  6.6034642E+02  8.1317386E+02  8.9851742E+01  0.0000000E+00  1.0000000E+00
 23  2  3  3   0   0 -4.5448048E+02 -1.0280311E+02  1.0722147E+03  1.1726874E+03  9.1817893E+01  0.0000000E+00  1.0000000E+00
-11  1  4  4   0   0  1.8767709E+02  7.6996138E+01  2.3537370E+02  3.1072797E+02  2.1579186E-05  0.0000000E+00  1.0000000E+00
 11  1  4  4   0   0  2.6680339E+02  2.5806973E+01  4.2497272E+02  5.0244588E+02  1.5495374E-05  0.0000000E+00  1.0000000E+00
-13  1  5  5   0   0 -2.7200000E+02 -6.4770566E+01  5.2846418E+02  5.9787425E+02  3.2368780E-05  0.0000000E+00  1.0000000E+00
 13  1  5  5   0   0 -1.8248048E+02 -3.8032545E+01  5.4375049E+02  5.7481318E+02  2.9548518E-05  0.0000000E+00  1.0000000E+00
</event>
<event>
9 100 1.0000000E+00 1.0000000E+03 7.8125000E-03 0.0000000E+00
 21 -1  0  0 501 502  0.0000000E+00  0.0000000E+00  1.3350475E+03  1.3350475E+03  0.0000000E+00  0.0000000E+00  1.0000000E+00
 21 -1  0  0 502 501  0.0000000E+00  0.0000000E+00 -1.8360705E+02  1.8360705E+02  0.0000000E+00  0.0000000E+00  1.0000000E+00
 39  2  1  2   0   0  1.1368684E-12  8.8817842E-14  1.1514404E+03  1.5186545E+03  9.9020024E+02  0.0000000E+00  1.0000000E+00
 23  2  3  3   0   0  2.8700799E+02  2.5420208E+01  1.1753858E+03  1.2153105E+03  1.1148154E+02  0.0000000E+00  1.0000000E+00
 23  2  3  3   0   0 -2.8700799E+02 -2.5420208E+01 -2.3945332E+01  3.0334403E+02  9.1784800E+01  0.0000000E+00  1.0000000E+00
-11  1  4  4   0   0  5.3671321E+01 -3.9597955E+01  2.4775707E+02  2.5657781E+02  2.6428998E-05  0.0000000E+00  1.0000000E+00
 11  1  4  4   0   0  2.3333667E+02  6.5018163E+01  9.2762869E+02  9.5873268E+02  6.6072495E-06  0.0000000E+00  1.0000000E+00
-13  1  5  5   0   0  1.5020440E+00  1.1309055E+01 -2.7439312E+00  1.1733713E+01  2.5788912E-06  0.0000000E+00  1.0000000E+00
 13  1  5  5   0   0 -2.8851004E+02 -3.6729264E+01 -2.1201401E+01  2.9161032E+02  1.4038760E-06  0.0000000E+00  1.0000000E+00
</event>
<event>
9 100 1.0000000E+00 1.0000000E+03 7.8125000E-03 0.0000000E+00
 21 -1  0  0 501 502  0.0000000E+00  0.0000000E+00  5.6878398E+02  5.6878398E+02  0.0000000E+00  0.0000000E+00  1.0000000E+00
 21 -1  0  0 502 501  0.0000000E+00  0.0000000E+00 -4.3758394E+02  4.3758394E+02  0.0000000E+00  0.0000000E+00  1.0000000E+00
 39  2  1  2   0   0 -4.1211479E-13  1.4779289E-12  1.3120004E+02  1.0063679E+03  9.9777900E+02  0.0000000E+00  1.0000000E+00
 23  2  3  3   0   0 -1.0286947E+02  3.7730667E+02 -2.3394131E+02  4.6347002E+02  8.4459879E+01  0.0000000E+00  1.0000000E+00
 23  2  3  3   0   0  1.0286947E+02 -3.7730667E+02  3.6514135E+02  5.4289790E+02  9.2018888E+01  0.0000000E+00  1.0000000E+00
-11  1  4  4   0   0 -7.7598867E+01  3.5126406E+02 -1.9115480E+02  4.0736738E+02  6.7434958E-07  0.0000000E+00  1.0000000E+00
 11  1  4  4   0   0 -2.5270601E+01  2.6042614E+01 -4.2786512E+01  5.6102644E+01  1.1757687E-05  0.0000000E+00  1.0000000E+00
-13  1  5  5   0   0 -1.5461524E+01 -1.9486593E+01  2.3238000E+01  3.4041015E+01  1.5728400E-05  0.0000000E+00  1.0000000E+00
 13  1  5  5   0   0  1.1833099E+02 -3.5782008E+02  3.4190335E+02  5.0885689E+02  3.3378601E-06  0.0000000E+00  1.0000000E+00
</event>
<event>
9 100 1.0000000E+00 1.0000000E+03 7.8125000E-03 0.0000000E+00
 21 -1  0  0 501 502  0.0000000E+00  0.0000000E+00  1.7966712E+03  1.7966712E+03  0.0000000E+00  0.0000000E+00  1.0000000E+00
 21 -1  0  0 502 501  0.0000000E+00  0.0000000E+00 -1.4191392E+02  1.4191392E+02  0.0000000E+00  0.0000000E+00  1.0000000E+00
 39  2  1  2   0   0 -2.6147973E-12 -8.5265128E-13  1.6547572E+03  1.9385851E+03  1.0098963E+03  0.0000000E+00  1.0000000E+00
 23  2  3  3   0   0 -4.6676740E+02 -1.5608802E+02  9.5797887E+02  1.0806966E+03  8.9142672E+01  0.0000000E+00  1.0000000E+00
 23  2  3  3   0   0  4.6676740E+02  1.5608802E+02  6.9677837E+02  8.5788844E+02  9.0759065E+01  0.0000000E+00  1.0000000E+00
-11  1  4  4   0   0 -8.3292557E+01 -2.2231250E+01  1.0427324E+02  1.3529518E+02  3.2368780E-05  0.0000000E+00  1.0000000E+00
 11  1  4  4   0   0 -3.8347484E+02 -1.3385677E+02  8.5370563E+02  9.4540144E+02  7.2629672E-06  0.0000000E+00  1.0000000E+00
-13  1  5  5   0   0  1.2293032E+02  6.9957119E+01  1.4912537E+02  2.0553403E+02  2.4126264E-05  0.0000000E+00  1.0000000E+00
 13  1  5  5   0   0  3.4383708E+02  8.6130899E+01  5.4765300E+02  6.5235441E+02  1.0789593E-05  0.0000000E+00  1.0000000E+00
</event>
<event>
9 100 1.0000000E+00 1.0000000E+03 7.8125000E-03 0.0000000E+00
 21 -1  0  0 501 502  0.0000000E+00  0.0000000E+00  4.6176301E+02  4.6176301E+02  0.0000000E+00  0.0000000E+00  1.0000000E+00
 21 -1  0  0 502 501  0.0000000E+00  0.0000000E+00 -5.5008284E+02  5.5008284E+02  0.0000000E+00  0.0000000E+00  1.0000000E+00
 39  2  1  2   0   0 -8.5265128E-13 -1.1937118E-12 -8.8319832E+01  1.0118458E+03  1.0079839E+03  0.0000000E+00  1.0000000E+00
 23  2  3  3   0   0  2.6852396E+02  3.5922925E+02 -2.5604964E+02  5.2457002E+02  9.1986535E+01  0.0000000E+00  1.0000000E+00
 23  2  3  3   0   0 -2.6852396E+02 -3.5922925E+02  1.6772980E+02  4.8727582E+02  9.0297672E+01  0.0000000E+00  1.0000000E+00
-11  1  4  4   0   0  2.5794396E+02  3.0217167E+02 -2.0395773E+02  4.4658880E+02  4.2649612E-06  0.0000000E+00  1.0000000E+00
 11  1  4  4   0   0  1.0579999E+01  5.7057584E+01 -5.2091903E+01  7.7981220E+01  7.1366451E-06  0.0000000E+00  1.0000000E+00
-13  1  5  5   0   0 -1.7739915E+02 -1.6696335E+02  1.0648848E+02  2.6587029E+02  8.4495760E-06  0.0000000E+00  1.0000000E+00
 13  1  5  5   0   0 -9.1124814E+01 -1.9226590E+02  6.1241322E+01  2.2140553E+02  1.1039578E-05  0.0000000E+00  1.0000000E+00
</event>
<event>
9 100 1.0000000E+00 1.0000000E+03 7.8125000E-03 0.0000000E+00
 21 -1  0  0 501 502  0.0000000E+00  0.0000000E+00  2.3107878E+02  2.3107878E+02  0.0000000E+00  0.0000000E+00  1.0000000E+00
 21 -1  0  0 502 501  0.0000000E+00  0.0000000E+00 -1.1022088E+03  1.1022088E+03  0.0000000E+00  0.0000000E+00  1.0000000E+00
 39  2  1  2   0   0 -2.6716407E-12 -1.9042545E-12 -8.7113002E+02  1.3332876E+03  1.0093504E+03  0.0000000E+00  1.0000000E+00
 23  2  3  3   0   0 -1.3321038E+02 -9.4913275E+01 -1.0541045E+03  1.0707394E+03  9.2699191E+01  0.0000000E+00  1.0000000E+00
 23  2  3  3   0   0  1.3321038E+02  9.4913275E+01  1.8297444E+02  2.6254817E+02  9.3264994E+01  0.0000000E+00  1.0000000E+00
-11  1  4  4   0   0 -1.4601265E+02 -9.5320540E+01 -1.0036206E+03  1.0186559E+03  2.0230487E-06  0.0000000E+00  1.0000000E+00
 11  1  4  4   0   0  1.2802263E+01  4.0726504E-01 -5.0483911E+01  5.2083482E+01  3.2368780E-05  0.0000000E+00  1.0000000E+00
-13  1  5  5   0   0 -1.4455462E+01  6.4264280E+00  1.9911172E+01  2.5430574E+01  1.1757687E-05  0.0000000E+00  1.0000000E+00
 13  1  5  5   0   0  1.4766584E+02  8.8486847E+01  1.6306327E+02  2.3711759E+02  2.9586968E-06  0.0000000E+00  1.0000000E+00
</event>
<event>
9 100 1.0000000E+00 1.0000000E+03 7.8125000E-03 0.0000000E+00
 21 -1  0  0 501 502  0.0000000E+00  0.0000000E+00  1.1045558E+03  1.1045558E+03  0.0000000E+00  0.0000000E+00  1.0000000E+00
 21 -1  0  0 502 501  0.0000000E+00  0.0000000E+00 -2.5571582E+02  2.5571582E+02  0.0000000E+00  0.0000000E+00  1.0000000E+00
 39  2  1  2   0   0 -2.4442670E-12 -1.9326762E-12  8.4883994E+02  1.3602716E+03  1.0629250E+03  0.0000000E+00  1.0000000E+00
 23  2  3  3   0   0 -4.2390593E+02 -3.0615855E+02  3.9011671E+02  6.5861489E+02  9.0295296E+01  0.0000000E+00  1.0000000E+00
 23  2  3  3   0   0  4.2390593E+02  3.0615855E+02  4.5872324E+02  7.0165668E+02  9.2009767E+01  0.0000000E+00  1.0000000E+00
-11  1  4  4   0   0 -2.7118057E+02 -1.6647319E+02  1.8940653E+02  3.7030671E+02  4.6720309E-06  0.0000000E+00  1.0000000E+00
 11  1  4  4   0   0 -1.5272536E+02 -1.3968536E+02  2.0071018E+02  2.8830819E+02  7.6293945E-06  0.0000000E+00  1.0000000E+00
-13  1  5  5   0   0  7.6488648E+01  1.5895091E+01  6.2761567E+01  1.0021069E+02  2.1579186E-05  0.0000000E+00  1.0000000E+00
 13  1  5  5   0   0  3.4741728E+02  2.9026346E+02  3.9596167E+02  6.0144599E+02  4.1019083E-06  0.0000000E+00  1.0000000E+00
</event>
<event>
9 100 1.0000000E+00 1.0000000E+03 7.8125000E-03 0.0000000E+00
 21 -1  0  0 501 502  0.0000000E+00  0.0000000E+00  1.4406269E+02  1.4406269E+02  0.0000000E+00  0.0000000E+00  1.0000000E+00
 21 -1  0  0 502 501  0.0000000E+00  0.0000000E+00 -1.6709885E+03  1.6709885E+03  0.0000000E+00  0.0000000E+00  1.0000000E+00
 39  2  1  2   0   0  1.0231815E-12 -6.8212103E-13 -1.5269258E+03  1.8150512E+03  9.8127898E+02  0.0000000E+00  1.0000000E+00
 23  2  3  3   0   0  4.1173567E+02 -2.5031716E+02 -7.2168339E+02  8.7242738E+02  9.0098092E+01  0.0000000E+00  1.0000000E+00
 23  2  3  3   0   0 -4.1173567E+02  2.5031716E+02 -8.0524243E+02  9.4262383E+02  8.9103136E+01  0.0000000E+00  1.0000000E+00
-11  1  4  4   0   0  2.3881848E+02 -1.0037646E+02 -3.4102290E+02  4.2825964E+02  1.7892516E-05  0.0000000E+00  1.0000000E+00
 11  1  4  4   0   0  1.7291719E+02 -1.4994071E+02 -3.8066049E+02  4.4416774E+02  1.7059845E-05  0.0000000E+00  1.0000000E+00
-13  1  5  5   0   0 -7.2003573E+01  8.5552009E+01 -1.6452493E+02  1.9892741E+02  3.0517578E-05  0.0000000E+00  1.0000000E+00
 13  1  5  5   0   0 -3.3973210E+02  1.6476516E+02 -6.4071750E+02  7.4369643E+02  8.0921949E-06  0.0000000E+00  1.0000000E+00
</event>
<event>
9 100 1.0000000E+00 1.0000000E+03 7.8125000E-03 0.0000000E+00
 21 -1  0  0 501 502  0.0000000E+00  0.0000000E+00  7.2608906E+02  7.2608906E+02  0.0000000E+00  0.0000000E+00  1.0000000E+00
 21 -1  0  0 502 501  0.0000000E+00  0.0000000E+00 -3.6079154E+02  3.6079154E+02  0.0000000E+00  0.0000000E+00  1.0000000E+00
 39  2  1  2   0   0  3.6948222E-13  3.1263880E-13  3.6529753E+02  1.0868806E+03  1.0236538E+03  0.0000000E+00  1.0000000E+00
 23  2  3  3   0   0 -2.1165824E+02 -1.9896851E+02  6.1872819E+02  6.8922960E+02  8.8460080E+01  0.0000000E+00  1.0000000E+00
 23  2  3  3   0   0  2.1165824E+02  1.9896851E+02 -2.5343067E+02  3.9765100E+02  9.7527080E+01  0.0000000E+00  1.0000000E+00
-11  1  4  4   0   0 -1.8412342E+02 -1.2543592E+02  4.9290575E+02  5.4091745E+02  3.0157830E-06  0.0000000E+00  1.0000000E+00
 11  1  4  4   0   0 -2.7534827E+01 -7.3532594E+01  1.2582244E+02  1.4831216E+02  1.0789593E-05  0.0000000E+00  1.0000000E+00
-13  1  5  5   0   0  1.8762562E+02  1.6951249E+02 -2.5564263E+02  3.5957059E+02  3.4980615E-06  0.0000000E+00  1.0000000E+00
 13  1  5  5   0   0  2.4032620E+01  2.9456027E+01  2.2119632E+00  3.8080403E+01  1.7271776E-05  0.0000000E+00  1.0000000E+00
</event>
<event>
9 100 1.0000000E+00 1.0000000E+03 7.8125000E-03 0.0000000E+00
 21 -1  0  0 501 502  0.0000000E+00  0.0000000E+00  8.2317129E+02  8.2317129E+02  0.0000000E+00  0.0000000E+00  1.0000000E+00
 21 -1  0  0 502 501  0.0000000E+00  0.0000000E+00 -2.9839090E+02  2.9839090E+02  0.0000000E+00  0.0000000E+00  1.0000000E+00
 39  2  1  2   0   0 -1.0800250E-12  6.8212103E-13  5.2478039E+02  1.1215622E+03  9.9121506E+02  0.0000000E+00  1.0000000E+00
 23  2  3  3   0   0  4.0503425E+02 -2.5394503E+02  3.6732326E+02  6.0958770E+02  9.0166308E+01  0.0000000E+00  1.0000000E+00
 23  2  3  3   0   0 -4.0503425E+02  2.5394503E+02  1.5745713E+02  5.1197449E+02  9.3724683E+01  0.0000000E+00  1.0000000E+00
-11  1  4  4   0   0  1.8768987E+01  7.2620222E+00  1.3192964E+01  2.4063793E+01  2.3822777E-05  0.0000000E+00  1.0000000E+00
 11  1  4  4   0   0  3.8626526E+02 -2.6120705E+02  3.5413030E+02  5.8552391E+02  3.1719529E-06  0.0000000E+00  1.0000000E+00
-13  1  5  5   0   0 -3.1327081E+01  5.6243829E+01  2.0525416E+01  6.7572531E+01  1.6845247E-05  0.0000000E+00  1.0000000E+00
 13  1  5  5   0   0 -3.7370717E+02  1.9770120E+02  1.3693171E+02  4.4440196E+02  4.1157428E-06  0.0000000E+00  1.0000000E+00
</event>
<event>
9 100 1.0000000E+00 1.0000000E+03 7.8125000E-03 0.0000000E+00
 21 -1  0  0 501 502  0.0000000E+00  0.0000000E+00  1.0225971E+03  1.0225971E+03  0.0000000E+00  0.0000000E+00  1.0000000E+00
 21 -1  0  0 502 501  0.0000000E+00  0.0000000E+00 -2.4688825E+02  2.4688825E+02  0.0000000E+00  0.0000000E+00  1.0000000E+00
 39  2  1  2   0   0 -3.2116532E-12 -4.4906301E-12  7.7570883E+02  1.2694853E+03  1.0049223E+03  0.0000000E+00  1.0000000E+00
 23  2  3  3   0   0  1.9413800E+02  2.7288208E+02 -7.1451771E+01  3.5401329E+02  8.9810175E+01  0.0000000E+00  1.0000000E+00
 23  2  3  3   0   0 -1.9413800E+02 -2.7288208E+02  8.4716060E+02  9.1547203E+02  9.0850247E+01  0.0000000E+00  1.0000000E+00
-11  1  4  4   0   0  5.6011759E+01  1.4270198E+02 -5.7381266E+01  1.6368806E+02  8.2107426E-06  0.0000000E+00  1.0000000E+00
 11  1  4  4   0   0  1.3812624E+02  1.3018010E+02 -1.4070506E+01  1.9032524E+02  8.3139399E-06  0.0000000E+00  1.0000000E+00
-13  1  5  5   0   0 -2.0241520E+02 -2.6997262E+02  8.3379669E+02  8.9948543E+02  1.1434153E-06  0.0000000E+00  1.0000000E+00
 13  1  5  5   0   0  8.2772073E+00 -2.9094525E+00  1.3363914E+01  1.5986597E+01  3.5785032E-05  0.0000000E+00  1.0000000E+00
</event>
<event>
9 100 1.0000000E+00 1.0000000E+03 7.8125000E-03 0.0000000E+00
 21 -1  0  0 501 502  0.0000000E+00  0.0000000E+00  5.5696919E+02  5.5696919E+02  0.0000000E+00  0.0000000E+00  1.0000000E+00
 21 -1  0  0 502 501  0.0000000E+00  0.0000000E+00 -4.4637616E+02  4.4637616E+02  0.0000000E+00  0.0000000E+00  1.0000000E+00
 39  2  1  2   0   0  2.8421709E-14  7.1054274E-15  1.1059304E+02  1.0033454E+03  9.9723171E+02  0.0000000E+00  1.0000000E+00
 23  2  3  3   0   0 -2.0053666E+02 -5.9758492E+01 -3.9031062E+02  4.5289955E+02  9.4813464E+01  0.0000000E+00  1.0000000E+00
 23  2  3  3   0   0  2.0053666E+02  5.9758492E+01  5.0090365E+02  5.5044580E+02  9.1104780E+01  0.0000000E+00  1.0000000E+00
-11  1  4  4   0   0 -6.6861625E+00  1.0544462E+01 -1.2199508E+00  1.2545068E+01  7.6293945E-06  0.0000000E+00  1.0000000E+00
 11  1  4  4   0   0 -1.9385050E+02 -7.0302954E+01 -3.8909067E+02  4.4035448E+02  1.9711257E-06  0.0000000E+00  1.0000000E+00
-13  1  5  5   0   0  4.3160945E+01  1.7223559E+00  2.1220141E+02  2.1655316E+02  3.8146973E-06  0.0000000E+00  1.0000000E+00
 13  1  5  5   0   0  1.5737572E+02  5.8036136E+01  2.8870224E+02  3.3389264E+02  0.0000000E+00  0.0000000E+00  1.0000000E+00
</event>
<event>
9 100 1.0000000E+00 1.0000000E+03 7.8125000E-03 0.0000000E+00
 21 -1  0  0 501 502  0.0000000E+00  0.0000000E+00  3.0564726E+03  3.0564726E+03  0.0000000E+00  0.0000000E+00  1.0000000E+00
 21 -1  0  0 502 501  0.0000000E+00  0.0000000E+00 -8.5310494E+01  8.5310494E+01  0.0000000E+00  0.0000000E+00  1.0000000E+00
 39  2  1  2   0   0 -6.4943606E-12  9.6065378E-12  2.9711621E+03  3.1417831E+03  1.0212721E+03  0.0000000E+00  1.0000000E+00
 23  2  3  3   0   0 -1.1082730E+02  1.6380346E+02  2.9049927E+03  2.9131554E+03  9.1530903E+01  0.0000000E+00  1.0000000E+00
 23  2  3  3   0   0  1.1082730E+02 -1.6380346E+02  6.6169486E+01  2.2862771E+02  9.3690803E+01  0.0000000E+00  1.0000000E+00
-11  1  4  4   0   0 -7.7819627E+01  1.3311058E+02  2.6280147E+03  2.6325340E+03  6.6072495E-06  0.0000000E+00  1.0000000E+00
 11  1  4  4   0   0 -3.3007671E+01  3.0692876E+01  2.7697800E+02  2.8062140E+02  6.1035156E-05  0.0000000E+00  1.0000000E+00
-13  1  5  5   0   0  8.5179153E+01 -4.3373094E+01  2.5082077E+01  9.8822183E+01  4.4984728E-06  0.0000000E+00  1.0000000E+00
 13  1  5  5   0   0  2.5648145E+01 -1.2043036E+02  4.1087409E+01  1.2980553E+02  2.7183900E-06  0.0000000E+00  1.0000000E+00
</event>
<event>
9 100 1.0000000E+00 1.0000000E+03 7.8125000E-03 0.0000000E+00
 21 -1  0  0 501 502  0.0000000E+00  0.0000000E+00  3.6706831E+02  3.6706831E+02  0.0000000E+00  0.0000000E+00  1.0000000E+00
 21 -1  0  0 502 501  0.0000000E+00  0.0000000E+00 -6.6039907E+02  6.6039907E+02  0.0000000E+00  0.0000000E+00  1.0000000E+00
 39  2  1  2   0   0 -8.5265128E-13  3.4106051E-13 -2.9333077E+02  1.0274674E+03  9.8470619E+02  0.0000000E+00  1.0000000E+00
 23  2  3  3   0   0  4.4871622E+02 -1.8105660E+02 -1.4843577E+02  5.1431707E+02  9.1439227E+01  0.0000000E+00  1.0000000E+00
 23  2  3  3   0   0 -4.4871622E+02  1.8105660E+02 -1.4489500E+02  5.1315030E+02  9.0558979E+01  0.0000000E+00  1.0000000E+00
-11  1  4  4   0   0  2.1892177E+02 -1.3465597E+02 -9.3813174E+01  2.7360535E+02  6.4681339E-06  0.0000000E+00  1.0000000E+00
 11  1  4  4   0   0  2.2979445E+02 -4.6400630E+01 -5.4622593E+01  2.4071173E+02  4.8628039E-06  0.0000000E+00  1.0000000E+00
-13  1  5  5   0   0 -1.6808460E+02  1.1581935E+02 -6.2899619E+01  2.1359521E+02  7.2000832E-06  0.0000000E+00  1.0000000E+00
 13  1  5  5   0   0 -2.8063163E+02  6.5237259E+01 -8.1995379E+01  2.9955509E+02  5.7616453E-06  0.0000000E+00  1.0000000E+00
</event>
<event>
9 100 1.0000000E+00 1.0000000E+03 7.8125000E-03 0.0000000E+00
 21 -1  0  0 501 502  0.0000000E+00  0.0000000E+00  4.9721948E+02  4.9721948E+02  0.0000000E+00  0.0000000E+00  1.0000000E+00
 21 -1  0  0 502 501  0.0000000E+00  0.0000000E+00 -5.0142915E+02  5.0142915E+02  0.0000000E+00  0.0000000E+00  1.0000000E+00
 39  2  1  2   0   0  1.5631940E-13  2.2737368E-13 -4.2096687E+00  9.9864862E+02  9.9863975E+02  0.0000000E+00  1.0000000E+00
 23  2  3  3   0   0  3.7301455E+01  5.1724531E+01 -4.8891061E+02  5.0115917E+02  8.9778065E+01  0.0000000E+00  1.0000000E+00
 23  2  3  3   0   0 -3.7301455E+01 -5.1724531E+01  4.8470094E+02  4.9748946E+02  9.2162535E+01  0.0000000E+00  1.0000000E+00
-11  1  4  4   0   0  3.1744655E+01  8.5388199E+00 -4.0760598E+02  4.0892942E+02  4.9554371E-06  0.0000000E+00  1.0000000E+00
 11  1  4  4   0   0  5.5567994E+00  4.3185711E+01 -8.1304628E+01  9.2229747E+01  1.7892516E-05  0.0000000E+00  1.0000000E+00
-13  1  5  5   0   0 -5.3400589E+01 -5.8278781E+01  4.6293368E+02  4.6963351E+02  3.3378601E-06  0.0000000E+00  1.0000000E+00
 13  1  5  5   0   0  1.6099134E+01  6.5542499E+00  2.1767259E+01  2.7855949E+01  2.3515373E-05  0.0000000E+00  1.0000000E+00
</event>
<event>
9 100 1.0000000E+00 1.0000000E+03 7.8125000E-03 0.0000000E+00
 21 -1  0  0 501 502  0.0000000E+00  0.0000000E+00  1.9827294E+03  1.9827294E+03  0.0000000E+00  0.0000000E+00  1.0000000E+00
 21 -1  0  0 502 501  0.0000000E+00  0.0000000E+00 -1.2554017E+02  1.2554017E+02  0.0000000E+00  0.0000000E+00  1.0000000E+00
 39  2  1  2   0   0  3.7516656E-12  9.8907549E-12  1.8571892E+03  2.1082695E+03  9.9782198E+02  0.0000000E+00  1.0000000E+00
 23  2  3  3   0   0  1.6189370E+02  4.2449692E+02  1.3205457E+03  1.3993986E+03  8.9824235E+01  0.0000000E+00  1.0000000E+00
 23  2  3  3   0   0 -1.6189370E+02 -4.2449692E+02  5.3664351E+02  7.0887091E+02  9.0025013E+01  0.0000000E+00  1.0000000E+00
-11  1  4  4   0   0 -9.5401401E+00  3.9299394E+01  1.4479386E+02  1.5033536E+02  4.5776367E-05  0.0000000E+00  1.0000000E+00
 11  1  4  4   0   0  1.7143384E+02  3.8519753E+02  1.1757518E+03  1.2490633E+03  7.6293945E-06  0.0000000E+00  1.0000000E+00
-13  1  5  5   0   0 -5.5767339E+01 -7.7248908E+01  1.5617674E+02  1.8294416E+02  3.3690494E-05  0.0000000E+00  1.0000000E+00
 13  1  5  5   0   0 -1.0612636E+02 -3.4724801E+02  3.8046677E+02  5.2592676E+02  1.4400166E-05  0.0000000E+00  1.0000000E+00
</event>
<event>
9 100 1.0000000E+00 1.0000000E+03 7.8125000E-03 0.0000000E+00
 21 -1  0  0 501 502  0.0000000E+00  0.0000000E+00  6.2331372E+02  6.2331372E+02  0.0000000E+00  0.0000000E+00  1.0000000E+00
 21 -1  0  0 502 501  0.0000000E+00  0.0000000E+00 -4.0564818E+02  4.0564818E+02  0.0000000E+00  0.0000000E+00  1.0000000E+00
 39  2  1  2   0   0  5.6843419E-13 -3.9790393E-13  2.1766554E+02  1.0289619E+03  1.0056760E+03  0.0000000E+00  1.0000000E+00
 23  2  3  3   0   0 -3.1143566E+02  2.7665460E+02 -1.6385388E+02  4.5698333E+02  9.1955073E+01  0.0000000E+00  1.0000000E+00
 23  2  3  3   0   0  3.1143566E+02 -2.7665460E+02  3.8151941E+02  5.7197856E+02  8.9846941E+01  0.0000000E+00  1.0000000E+00
-11  1  4  4   0   0 -1.6414986E+02  1.8985399E+02 -1.3020856E+02  2.8274367E+02  3.4385216E-06  0.0000000E+00  1.0000000E+00
 11  1  4  4   0   0 -1.4728580E+02  8.6800614E+01 -3.3645320E+01  1.7423967E+02  6.8770433E-06  0.0000000E+00  1.0000000E+00
-13  1  5  5   0   0  2.2500756E+02 -2.3265129E+02  3.2971507E+02  4.6202495E+02  3.3717479E-06  0.0000000E+00  1.0000000E+00
 13  1  5  5   0   0  8.6428094E+01 -4.4003315E+01  5.1804349E+01  1.0995362E+02  1.4273290E-05  0.0000000E+00  1.0000000E+00
</event>
<event>
9 100 1.0000000E+00 1.0000000E+03 7.8125000E-03 0.0000000E+00
 21 -1  0  0 501 502  0.0000000E+00  0.0000000E+00  4.7324390E+02  4.7324390E+02  0.0000000E+00  0.0000000E+00  1.0000000E+00
 21 -1  0  0 502 501  0.0000000E+00  0.0000000E+00 -5.2354076E+02  5.2354076E+02  0.0000000E+00  0.0000000E+00  1.0000000E+00
 39  2  1  2   0   0  1.1368684E-13  0.0000000E+00 -5.0296867E+01  9.9678466E+02  9.9551488E+02  0.0000000E+00  1.0000000E+00
 23  2  3  3   0   0  3.8655359E+02 -3.0091369E+02 -3.3650111E+01  4.9943700E+02  9.1281201E+01  0.0000000E+00  1.0000000E+00
 23  2  3  3   0   0 -3.8655359E+02  3.0091369E+02 -1.6646757E+01  4.9734766E+02  8.4290257E+01  0.0000000E+00  1.0000000E+00
-11  1  4  4   0   0  3.4816972E+02 -2.9541061E+02 -4.5557196E+01  4.5887367E+02  3.6587737E-06  0.0000000E+00  1.0000000E+00
 11  1  4  4   0   0  3.8383870E+01 -5.5030835E+00  1.1907086E+01  4.0563335E+01  1.9890455E-05  0.0000000E+00  1.0000000E+00
-13  1  5  5   0   0 -1.4768014E+02  1.5701964E+02 -3.2688967E+01  2.1802101E+02  6.4196167E-06  0.0000000E+00  1.0000000E+00
 13  1  5  5   0   0 -2.3887345E+02  1.4389405E+02  1.6042210E+01  2.7932665E+02  5.1797774E-06  0.0000000E+00  1.0000000E+00
</event>
<event>
9 100 1.0000000E+00 1.0000000E+03 7.8125000E-03 0.0000000E+00
 21 -1  0  0 501 502  0.0000000E+00  0.0000000E+00  2.4744521E+02  2.4744521E+02  0.0000000E+00  0.0000000E+00  1.0000000E+00
 21 -1  0  0 502 501  0.0000000E+00  0.0000000E+00 -9.7178891E+02  9.7178891E+02  0.0000000E+00  0.0000000E+00  1.0000000E+00
 39  2  1  2   0   0 -5.9685590E-13 -9.0949470E-13 -7.2434370E+02  1.2192341E+03  9.8074362E+02  0.0000000E+00  1.0000000E+00
 23  2  3  3   0   0  1.5721515E+02  2.2393286E+02  1.3130653E+02  3.1627338E+02  8.9022024E+01  0.0000000E+00  1.0000000E+00
 23  2  3  3   0   0 -1.5721515E+02 -2.2393286E+02 -8.5565023E+02  9.0296074E+02  9.1314042E+01  0.0000000E+00  1.0000000E+00
-11  1  4  4   0   0  1.2690045E+02  1.9566816E+02  7.2302289E+01  2.4416670E+02  6.9755263E-06  0.0000000E+00  1.0000000E+00
 11  1  4  4   0   0  3.0314695E+01  2.8264695E+01  5.9004242E+01  7.2106687E+01  1.7917914E-05  0.0000000E+00  1.0000000E+00
-13  1  5  5   0   0 -4.4654808E+01 -1.2242366E+02 -4.9249375E+02  5.0944254E+02  1.0789593E-05  0.0000000E+00  1.0000000E+00
 13  1  5  5   0   0 -1.1256034E+02 -1.0150919E+02 -3.6315648E+02  3.9351820E+02  1.6184390E-05  0.0000000E+00  1.0000000E+00
</event>
<event>
9 100 1.0000000E+00 1.0000000E+03 7.8125000E-03 0.0000000E+00
 21 -1  0  0 501 502  0.0000000E+00  0.0000000E+00  8.6801482E+02  8.6801482E+02  0.0000000E+00  0.0000000E+00  1.0000000E+00
 21 -1  0  0 502 501  0.0000000E+00  0.0000000E+00 -2.9572410E+02  2.9572410E+02  0.0000000E+00  0.0000000E+00  1.0000000E+00
 39  2  1  2   0   0  4.9027449E-13  1.9610980E-12  5.7229072E+02  1.1637389E+03  1.0132974E+03  0.0000000E+00  1.0000000E+00
 23  2  3  3   0   0  4.3455224E+01  1.7013109E+02  8.2149333E+02  8.4531151E+02  9.4166423E+01  0.0000000E+00  1.0000000E+00
 23  2  3  3   0   0 -4.3455224E+01 -1.7013109E+02 -2.4920260E+02  3.1842741E+02  9.1984437E+01  0.0000000E+00  1.0000000E+00
-11  1  4  4   0   0 -2.7216345E+00  5.8565049E+01  1.2062191E+02  1.3411532E+02  7.6293945E-06  0.0000000E+00  1.0000000E+00
 11  1  4  4   0   0  4.6176858E+01  1.1156604E+02  7.0087141E+02  7.1119619E+02  4.2649612E-06  0.0000000E+00  1.0000000E+00
-13  1  5  5   0   0 -1.0712703E+01 -4.3749352E+01 -1.0338088E+01  4.6213027E+01  8.0921949E-06  0.0000000E+00  1.0000000E+00
 13  1  5  5   0   0 -3.2742521E+01 -1.2638174E+02 -2.3886451E+02  2.7221439E+02  2.1123940E-06  0.0000000E+00  1.0000000E+00
</event>
<event>
9 100 1.0000000E+00 1.0000000E+03 7.8125000E-03 0.0000000E+00
 21 -1  0  0 501 502  0.0000000E+00  0.0000000E+00  1.5441207E+02  1.5441207E+02  0.0000000E+00  0.0000000E+00  1.0000000E+00
 21 -1  0  0 502 501  0.0000000E+00  0.0000000E+00 -1.6358943E+03  1.6358943E+03  0.0000000E+00  0.0000000E+00  1.0000000E+00
 39  2  1  2   0   0  1.6484591E-12 -5.0590643E-12 -1.4814822E+03  1.7903063E+03  1.0051902E+03  0.0000000E+00  1.0000000E+00
 23  2  3  3   0   0  1.3488347E+02 -4.1071973E+02 -1.1673791E+03  1.2481649E+03  9.0871203E+01  0.0000000E+00  1.0000000E+00
 23  2  3  3   0   0 -1.3488347E+02  4.1071973E+02 -3.1410311E+02  5.4214139E+02  9.1500109E+01  0.0000000E+00  1.0000000E+00
-11  1  4  4   0   0  6.8786554E+00 -1.5864935E+02 -4.3982133E+02  4.6761066E+02  2.6428998E-05  0.0000000E+00  1.0000000E+00
 11  1  4  4   0   0  1.2800482E+02 -2.5207038E+02 -7.2755775E+02  7.8055428E+02  1.6184390E-05  0.0000000E+00  1.0000000E+00
-13  1  5  5   0   0 -8.9513147E+01  2.7811998E+02 -1.5725295E+02  3.3180087E+02  7.3871295E-06  0.0000000E+00  1.0000000E+00
 13  1  5  5   0   0 -4.5370328E+01  1.3259975E+02 -1.5685016E+02  2.1034051E+02  1.2507321E-05  0.0000000E+00  1.0000000E+00
</event>
<event>
9 100 1.0000000E+00 1.0000000E+03 7.8125000E-03 0.0000000E+00
 21 -1  0  0 501 502  0.0000000E+00  0.0000000E+00  2.4426429E+02  2.4426429E+02  0.0000000E+00  0.0000000E+00  1.0000000E+00
 21 -1  0  0 502 501  0.0000000E+00  0.0000000E+00 -1.0169366E+03  1.0169366E+03  0.0000000E+00  0.0000000E+00  1.0000000E+00
 39  2  1  2   0   0  1.7053026E-13  1.1368684E-13 -7.7267232E+02  1.2612009E+03  9.9679747E+02  0.0000000E+00  1.0000000E+00
 23  2  3  3   0   0 -4.2211002E+02 -2.4579347E+02 -4.3590840E+02  6.6087281E+02  9.0252080E+01  0.0000000E+00  1.0000000E+00
 23  2  3  3   0   0  4.2211002E+02  2.4579347E+02 -3.3676392E+02  6.0032810E+02  9.1611049E+01  0.0000000E+00  1.0000000E+00
-11  1  4  4   0   0 -1.1774714E+02 -9.9811506E+01 -1.8096749E+02  2.3785701E+02  1.2651920E-05  0.0000000E+00  1.0000000E+00
 11  1  4  4   0   0 -3.0436288E+02 -1.4598196E+02 -2.5494091E+02  4.2301579E+02  7.6293945E-06  0.0000000E+00  1.0000000E+00
-13  1  5  5   0   0  3.0832262E+02  1.4584872E+02 -1.9501881E+02  3.9289569E+02  6.0315660E-06  0.0000000E+00  1.0000000E+00
 13  1  5  5   0   0  1.1378740E+02  9.9944746E+01 -1.4174512E+02  2.0743240E+02  8.5299224E-06  0.0000000E+00  1.0000000E+00
</event>
<event>
9 100 1.0000000E+00 1.0000000E+03 7.8125000E-03 0.0000000E+00
 21 -1  0  0 501 502  0.0000000E+00  0.0000000E+00  5.5597307E+02  5.5597307E+02  0.0000000E+00  0.0000000E+00  1.0000000E+00
 21 -1  0  0 502 501  0.0000000E+00  0.0000000E+00 -4.4965388E+02  4.4965388E+02  0.0000000E+00  0.0000000E+00  1.0000000E+00
 39  2  1  2   0   0 -6.8212103E-13  1.2505552E-12  1.0631920E+02  1.0056270E+03  9.9999090E+02  0.0000000E+00  1.0000000E+00
 23  2  3  3   0   0  2.0877535E+02 -3.6010739E+02  3.1601902E+02  5.3067619E+02  9.2112533E+01  0.0000000E+00  1.0000000E+00
 23  2  3  3   0   0 -2.0877535E+02  3.6010739E+02 -2.0969983E+02  4.7495076E+02  9.1322148E+01  0.0000000E+00  1.0000000E+00
-11  1  4  4   0   0  1.9552921E+02 -2.7702758E+02  2.2617264E+02  4.0759050E+02  6.6757202E-06  0.0000000E+00  1.0000000E+00
 11  1  4  4   0   0  1.3246139E+01 -8.3079803E+01  8.9846386E+01  1.2308569E+02  1.6627880E-05  0.0000000E+00  1.0000000E+00
-13  1  5  5   0   0 -6.3386659E+01  1.2220035E+02 -1.1838128E+02  1.8156244E+02  9.1473227E-06  0.0000000E+00  1.0000000E+00
 13  1  5  5   0   0 -1.4538869E+02  2.3790704E+02 -9.1318548E+01  2.9338832E+02  7.6293945E-06  0.0000000E+00  1.0000000E+00
</event>
<event>
9 100 1.0000000E+00 1.0000000E+03 7.8125000E-03 0.0000000E+00
 21 -1  0  0 501 502  0.0000000E+00  0.0000000E+00  3.9885575E+02  3.9885575E+02  0.0000000E+00  0.0000000E+00  1.0000000E+00
 21 -1  0  0 502 501  0.0000000E+00  0.0000000E+00 -6.2758161E+02  6.2758161E+02  0.0000000E+00  0.0000000E+00  1.0000000E+00
 39  2  1  2   0   0  1.2505552E-12 -8.5265128E-14 -2.2872587E+02  1.0264374E+03  1.0006289E+03  0.0000000E+00  1.0000000E+00
 23  2  3  3   0   0  4.6921807E+02 -3.1648041E+01 -2.5757622E+02  5.4393194E+02  9.1374209E+01  0.0000000E+00  1.0000000E+00
 23  2  3  3   0   0 -4.6921807E+02  3.1648041E+01  2.8850358E+01  4.8250542E+02  1.0398048E+02  0.0000000E+00  1.0000000E+00
-11  1  4  4   0   0  4.3924582E+02 -2.2951093E+01 -2.1092485E+02  4.8780419E+02  1.1680077E-06  0.0000000E+00  1.0000000E+00
 11  1  4  4   0   0  2.9972257E+01 -8.6969473E+00 -4.6651376E+01  5.6127747E+01  1.4273290E-05  0.0000000E+00  1.0000000E+00
-13  1  5  5   0   0 -4.5763438E+02  4.1496813E+01  1.1804178E+01  4.5966352E+02  2.6549169E-06  0.0000000E+00  1.0000000E+00
 13  1  5  5   0   0 -1.1583690E+01 -9.8487725E+00  1.7046180E+01  2.2841901E+01  1.2459509E-05  0.0000000E+00  1.0000000E+00
</event>
<event>
9 100 1.0000000E+00 1.0000000E+03 7.8125000E-03 0.0000000E+00
 21 -1  0  0 501 502  0.0000000E+00  0.0000000E+00  8.7238963E+02  8.7238963E+02  0.0000000E+00  0.0000000E+00  1.0000000E+00
 21 -1  0  0 502 501  0.0000000E+00  0.0000000E+00 -2.8841453E+02  2.8841453E+02  0.0000000E+00  0.0000000E+00  1.0000000E+00
 39  2  1  2   0   0  4.5474735E-13 -9.9475983E-14  5.8397511E+02  1.1608042E+03  1.0032145E+03  0.0000000E+00  1.0000000E+00
 23  2  3  3   0   0 -4.3504871E+02  1.0814788E+02  5.2971098E+02  7.0003930E+02  9.2184321E+01  0.0000000E+00  1.0000000E+00
 23  2  3  3   0   0  4.3504871E+02 -1.0814788E+02  5.4264132E+01  4.6076486E+02  9.1631408E+01  0.0000000E+00  1.0000000E+00
-11  1  4  4   0   0 -2.5276366E+02  8.0150276E+01  2.4630517E+02  3.6191127E+02  1.4273290E-05  0.0000000E+00  1.0000000E+00
 11  1  4  4   0   0 -1.8228506E+02  2.7997603E+01  2.8340581E+02  3.3812802E+02  1.0789593E-05  0.0000000E+00  1.0000000E+00
-13  1  5  5   0   0  2.1258757E+02 -8.7522877E+01 -3.7884709E+00  2.2993060E+02  1.0468721E-05  0.0000000E+00  1.0000000E+00
 13  1  5  5   0   0  2.2246114E+02 -2.0625002E+01  5.8052603E+01  2.3083426E+02  1.1388621E-05  0.0000000E+00  1.0000000E+00
</event>
<event>
9 100 1.0000000E+00 1.0000000E+03 7.8125000E-03 0.0000000E+00
 21 -1  0  0 501 502  0.0000000E+00  0.0000000E+00  2.1442581E+02  2.1442581E+02  0.0000000E+00  0.0000000E+00  1.0000000E+00
 21 -1  0  0 502 501  0.0000000E+00  0.0000000E+00 -1.1726648E+03  1.1726648E+03  0.0000000E+00  0.0000000E+00  1.0000000E+00
 39  2  1  2   0   0 -2.3874236E-12  3.0695446E-12 -9.5823903E+02  1.3870906E+03  1.0028950E+03  0.0000000E+00  1.0000000E+00
 23  2  3  3   0   0  1.9492459E+02 -2.4914316E+02  4.3990027E+01  3.3216981E+02  9.1289347E+01  0.0000000E+00  1.0000000E+00
 23  2  3  3   0   0 -1.9492459E+02  2.4914316E+02 -1.0022291E+03  1.0549208E+03  9.1252218E+01  0.0000000E+00  1.0000000E+00
-11  1  4  4   0   0  1.8295045E+02 -2.1592086E+02  6.5943699E+01  2.9058777E+02  4.1432732E-06  0.0000000E+00  1.0000000E+00
 11  1  4  4   0   0  1.1974148E+01 -3.3222308E+01 -2.1953672E+01  4.1582035E+01  1.4619550E-05  0.0000000E+00  1.0000000E+00
-13  1  5  5   0   0 -1.2266138E+02  8.3155154E+01 -4.5450187E+02  4.7805077E+02  2.0185481E-05  0.0000000E+00  1.0000000E+00
 13  1  5  5   0   0 -7.2263210E+01  1.6598801E+02 -5.4772719E+02  5.7687006E+02  1.8688124E-05  0.0000000E+00  1.0000000E+00
</event>
<event>
9 100 1.0000000E+00 1.0000000E+03 7.8125000E-03 0.0000000E+00
 21 -1  0  0 501 502  0.0000000E+00  0.0000000E+00  3.0741259E+02  3.0741259E+02  0.0000000E+00  0.0000000E+00  1.0000000E+00
 21 -1  0  0 502 501  0.0000000E+00  0.0000000E+00 -7.9651131E+02  7.9651131E+02  0.0000000E+00  0.0000000E+00  1.0000000E+00
 39  2  1  2   0   0  6.2527761E-13 -2.4158453E-13 -4.8909873E+02  1.1039239E+03  9.8966176E+02  0.0000000E+00  1.0000000E+00
 23  2  3  3   0   0  2.7646239E+02 -1.1858201E+02 -6.7082669E+02  7.4096207E+02  9.2321188E+01  0.0000000E+00  1.0000000E+00
 23  2  3  3   0   0 -2.7646239E+02  1.1858201E+02  1.8172797E+02  3.6296182E+02  9.0681237E+01  0.0000000E+00  1.0000000E+00
-11  1  4  4   0   0  2.5614721E+02 -8.5638112E+01 -6.2575313E+02  6.8155136E+02  3.7242173E-06  0.0000000E+00  1.0000000E+00
 11  1  4  4   0   0  2.0315177E+01 -3.2943899E+01 -4.5073564E+01  5.9410715E+01  2.0185481E-05  0.0000000E+00  1.0000000E+00
-13  1  5  5   0   0 -2.3669908E+02  1.3298530E+02  1.6333628E+02  3.1684427E+02  2.6334193E-06  0.0000000E+00  1.0000000E+00
 13  1  5  5   0   0 -3.9763302E+01 -1.4403293E+01  1.8391682E+01  4.6117556E+01  4.6720309E-06  0.0000000E+00  1.0000000E+00
</event>
<event>
9 100 1.0000000E+00 1.0000000E+03 7.8125000E-03 0.0000000E+00
 21 -1  0  0 501 502  0.0000000E+00  0.0000000E+00  3.5380394E+02  3.5380394E+02  0.0000000E+00  0.0000000E+00  1.0000000E+00
 21 -1  0  0 502 501  0.0000000E+00  0.0000000E+00 -7.2777287E+02  7.2777287E+02  0.0000000E+00  0.0000000E+00  1.0000000E+00
 39  2  1  2   0   0 -3.1974423E-14 -7.9580786E-13 -3.7396893E+02  1.0815768E+03  1.0148673E+03  0.0000000E+00  1.0000000E+00
 23  2  3  3   0   0  1.0876590E+01  2.4567596E+02 -6.4932120E+02  7.0056569E+02  9.3269950E+01  0.0000000E+00  1.0000000E+00
 23  2  3  3   0   0 -1.0876590E+01 -2.4567596E+02  2.7535227E+02  3.8101112E+02  9.4210538E+01  0.0000000E+00  1.0000000E+00
-11  1  4  4   0   0  3.3589044E+01  4.7400882E+01 -9.4351820E+01  1.1080313E+02  1.0789593E-05  0.0000000E+00  1.0000000E+00
 11  1  4  4   0   0 -2.2712453E+01  1.9827508E+02 -5.5496938E+02  5.8976256E+02  3.3036247E-06  0.0000000E+00  1.0000000E+00
-13  1  5  5   0   0  1.9710225E+01 -1.7930267E+02  2.3887571E+02  2.9933183E+02  3.0532476E-06  0.0000000E+00  1.0000000E+00
 13  1  5  5   0   0 -3.0586815E+01 -6.6373295E+01  3.6476557E+01  8.1679292E+01  8.9462581E-06  0.0000000E+00  1.0000000E+00
</event>
<event>
9 100 1.0000000E+00 1.0000000E+03 7.8125000E-03 0.0000000E+00
 21 -1  0  0 501 502  0.0000000E+00  0.0000000E+00  2.2782905E+02  2.2782905E+02  0.0000000E+00  0.0000000E+00  1.0000000E+00
 21 -1  0  0 502 501  0.0000000E+00  0.0000000E+00 -1.0919274E+03  1.0919274E+03  0.0000000E+00  0.0000000E+00  1.0000000E+00
 39  2  1  2   0   0  7.8159701E-13  3.8085091E-12 -8.6409832E+02  1.3197564E+03  9.9754253E+02  0.0000000E+00  1.0000000E+00
 23  2  3  3   0   0  9.3661135E+01  4.5201635E+02 -2.1538002E+02  5.1830417E+02  9.5705086E+01  0.0000000E+00  1.0000000E+00
 23  2  3  3   0   0 -9.3661135E+01 -4.5201635E+02 -6.4871830E+02  8.0145226E+02  9.1646567E+01  0.0000000E+00  1.0000000E+00
-11  1  4  4   0   0  1.1123384E+02  3.6519414E+02 -1.6069202E+02  4.1420002E+02  4.1569700E-06  0.0000000E+00  1.0000000E+00
 11  1  4  4   0   0 -1.7572708E+01  8.6822214E+01 -5.4687999E+01  1.0410415E+02  1.5843628E-05  0.0000000E+00  1.0000000E+00
-13  1  5  5   0   0 -9.0176455E+01 -4.5588110E+02 -6.4533144E+02  7.9524339E+02  7.7141399E-07  0.0000000E+00  1.0000000E+00
 13  1  5  5   0   0 -3.4846804E+00  3.8647478E+00 -3.3868601E+00  6.2088722E+00  1.3214499E-05  0.0000000E+00  1.0000000E+00
</event>
<event>
9 100 1.0000000E+00 1.0000000E+03 7.8125000E-03 0.0000000E+00
 21 -1  0  0 501 502  0.0000000E+00  0.0000000E+00  3.0424896E+02  3.0424896E+02  0.0000000E+00  0.0000000E+00  1.0000000E+00
 21 -1  0  0 502 501  0.0000000E+00  0.0000000E+00 -8.3296360E+02  8.3296360E+02  0.0000000E+00  0.0000000E+00  1.0000000E+00
 39  2  1  2   0   0  7.1054274E-15  2.8421709E-13 -5.2871464E+02  1.1372126E+03  1.0068333E+03  0.0000000E+00  1.0000000E+00
 23  2  3  3   0   0  1.8668172E+01  3.2049617E+02 -6.9167351E+02  7.6782290E+02  8.9852417E+01  0.0000000E+00  1.0000000E+00
 23  2  3  3   0   0 -1.8668172E+01 -3.2049617E+02  1.6295887E+02  3.6938967E+02  8.2624681E+01  0.0000000E+00  1.0000000E+00
-11  1  4  4   0   0 -3.5441714E+01  1.0137049E+02 -2.3793300E+02  2.6104445E+02  1.2063132E-05  0.0000000E+00  1.0000000E+00
 11  1  4  4   0   0  5.4109886E+01  2.1912567E+02 -4.5374051E+02  5.0677844E+02  4.6720309E-06  0.0000000E+00  1.0000000E+00
-13  1  5  5   0   0  1.1128467E+00  2.4089969E+00 -4.4115387E+00  5.1481421E+00  1.0789593E-05  0.0000000E+00  1.0000000E+00
 13  1  5  5   0   0 -1.9781019E+01 -3.2290516E+02  1.6737041E+02  3.6424152E+02  1.4757417E-06  0.0000000E+00  1.0000000E+00
</event>
<event>
9 100 1.0000000E+00 1.0000000E+03 7.8125000E-03 0.0000000E+00
 21 -1  0  0 501 502  0.0000000E+00  0.0000000E+00  4.7687771E+02  4.7687771E+02  0.0000000E+00  0.0000000E+00  1.0000000E+00
 21 -1  0  0 502 501  0.0000000E+00  0.0000000E+00 -5.2394132E+02  5.2394132E+02  0.0000000E+00  0.0000000E+00  1.0000000E+00
 39  2  1  2   0   0  0.0000000E+00  2.8421709E-14 -4.7063611E+01  1.0008190E+03  9.9971183E+02  0.0000000E+00  1.0000000E+00
 23  2  3  3   0   0  1.7340063E+02  2.1007893E+02 -4.3321559E+02  5.1939333E+02  8.8841096E+01  0.0000000E+00  1.0000000E+00
 23  2  3  3   0   0 -1.7340063E+02 -2.1007893E+02  3.8615198E+02  4.8142570E+02  9.1958742E+01  0.0000000E+00  1.0000000E+00
-11  1  4  4   0   0  5.8512646E+01  1.4010432E+02 -2.3855594E+02  2.8277533E+02  6.0315660E-06  0.0000000E+00  1.0000000E+00
 11  1  4  4   0   0  1.1488799E+02  6.9974609E+01 -1.9465966E+02  2.3661800E+02  5.3947966E-06  0.0000000E+00  1.0000000E+00
-13  1  5  5   0   0 -1.6894797E+02 -2.1913243E+02  3.7802009E+02  4.6846732E+02  1.4984375E-06  0.0000000E+00  1.0000000E+00
 13  1  5  5   0   0 -4.4526635E+00  9.0534943E+00  8.1318926E+00  1.2958381E+01  1.0789593E-05  0.0000000E+00  1.0000000E+00
</event>
<event>
9 100 1.0000000E+00 1.0000000E+03 7.8125000E-03 0.0000000E+00
 21 -1  0  0 501 502  0.0000000E+00  0.0000000E+00  2.9744740E+02  2.9744740E+02  0.0000000E+00  0.0000000E+00  1.0000000E+00
 21 -1  0  0 502 501  0.0000000E+00  0.0000000E+00 -8.3291144E+02  8.3291144E+02  0.0000000E+00  0.0000000E+00  1.0000000E+00
 39  2  1  2   0   0  2.2737368E-12 -7.9580786E-13 -5.3546403E+02  1.1303588E+03  9.9548449E+02  0.0000000E+00  1.0000000E+00
 23  2  3  3   0   0  1.4172475E+02 -4.9853750E+01 -7.9660778E+02  8.1549060E+02  8.8711084E+01  0.0000000E+00  1.0000000E+00
 23  2  3  3   0   0 -1.4172475E+02  4.9853750E+01  2.6114375E+02  3.1486824E+02  9.1513114E+01  0.0000000E+00  1.0000000E+00
-11  1  4  4   0   0  6.9318844E+01 -5.4871263E+01 -2.7510492E+02  2.8896137E+02  1.5258789E-05  0.0000000E+00  1.0000000E+00
 11  1  4  4   0   0  7.2405904E+01  5.0175129E+00 -5.2150286E+02  5.2652923E+02  6.6072495E-06  0.0000000E+00  1.0000000E+00
-13  1  5  5   0   0 -3.8014662E+01  4.0020464E+01  3.3622213E+01  6.4631303E+01  1.5258789E-05  0.0000000E+00  1.0000000E+00
 13  1  5  5   0   0 -1.0371009E+02  9.8332865E+00  2.2752154E+02  2.5023694E+02  5.3524838E-06  0.0000000E+00  1.0000000E+00
</event>
<event>
9 100 1.0000000E+00 1.0000000E+03 7.8125000E-03 0.0000000E+00
 21 -1  0  0 501 502  0.0000000E+00  0.0000000E+00  2.7453735E+02  2.7453735E+02  0.0000000E+00  0.0000000E+00  1.0000000E+00
 21 -1  0  0 502 501  0.0000000E+00  0.0000000E+00 -8.9476208E+02  8.9476208E+02  0.0000000E+00  0.0000000E+00  1.0000000E+00
 39  2  1  2   0   0  1.8474111E-13 -1.7053026E-13 -6.2022473E+02  1.1692994E+03  9.9125296E+02  0.0000000E+00  1.0000000E+00
 23  2  3  3   0   0 -9.1363009E+01  7.1394402E+01  2.4064828E+02  2.9652981E+02  1.2873995E+02  0.0000000E+00  1.0000000E+00
 23  2  3  3   0   0  9.1363009E+01 -7.1394402E+01 -8.6087300E+02  8.7276962E+02  8.4735597E+01  0.0000000E+00  1.0000000E+00
-11  1  4  4   0   0  8.9757525E-01  3.8660228E+01  2.1598557E+00  3.8730916E+01  1.2063132E-05  0.0000000E+00  1.0000000E+00
 11  1  4  4   0   0 -9.2260584E+01  3.2734174E+01  2.3848842E+02  2.5779889E+02  3.9438282E-06  0.0000000E+00  1.0000000E+00
-13  1  5  5   0   0  2.9035518E+01 -4.0042599E+01 -6.2071580E+02  6.2268336E+02  1.0092740E-05  0.0000000E+00  1.0000000E+00
 13  1  5  5   0   0  6.2327491E+01 -3.1351803E+01 -2.4015721E+02  2.5008626E+02  1.7059845E-05  0.0000000E+00  1.0000000E+00
</event>
<event>
9 100 1.0000000E+00 1.0000000E+03 7.8125000E-03 0.0000000E+00
 21 -1  0  0 501 502  0.0000000E+00  0.0000000E+00  2.9627516E+02  2.9627516E+02  0.0000000E+00  0.0000000E+00  1.0000000E+00
 21 -1  0  0 502 501  0.0000000E+00  0.0000000E+00 -8.3799006E+02  8.3799006E+02  0.0000000E+00  0.0000000E+00  1.0000000E+00
 39  2  1  2   0   0  1.9895197E-13 -4.6895821E-13 -5.4171491E+02  1.1342652E+03  9.9654530E+02  0.0000000E+00  1.0000000E+00
 23  2  3  3   0   0  3.2922113E+01 -7.9070363E+01  2.7856844E+02  3.0459960E+02  8.8569453E+01  0.0000000E+00  1.0000000E+00
 23  2  3  3   0   0 -3.2922113E+01  7.9070363E+01 -8.2028335E+02  8.2966562E+02  9.0245669E+01  0.0000000E+00  1.0000000E+00
-11  1  4  4   0   0  3.4263985E+01 -5.3182115E+01  6.9705264E+01  9.4133850E+01  7.1366451E-06  0.0000000E+00  1.0000000E+00
 11  1  4  4   0   0 -1.3418719E+00 -2.5888248E+01  2.0886318E+02  2.1046575E+02  3.8146973E-06  0.0000000E+00  1.0000000E+00
-13  1  5  5   0   0 -2.6058000E+01  8.2688818E+01 -8.1639661E+02  8.2098714E+02  2.1010109E-06  0.0000000E+00  1.0000000E+00
 13  1  5  5   0   0 -6.8641129E+00 -3.6184555E+00 -3.8867387E+00  8.6784793E+00  3.2368780E-05  0.0000000E+00  1.0000000E+00
</event>
<event>
9 100 1.0000000E+00 1.0000000E+03 7.8125000E-03 0.0000000E+00
 21 -1  0  0 501 502  0.0000000E+00  0.0000000E+00  1.0616573E+03  1.0616573E+03  0.0000000E+00  0.0000000E+00  1.0000000E+00
 21 -1  0  0 502 501  0.0000000E+00  0.0000000E+00 -5.3359186E+02  5.3359186E+02  0.0000000E+00  0.0000000E+00  1.0000000E+00
 39  2  1  2   0   0 -6.8212103E-13  2.9558578E-12  5.2806542E+02  1.5952491E+03  1.5053128E+03  0.0000000E+00  1.0000000E+00
 23  2  3  3   0   0  1.6076565E+02 -6.9092798E+02  1.4795816E+01  7.1492544E+02  8.7592240E+01  0.0000000E+00  1.0000000E+00
 23  2  3  3   0   0 -1.6076565E+02  6.9092798E+02  5.1326960E+02  8.8032369E+02  9.1088130E+01  0.0000000E+00  1.0000000E+00
-11  1  4  4   0   0  9.7879353E+01 -4.4643413E+02  5.1063329E+01  4.5988180E+02  9.8186780E-06  0.0000000E+00  1.0000000E+00
 11  1  4  4   0   0  6.2886297E+01 -2.4449385E+02 -3.6267514E+01  2.5504365E+02  1.4352719E-05  0.0000000E+00  1.0000000E+00
-13  1  5  5   0   0 -1.5905577E+02  6.7686871E+02  5.1605640E+02  8.6588925E+02  1.6353303E-06  0.0000000E+00  1.0000000E+00
 13  1  5  5   0   0 -1.7098804E+00  1.4059272E+01 -2.7867976E+00  1.4434440E+01  1.0789593E-05  0.0000000E+00  1.0000000E+00
</event>
<event>
9 100 1.0000000E+00 1.0000000E+03 7.8125000E-03 0.0000000E+00
 21 -1  0  0 501 502  0.0000000E+00  0.0000000E+00  4.4542339E+02  4.4542339E+02  0.0000000E+00  0.0000000E+00  1.0000000E+00
 21 -1  0  0 502 501  0.0000000E+00  0.0000000E+00 -5.8095396E+02  5.8095396E+02  0.0000000E+00  0.0000000E+00  1.0000000E+00
 39  2  1  2   0   0 -9.9475983E-14 -2.8421709E-13 -1.3553057E+02  1.0263774E+03  1.0173898E+03  0.0000000E+00  1.0000000E+00
 23  2  3  3   0   0 -6.0844696E+01 -1.7614996E+02  4.0088425E+02  4.5125265E+02  9.0497983E+01  0.0000000E+00  1.0000000E+00
 23  2  3  3   0   0  6.0844696E+01  1.7614996E+02 -5.3641482E+02  5.7512471E+02  9.1086135E+01  0.0000000E+00  1.0000000E+00
-11  1  4  4   0   0  7.2478583E+00 -3.5083600E+00 -1.4470592E+00  8.1813214E+00  7.6293945E-06  0.0000000E+00  1.0000000E+00
 11  1  4  4   0   0 -6.8092554E+01 -1.7264160E+02  4.0233131E+02  4.4307133E+02  1.0424425E-06  0.0000000E+00  1.0000000E+00
-13  1  5  5   0   0  6.8356871E+01  6.2894303E+01 -2.7026652E+02  2.8578374E+02  5.3947966E-06  0.0000000E+00  1.0000000E+00
 13  1  5  5   0   0 -7.5121748E+00  1.1325566E+02 -2.6614830E+02  2.8934097E+02  5.3947966E-06  0.0000000E+00  1.0000000E+00
</event>
<event>
9 100 1.0000000E+00 1.0000000E+03 7.8125000E-03 0.0000000E+00
 21 -1  0  0 501 502  0.0000000E+00  0.0000000E+00  7.1314831E+02  7.1314831E+02  0.0000000E+00  0.0000000E+00  1.0000000E+00
 21 -1  0  0 502 501  0.0000000E+00  0.0000000E+00 -3.4979317E+02  3.4979317E+02  0.0000000E+00  0.0000000E+00  1.0000000E+00
 39  2  1  2   0   0  2.8421709E-13 -5.1159077E-13  3.6335513E+02  1.0629415E+03  9.9890822E+02  0.0000000E+00  1.0000000E+00
 23  2  3  3   0   0 -6.7243912E+01  1.3205426E+02  6.7985985E+02  7.0172509E+02  9.0821851E+01  0.0000000E+00  1.0000000E+00
 23  2  3  3   0   0  6.7243912E+01 -1.3205426E+02 -3.1650472E+02  3.6121639E+02  9.1334398E+01  0.0000000E+00  1.0000000E+00
-11  1  4  4   0   0 -5.3235634E+01  1.0433673E+02  6.4274443E+02  6.5333038E+02  1.8467824E-06  0.0000000E+00  1.0000000E+00
 11  1  4  4   0   0 -1.4008278E+01  2.7717523E+01  3.7115428E+01  4.8394710E+01  0.0000000E+00  0.0000000E+00  1.0000000E+00
-13  1  5  5   0   0  3.8800066E+01 -2.9910115E+01 -1.8969568E+02  1.9591965E+02  8.3139399E-06  0.0000000E+00  1.0000000E+00
 13  1  5  5   0   0  2.8443845E+01 -1.0214414E+02 -1.2680904E+02  1.6529674E+02  8.0921949E-06  0.0000000E+00  1.0000000E+00
</event>
<event>
9 100 1.0000000E+00 1.0000000E+03 7.8125000E-03 0.0000000E+00
 21 -1  0  0 501 502  0.0000000E+00  0.0000000E+00  2.3462664E+03  2.3462664E+03  0.0000000E+00  0.0000000E+00  1.0000000E+00
 21 -1  0  0 502 501  0.0000000E+00  0.0000000E+00 -1.0885897E+02  1.0885897E+02  0.0000000E+00  0.0000000E+00  1.0000000E+00
 39  2  1  2   0   0 -5.1727511E-12  7.3896445E-12  2.2374074E+03  2.4551254E+03  1.0107663E+03  0.0000000E+00  1.0000000E+00
 23  2  3  3   0   0  2.7422812E+02 -3.8750830E+02  7.5918277E+02  8.9991760E+02  9.0163560E+01  0.0000000E+00  1.0000000E+00
 23  2  3  3   0   0 -2.7422812E+02  3.8750830E+02  1.4782247E+03  1.5552078E+03  9.0328937E+01  0.0000000E+00  1.0000000E+00
-11  1  4  4   0   0  1.6883425E+02 -1.6159606E+02  3.8087596E+02  4.4686104E+02  2.3515373E-05  0.0000000E+00  1.0000000E+00
 11  1  4  4   0   0  1.0539387E+02 -2.2591224E+02  3.7830681E+02  4.5305656E+02  1.8688124E-05  0.0000000E+00  1.0000000E+00
-13  1  5  5   0   0 -1.2042655E+02  1.3162467E+02  6.7887592E+02  7.0192601E+02  1.5258789E-05  0.0000000E+00  1.0000000E+00
 13  1  5  5   0   0 -1.5380158E+02  2.5588362E+02  7.9934874E+02  8.5328176E+02  1.0789593E-05  0.0000000E+00  1.0000000E+00
</event>
<event>
9 100 1.0000000E+00 1.0000000E+03 7.8125000E-03 0.0000000E+00
 21 -1  0  0 501 502  0.0000000E+00  0.0000000E+00  9.4280719E+02  9.4280719E+02  0.0000000E+00  0.0000000E+00  1.0000000E+00
 21 -1  0  0 502 501  0.0000000E+00  0.0000000E+00 -2.5819618E+02  2.5819618E+02  0.0000000E+00  0.0000000E+00  1.0000000E+00
 39  2  1  2   0   0 -1.8189894E-12  1.7621460E-12  6.8461101E+02  1.2010034E+03  9.8677092E+02  0.0000000E+00  1.0000000E+00
 23  2  3  3   0   0  3.0500858E+02 -2.9568573E+02  5.8219004E+01  4.3874359E+02  9.2984938E+01  0.0000000E+00  1.0000000E+00
 23  2  3  3   0   0 -3.0500858E+02  2.9568573E+02  6.2639201E+02  7.6225978E+02  9.0624186E+01  0.0000000E+00  1.0000000E+00
-11  1  4  4   0   0  6.0295766E+01 -5.6551315E+01 -2.5474409E+01  8.6501885E+01  1.0533677E-05  0.0000000E+00  1.0000000E+00
 11  1  4  4   0   0  2.4471282E+02 -2.3913441E+02  8.3693413E+01  3.5224170E+02  1.6518124E-06  0.0000000E+00  1.0000000E+00
-13  1  5  5   0   0 -2.3224662E+02  2.1113125E+02  3.8799021E+02  4.9905040E+02  7.1366451E-06  0.0000000E+00  1.0000000E+00
 13  1  5  5   0   0 -7.2761966E+01  8.4554479E+01  2.3840180E+02  2.6320938E+02  5.3947966E-06  0.0000000E+00  1.0000000E+00
</event>
<event>
9 100 1.0000000E+00 1.0000000E+03 7.8125000E-03 0.0000000E+00
 21 -1  0  0 501 502  0.0000000E+00  0.0000000E+00  3.0590378E+02  3.0590378E+02  0.0000000E+00  0.0000000E+00  1.0000000E+00
 21 -1  0  0 502 501  0.0000000E+00  0.0000000E+00 -8.1465584E+02  8.1465584E+02  0.0000000E+00  0.0000000E+00  1.0000000E+00
 39  2  1  2   0   0  7.9580786E-13  4.2632564E-13 -5.0875206E+02  1.1205596E+03  9.9841133E+02  0.0000000E+00  1.0000000E+00
 23  2  3  3   0   0 -3.7696787E+02 -2.0164848E+02 -5.2782794E+02  6.8454240E+02  8.5024007E+01  0.0000000E+00  1.0000000E+00
 23  2  3  3   0   0  3.7696787E+02  2.0164848E+02  1.9075882E+01  4.3601721E+02  8.3547811E+01  0.0000000E+00  1.0000000E+00
-11  1  4  4   0   0 -2.3288804E+02 -1.4072582E+02 -3.9311719E+02  4.7810221E+02  8.7405695E-06  0.0000000E+00  1.0000000E+00
 11  1  4  4   0   0 -1.4407983E+02 -6.0922657E+01 -1.3471075E+02  2.0644019E+02  1.3214499E-05  0.0000000E+00  1.0000000E+00
-13  1  5  5   0   0  3.8029740E+02  2.0351856E+02  1.6987698E+01  4.3166480E+02  1.5537274E-06  0.0000000E+00  1.0000000E+00
 13  1  5  5   0   0 -3.3295301E+00 -1.8700841E+00  2.0881836E+00  4.3524127E+00  1.3102180E-05  0.0000000E+00  1.0000000E+00
</event>
<event>
9 100 1.0000000E+00 1.0000000E+03 7.8125000E-03 0.0000000E+00
 21 -1  0  0 501 502  0.0000000E+00  0.0000000E+00  2.1244992E+02  2.1244992E+02  0.0000000E+00  0.0000000E+00  1.0000000E+00
 21 -1  0  0 502 501  0.0000000E+00  0.0000000E+00 -1.2438339E+03  1.2438339E+03  0.0000000E+00  0.0000000E+00  1.0000000E+00
 39  2  1  2   0   0  3.9790393E-13 -1.3642421E-12 -1.0313840E+03  1.4562838E+03  1.0281098E+03  0.0000000E+00  1.0000000E+00
 23  2  3  3   0   0  1.3949462E+02 -4.6250820E+02 -7.4581570E+02  8.9329969E+02  9.1491473E+01  0.0000000E+00  1.0000000E+00
 23  2  3  3   0   0 -1.3949462E+02  4.6250820E+02 -2.8556828E+02  5.6298414E+02  4.5047877E+01  0.0000000E+00  1.0000000E+00
-11  1  4  4   0   0  5.6318328E+01 -1.3161317E+02 -2.9527239E+02  3.2814564E+02  1.6184390E-05  0.0000000E+00  1.0000000E+00
 11  1  4  4   0   0  8.3176292E+01 -3.3089504E+02 -4.5054331E+02  5.6515405E+02  9.3440618E-06  0.0000000E+00  1.0000000E+00
-13  1  5  5   0   0 -1.0939089E+02  3.5370399E+02 -2.4014605E+02  4.4129696E+02  1.5078915E-06  0.0000000E+00  1.0000000E+00
 13  1  5  5   0   0 -3.0103726E+01  1.0880421E+02 -4.5422235E+01  1.2168718E+02  1.1444092E-05  0.0000000E+00  1.0000000E+00
</event>
<event>
9 100 1.0000000E+00 1.0000000E+03 7.8125000E-03 0.0000000E+00
 21 -1  0  0 501 502  0.0000000E+00  0.0000000E+00  6.6289837E+02  6.6289837E+02  0.0000000E+00  0.0000000E+00  1.0000000E+00
 21 -1  0  0 502 501  0.0000000E+00  0.0000000E+00 -3.7533370E+02  3.7533370E+02  0.0000000E+00  0.0000000E+00  1.0000000E+00
 39  2  1  2   0   0 -7.3896445E-13 -2.8421709E-13  2.8756466E+02  1.0382321E+03  9.9761335E+02  0.0000000E+00  1.0000000E+00
 23  2  3  3   0   0 -2.6673723E+02 -1.1006375E+02 -2.6877842E+02  4.0503628E+02  9.2464937E+01  0.0000000E+00  1.0000000E+00
 23  2  3  3   0   0  2.6673723E+02  1.1006375E+02  5.5634308E+02  6.3319579E+02  9.0313376E+01  0.0000000E+00  1.0000000E+00
-11  1  4  4   0   0 -2.3239773E+02 -6.2268900E+01 -1.8928755E+02  3.0613052E+02  6.8105969E-06  0.0000000E+00  1.0000000E+00
 11  1  4  4   0   0 -3.4339502E+01 -4.7794854E+01 -7.9490869E+01  9.8905751E+01  1.6184390E-05  0.0000000E+00  1.0000000E+00
-13  1  5  5   0   0  1.6869650E+02  1.1414005E+02  3.5724630E+02  4.1123154E+02  9.3440618E-06  0.0000000E+00  1.0000000E+00
 13  1  5  5   0   0  9.8040728E+01 -4.0762943E+00  1.9909679E+02  2.2196426E+02  1.9073486E-05  0.0000000E+00  1.0000000E+00
</event>
<event>
9 100 1.0000000E+00 1.0000000E+03 7.8125000E-03 0.0000000E+00
 21 -1  0  0 501 502  0.0000000E+00  0.0000000E+00  3.8930543E+02  3.8930543E+02  0.0000000E+00  0.0000000E+00  1.0000000E+00
 21 -1  0  0 502 501  0.0000000E+00  0.0000000E+00 -6.3421162E+02  6.3421162E+02  0.0000000E+00  0.0000000E+00  1.0000000E+00
 39  2  1  2   0   0 -1.7053026E-13 -1.1368684E-12 -2.4490619E+02  1.0235170E+03  9.9378474E+02  0.0000000E+00  1.0000000E+00
 23  2  3  3   0   0 -3.7269419E+01 -2.4255239E+02  3.1312889E+02  4.0719173E+02  8.6802803E+01  0.0000000E+00  1.0000000E+00
 23  2  3  3   0   0  3.7269419E+01  2.4255239E+02 -5.5803508E+02  6.1632532E+02  9.0736293E+01  0.0000000E+00  1.0000000E+00
-11  1  4  4   0   0  1.4659801E+00 -5.6741059E+01  2.4673855E+01  6.1891001E+01  1.0092740E-05  0.0000000E+00  1.0000000E+00
 11  1  4  4   0   0 -3.8735399E+01 -1.8581133E+02  2.8845504E+02  3.4530072E+02  1.9947529E-06  0.0000000E+00  1.0000000E+00
-13  1  5  5   0   0  2.1346060E+00  2.1774086E+02 -4.8346311E+02  5.3023788E+02  5.4784419E-06  0.0000000E+00  1.0000000E+00
 13  1  5  5   0   0  3.5134813E+01  2.4811538E+01 -7.4571977E+01  8.6087440E+01  1.7059845E-05  0.0000000E+00  1.0000000E+00
</event>
<event>
9 100 1.0000000E+00 1.0000000E+03 7.8125000E-03 0.0000000E+00
 21 -1  0  0 501 502  0.0000000E+00  0.0000000E+00  3.1835594E+02  3.1835594E+02  0.0000000E+00  0.0000000E+00  1.0000000E+00
 21 -1  0  0 502 501  0.0000000E+00  0.0000000E+00 -7.6294679E+02  7.6294679E+02  0.0000000E+00  0.0000000E+00  1.0000000E+00
 39  2  1  2   0   0  5.6843419E-14  1.1368684E-13 -4.4459085E+02  1.0813027E+03  9.8567468E+02  0.0000000E+00  1.0000000E+00
 23  2  3  3   0   0 -1.7120674E+02 -4.1663526E+02 -2.7184612E+01  4.6044545E+02  9.1511337E+01  0.0000000E+00  1.0000000E+00
 23  2  3  3   0   0  1.7120674E+02  4.1663526E+02 -4.1740623E+02  6.2085727E+02  9.1318680E+01  0.0000000E+00  1.0000000E+00
-11  1  4  4   0   0 -6.4000235E+01 -9.3674243E+01  2.5015999E+01  1.1617527E+02  1.0555240E-05  0.0000000E+00  1.0000000E+00
 11  1  4  4   0   0 -1.0720650E+02 -3.2296102E+02 -5.2200611E+01  3.4427018E+02  3.1268304E-06  0.0000000E+00  1.0000000E+00
-13  1  5  5   0   0  3.5662245E+01  1.9877080E+02 -1.6291161E+02  2.5946449E+02  1.0446979E-05  0.0000000E+00  1.0000000E+00
 13  1  5  5   0   0  1.3554449E+02  2.1786446E+02 -2.5449462E+02  3.6139278E+02  1.0092740E-05  0.0000000E+00  1.0000000E+00
</event>
<event>
9 100 1.0000000E+00 1.0000000E+03 7.8125000E-03 0.0000000E+00
 21 -1  0  0 501 502  0.0000000E+00  0.0000000E+00  4.3826894E+02  4.3826894E+02  0.0000000E+00  0.0000000E+00  1.0000000E+00
 21 -1  0  0 502 501  0.0000000E+00  0.0000000E+00 -5.7542795E+02  5.7542795E+02  0.0000000E+00  0.0000000E+00  1.0000000E+00
 39  2  1  2   0   0 -8.2422957E-13 -2.8421709E-13 -1.3715901E+02  1.0136969E+03  1.0043748E+03  0.0000000E+00  1.0000000E+00
 23  2  3  3   0   0 -2.1205116E+02 -6.9857650E+01  3.7577344E+02  4.4644273E+02  9.0882581E+01  0.0000000E+00  1.0000000E+00
 23  2  3  3   0   0  2.1205116E+02  6.9857650E+01 -5.1293245E+02  5.6725416E+02  9.3977640E+01  0.0000000E+00  1.0000000E+00
-11  1  4  4   0   0 -5.9794496E+00  1.8968131E-01  7.4681905E+01  7.4921137E+01  1.4774259E-05  0.0000000E+00  1.0000000E+00
 11  1  4  4   0   0 -2.0607171E+02 -7.0047332E+01  3.0109154E+02  3.7152159E+02  4.5736613E-06  0.0000000E+00  1.0000000E+00
-13  1  5  5   0   0  1.6551200E+02  5.2155147E+01 -2.8281415E+02  3.3181053E+02  6.0315660E-06  0.0000000E+00  1.0000000E+00
 13  1  5  5   0   0  4.6539160E+01  1.7702503E+01 -2.3011830E+02  2.3544364E+02  9.3440618E-06  0.0000000E+00  1.0000000E+00
</event>
<event>
9 100 1.0000000E+00 1.0000000E+03 7.8125000E-03 0.0000000E+00
 21 -1  0  0 501 502  0.0000000E+00  0.0000000E+00  3.9448522E+02  3.9448522E+02  0.0000000E+00  0.0000000E+00  1.0000000E+00
 21 -1  0  0 502 501  0.0000000E+00  0.0000000E+00 -6.7287156E+02  6.7287156E+02  0.0000000E+00  0.0000000E+00  1.0000000E+00
 39  2  1  2   0   0  1.7053026E-13 -5.6843419E-13 -2.7838634E+02  1.0673568E+03  1.0304133E+03  0.0000000E+00  1.0000000E+00
 23  2  3  3   0   0 -1.4194469E+02  4.7023959E+02 -8.5020403E+00  4.9952495E+02  9.0439600E+01  0.0000000E+00  1.0000000E+00
 23  2  3  3   0   0  1.4194469E+02 -4.7023959E+02 -2.6988430E+02  5.6783183E+02  9.1224393E+01  0.0000000E+00  1.0000000E+00
-11  1  4  4   0   0 -1.6424816E+01  2.0595224E+02  4.5160894E+00  2.0665550E+02  1.0089924E-05  0.0000000E+00  1.0000000E+00
 11  1  4  4   0   0 -1.2551988E+02  2.6428735E+02 -1.3018130E+01  2.9286945E+02  7.8506354E-06  0.0000000E+00  1.0000000E+00
-13  1  5  5   0   0  2.1750728E+01 -2.2112634E+02 -1.3631939E+02  2.6067783E+02  6.3259598E-06  0.0000000E+00  1.0000000E+00
 13  1  5  5   0   0  1.2019397E+02 -2.4911325E+02 -1.3356491E+02  3.0715401E+02  6.6072495E-06  0.0000000E+00  1.0000000E+00
</event>
<event>
9 100 1.0000000E+00 1.0000000E+03 7.8125000E-03 0.0000000E+00
 21 -1  0  0 501 502  0.0000000E+00  0.0000000E+00  8.3643303E+02  8.3643303E+02  0.0000000E+00  0.0000000E+00  1.0000000E+00
 21 -1  0  0 502 501  0.0000000E+00  0.0000000E+00 -3.0217385E+02  3.0217385E+02  0.0000000E+00  0.0000000E+00  1.0000000E+00
 39  2  1  2   0   0 -1.0516032E-12  2.3874236E-12  5.3425918E+02  1.1386069E+03  1.0054814E+03  0.0000000E+00  1.0000000E+00
 23  2  3  3   0   0 -1.5492736E+02  3.5379973E+02  6.1590682E+02  7.3350018E+02  9.7491409E+01  0.0000000E+00  1.0000000E+00
 23  2  3  3   0   0  1.5492736E+02 -3.5379973E+02 -8.1647634E+01  4.0510670E+02  9.0930554E+01  0.0000000E+00  1.0000000E+00
-11  1  4  4   0   0 -1.8068797E+01  1.5836278E+02  2.3136548E+02  2.8095416E+02  9.3440618E-06  0.0000000E+00  1.0000000E+00
 11  1  4  4   0   0 -1.3685856E+02  1.9543695E+02  3.8454133E+02  4.5254602E+02  8.9462581E-06  0.0000000E+00  1.0000000E+00
-13  1  5  5   0   0  1.3608686E+02 -3.4106756E+02 -9.4238638E+01  3.7911428E+02  9.3865488E-07  0.0000000E+00  1.0000000E+00
 13  1  5  5   0   0  1.8840496E+01 -1.2732164E+01  1.2591004E+01  2.5992416E+01  0.0000000E+00  0.0000000E+00  1.0000000E+00
</event>
<event>
9 100 1.0000000E+00 1.0000000E+03 7.8125000E-03 0.0000000E+00
 21 -1  0  0 501 502  0.0000000E+00  0.0000000E+00  6.3242603E+02  6.3242603E+02  0.0000000E+00  0.0000000E+00  1.0000000E+00
 21 -1  0  0 502 501  0.0000000E+00  0.0000000E+00 -4.3017485E+02  4.3017485E+02  0.0000000E+00  0.0000000E+00  1.0000000E+00
 39  2  1  2   0   0  1.7053026E-12 -6.3948846E-14  2.0225118E+02  1.0626009E+03  1.0431755E+03  0.0000000E+00  1.0000000E+00
 23  2  3  3   0   0  3.6753051E+02 -1.1606060E+01  4.6637925E+02  6.0087764E+02  9.1274102E+01  0.0000000E+00  1.0000000E+00
 23  2  3  3   0   0 -3.6753051E+02  1.1606060E+01 -2.6412807E+02  4.6172323E+02  9.0616394E+01  0.0000000E+00  1.0000000E+00
-11  1  4  4   0   0  2.6678750E+02 -4.5900483E+01  3.5979295E+02  4.5025925E+02  3.0157830E-06  0.0000000E+00  1.0000000E+00
 11  1  4  4   0   0  1.0074301E+02  3.4294423E+01  1.0658630E+02  1.5061840E+02  1.3214499E-05  0.0000000E+00  1.0000000E+00
-13  1  5  5   0   0 -2.1319932E+02 -2.5274518E+01 -1.8954873E+02  2.8639391E+02  9.3440618E-06  0.0000000E+00  1.0000000E+00
 13  1  5  5   0   0 -1.5433119E+02  3.6880578E+01 -7.4579338E+01  1.7532932E+02  1.3214499E-05  0.0000000E+00  1.0000000E+00
</event>
<event>
9 100 1.0000000E+00 1.0000000E+03 7.8125000E-03 0.0000000E+00
 21 -1  0  0 501 502  0.0000000E+00  0.0000000E+00  1.7107040E+02  1.7107040E+02  0.0000000E+00  0.0000000E+00  1.0000000E+00
 21 -1  0  0 502 501  0.0000000E+00  0.0000000E+00 -1.4622939E+03  1.4622939E+03  0.0000000E+00  0.0000000E+00  1.0000000E+00
 39  2  1  2   0   0  1.4637180E-12 -9.6065378E-12 -1.2912235E+03  1.6333643E+03  1.0003104E+03  0.0000000E+00  1.0000000E+00
 23  2  3  3   0   0 -6.7778427E+01  4.5195462E+02 -3.5351727E+02  5.8622241E+02  9.9122959E+01  0.0000000E+00  1.0000000E+00
 23  2  3  3   0   0  6.7778427E+01 -4.5195462E+02 -9.3770625E+02  1.0471419E+03  9.1412698E+01  0.0000000E+00  1.0000000E+00
-11  1  4  4   0   0 -8.0091255E+00  3.3950833E+02 -2.4271100E+02  4.1741908E+02  7.8641999E-06  0.0000000E+00  1.0000000E+00
 11  1  4  4   0   0 -5.9769301E+01  1.1244629E+02 -1.1080627E+02  1.6880333E+02  1.9637356E-05  0.0000000E+00  1.0000000E+00
-13  1  5  5   0   0  5.3910932E+01 -1.3528530E+02 -2.3856835E+02  2.7950556E+02  2.7508173E-05  0.0000000E+00  1.0000000E+00
 13  1  5  5   0   0  1.3867495E+01 -3.1666932E+02 -6.9913790E+02  7.6763635E+02  1.2063132E-05  0.0000000E+00  1.0000000E+00
</event>
<event>
9 100 1.0000000E+00 1.0000000E+03 7.8125000E-03 0.0000000E+00
 21 -1  0  0 501 502  0.0000000E+00  0.0000000E+00  3.5280400E+02  3.5280400E+02  0.0000000E+00  0.0000000E+00  1.0000000E+00
 21 -1  0  0 502 501  0.0000000E+00  0.0000000E+00 -7.1519337E+02  7.1519337E+02  0.0000000E+00  0.0000000E+00  1.0000000E+00
 39  2  1  2   0   0 -7.8159701E-14 -1.9895197E-13 -3.6238938E+02  1.0679974E+03  1.0046354E+03  0.0000000E+00  1.0000000E+00
 23  2  3  3   0   0  5.3520062E+01  1.8919298E+02  3.0037800E+02  3.7064976E+02  9.2173328E+01  0.0000000E+00  1.0000000E+00
 23  2  3  3   0   0 -5.3520062E+01 -1.8919298E+02 -6.6276737E+02  6.9734761E+02  9.1513488E+01  0.0000000E+00  1.0000000E+00
-11  1  4  4   0   0  2.9660738E+01  4.0094893E+00  3.3258501E+01  4.4743304E+01  7.6293945E-06  0.0000000E+00  1.0000000E+00
 11  1  4  4   0   0  2.3859324E+01  1.8518349E+02  2.6711950E+02  3.2590645E+02  1.0662403E-06  0.0000000E+00  1.0000000E+00
-13  1  5  5   0   0  6.7604866E+00 -1.4435657E+01 -9.7894626E+00  1.8706308E+01  1.0789593E-05  0.0000000E+00  1.0000000E+00
 13  1  5  5   0   0 -6.0280549E+01 -1.7475732E+02 -6.5297791E+02  6.7864130E+02  1.4936881E-06  0.0000000E+00  1.0000000E+00
</event>
<event>
9 100 1.0000000E+00 1.0000000E+03 7.8125000E-03 0.0000000E+00
 21 -1  0  0 501 502  0.0000000E+00  0.0000000E+00  5.8341097E+02  5.8341097E+02  0.0000000E+00  0.0000000E+00  1.0000000E+00
 21 -1  0  0 502 501  0.0000000E+00  0.0000000E+00 -4.5272708E+02  4.5272708E+02  0.0000000E+00  0.0000000E+00  1.0000000E+00
 39  2  1  2   0   0 -1.7053026E-12  6.8212103E-13  1.3068389E+02  1.0361381E+03  1.0278637E+03  0.0000000E+00  1.0000000E+00
 23  2  3  3   0   0  4.1511219E+02 -1.6060188E+02  3.0761053E+02  5.4895644E+02  9.2832342E+01  0.0000000E+00  1.0000000E+00
 23  2  3  3   0   0 -4.1511219E+02  1.6060188E+02 -1.7692664E+02  4.8718161E+02  8.9060573E+01  0.0000000E+00  1.0000000E+00
-11  1  4  4   0   0  3.8092752E+02 -1.6231515E+02  2.5531051E+02  4.8645189E+02  4.3179441E-06  0.0000000E+00  1.0000000E+00
 11  1  4  4   0   0  3.4184670E+01  1.7132693E+00  5.2300027E+01  6.2504558E+01  2.1239335E-05  0.0000000E+00  1.0000000E+00
-13  1  5  5   0   0 -2.2632322E+01  1.1008370E+01  1.0460487E+01  2.7254871E+01  1.5495374E-05  0.0000000E+00  1.0000000E+00
 13  1  5  5   0   0 -3.9247987E+02  1.4959351E+02 -1.8738713E+02  4.5992673E+02  2.6198937E-06  0.0000000E+00  1.0000000E+00
</event>
<event>
9 100 1.0000000E+00 1.0000000E+03 7.8125000E-03 0.0000000E+00
 21 -1  0  0 501 502  0.0000000E+00  0.0000000E+00  7.3696911E+02  7.3696911E+02  0.0000000E+00  0.0000000E+00  1.0000000E+00
 21 -1  0  0 502 501  0.0000000E+00  0.0000000E+00 -3.5037433E+02  3.5037433E+02  0.0000000E+00  0.0000000E+00  1.0000000E+00
 39  2  1  2   0   0  5.1159077E-13 -2.8421709E-13  3.8659478E+02  1.0873434E+03  1.0162973E+03  0.0000000E+00  1.0000000E+00
 23  2  3  3   0   0 -4.2354724E+02  2.1615398E+02  2.8953751E+01  4.8536733E+02  9.2888708E+01  0.0000000E+00  1.0000000E+00
 23  2  3  3   0   0  4.2354724E+02 -2.1615398E+02  3.5764103E+02  6.0197611E+02  9.1396527E+01  0.0000000E+00  1.0000000E+00
-11  1  4  4   0   0 -1.9639975E+02  1.5233954E+02  1.3697480E+01  2.4893336E+02  6.4593397E-06  0.0000000E+00  1.0000000E+00
 11  1  4  4   0   0 -2.2714749E+02  6.3814441E+01  1.5256271E+01  2.3643397E+02  4.4635881E-06  0.0000000E+00  1.0000000E+00
-13  1  5  5   0   0  2.5797189E+02 -9.7747373E+01  1.6349125E+02  3.2067653E+02  1.1757687E-05  0.0000000E+00  1.0000000E+00
 13  1  5  5   0   0  1.6557535E+02 -1.1840661E+02  1.9414978E+02  2.8129959E+02  5.3947966E-06  0.0000000E+00  1.0000000E+00
</event>
<event>
9 100 1.0000000E+00 1.0000000E+03 7.8125000E-03 0.0000000E+00
 21 -1  0  0 501 502  0.0000000E+00  0.0000000E+00  4.9510918E+02  4.9510918E+02  0.0000000E+00  0.0000000E+00  1.0000000E+00
 21 -1  0  0 502 501  0.0000000E+00  0.0000000E+00 -5.1829920E+02  5.1829920E+02  0.0000000E+00  0.0000000E+00  1.0000000E+00
 39  2  1  2   0   0 -2.8421709E-13 -1.1368684E-13 -2.3190021E+01  1.0134084E+03  1.0131430E+03  0.0000000E+00  1.0000000E+00
 23  2  3  3   0   0  3.0032651E+02  1.1472478E+02 -3.9246439E+02  5.1574234E+02  9.2758180E+01  0.0000000E+00  1.0000000E+00
 23  2  3  3   0   0 -3.0032651E+02 -1.1472478E+02  3.6927436E+02  4.9766605E+02  8.9163663E+01  0.0000000E+00  1.0000000E+00
-11  1  4  4   0   0  1.4875608E+02  5.7932511E+01 -1.2351362E+02  2.0184192E+02  7.6293945E-06  0.0000000E+00  1.0000000E+00
 11  1  4  4   0   0  1.5157042E+02  5.6792265E+01 -2.6895077E+02  3.1390041E+02  5.2234894E-06  0.0000000E+00  1.0000000E+00
-13  1  5  5   0   0 -1.7568150E+02 -6.0795453E+01  2.7652451E+02  3.3320546E+02  7.5092391E-06  0.0000000E+00  1.0000000E+00
 13  1  5  5   0   0 -1.2464501E+02 -5.3929322E+01  9.2749854E+01  1.6446059E+02  1.1444092E-05  0.0000000E+00  1.0000000E+00
</event>
<event>
9 100 1.0000000E+00 1.0000000E+03 7.8125000E-03 0.0000000E+00
 21 -1  0  0 501 502  0.0000000E+00  0.0000000E+00  2.9008351E+02  2.9008351E+02  0.0000000E+00  0.0000000E+00  1.0000000E+00
 21 -1  0  0 502 501  0.0000000E+00  0.0000000E+00 -8.4696953E+02  8.4696953E+02  0.0000000E+00  0.0000000E+00  1.0000000E+00
 39  2  1  2   0   0  1.3145041E-13  2.5011104E-12 -5.5688603E+02  1.1370530E+03  9.9134634E+02  0.0000000E+00  1.0000000E+00
 23  2  3  3   0   0 -2.1891877E+01 -4.2092337E+02  2.1772987E+00  4.3085901E+02  8.9325281E+01  0.0000000E+00  1.0000000E+00
 23  2  3  3   0   0  2.1891877E+01  4.2092337E+02 -5.5906333E+02  7.0619403E+02  9.2208857E+01  0.0000000E+00  1.0000000E+00
-11  1  4  4   0   0  2.7405900E+00 -2.8019312E+02 -3.7192468E+01  2.8266406E+02  5.6218272E-06  0.0000000E+00  1.0000000E+00
 11  1  4  4   0   0 -2.4632467E+01 -1.4073025E+02  3.9369767E+01  1.4819494E+02  1.1552850E-05  0.0000000E+00  1.0000000E+00
-13  1  5  5   0   0  4.0905964E+01  4.0304614E+02 -5.3063769E+02  6.6760455E+02  1.7520116E-06  0.0000000E+00  1.0000000E+00
 13  1  5  5   0   0 -1.9014087E+01  1.7877233E+01 -2.8425641E+01  3.8589481E+01  1.8688124E-05  0.0000000E+00  1.0000000E+00
</event>
<event>
9 100 1.0000000E+00 1.0000000E+03 7.8125000E-03 0.0000000E+00
 21 -1  0  0 501 502  0.0000000E+00  0.0000000E+00  1.0965072E+03  1.0965072E+03  0.0000000E+00  0.0000000E+00  1.0000000E+00
 21 -1  0  0 502 501  0.0000000E+00  0.0000000E+00 -2.2845946E+02  2.2845946E+02  0.0000000E+00  0.0000000E+00  1.0000000E+00
 39  2  1  2   0   0  2.4442670E-12 -1.4210855E-12  8.6804772E+02  1.3249666E+03  1.0010144E+03  0.0000000E+00  1.0000000E+00
 23  2  3  3   0   0 -3.6592151E+02  2.0609878E+02  9.4437047E+01  4.4010876E+02  9.1662976E+01  0.0000000E+00  1.0000000E+00
 23  2  3  3   0   0  3.6592151E+02 -2.0609878E+02  7.7361067E+02  8.8485789E+02  9.0137446E+01  0.0000000E+00  1.0000000E+00
-11  1  4  4   0   0 -2.1220282E+02  7.0047519E+01  6.5024863E+01  2.3273359E+02  5.4367801E-06  0.0000000E+00  1.0000000E+00
 11  1  4  4   0   0 -1.5371869E+02  1.3605126E+02  2.9412184E+01  2.0737516E+02  7.9218138E-06  0.0000000E+00  1.0000000E+00
-13  1  5  5   0   0  4.4370607E+00  3.1275208E+00  4.2575653E+01  4.2920335E+01  1.5258789E-05  0.0000000E+00  1.0000000E+00
 13  1  5  5   0   0  3.6148445E+02 -2.0922630E+02  7.3103502E+02  8.4193756E+02  9.5367432E-07  0.0000000E+00  1.0000000E+00
</event>
<event>
9 100 1.0000000E+00 1.0000000E+03 7.8125000E-03 0.0000000E+00
 21 -1  0  0 501 502  0.0000000E+00  0.0000000E+00  4.4993562E+02  4.4993562E+02  0.0000000E+00  0.0000000E+00  1.0000000E+00
 21 -1  0  0 502 501  0.0000000E+00  0.0000000E+00 -5.3876782E+02  5.3876782E+02  0.0000000E+00  0.0000000E+00  1.0000000E+00
 39  2  1  2   0   0 -3.6948222E-13 -2.1032065E-12 -8.8832202E+01  9.8870344E+02  9.8470469E+02  0.0000000E+00  1.0000000E+00
 23  2  3  3   0   0 -7.1194686E+01 -4.2262814E+02  1.8137242E+02  4.7383704E+02  8.9119931E+01  0.0000000E+00  1.0000000E+00
 23  2  3  3   0   0  7.1194686E+01  4.2262814E+02 -2.7020462E+02  5.1486640E+02  9.1616824E+01  0.0000000E+00  1.0000000E+00
-11  1  4  4   0   0 -3.1186254E+01 -3.1723841E+02  1.6797024E+02  3.6031485E+02  5.7245289E-06  0.0000000E+00  1.0000000E+00
 11  1  4  4   0   0 -4.0008432E+01 -1.0538973E+02  1.3402181E+01  1.1352219E+02  1.8294645E-05  0.0000000E+00  1.0000000E+00
-13  1  5  5   0   0  3.0769572E+01  3.2090271E+01 -1.6584676E+01  4.7451065E+01  7.6293945E-06  0.0000000E+00  1.0000000E+00
 13  1  5  5   0   0  4.0425113E+01  3.9053787E+02 -2.5361995E+02  4.6741533E+02  2.7079145E-06  0.0000000E+00  1.0000000E+00
</event>
<event>
9 100 1.0000000E+00 1.0000000E+03 7.8125000E-03 0.0000000E+00
 21 -1  0  0 501 502  0.0000000E+00  0.0000000E+00  4.8303388E+02  4.8303388E+02  0.0000000E+00  0.0000000E+00  1.0000000E+00
 21 -1  0  0 502 501  0.0000000E+00  0.0000000E+00 -4.7080017E+02  4.7080017E+02  0.0000000E+00  0.0000000E+00  1.0000000E+00
 39  2  1  2   0   0  5.6843419E-14  1.7053026E-13  1.2233708E+01  9.5383405E+02  9.5375560E+02  0.0000000E+00  1.0000000E+00
 23  2  3  3   0   0  6.5390712E+01  1.5535118E+02  4.4252154E+02  4.8243691E+02  9.2250353E+01  0.0000000E+00  1.0000000E+00
 23  2  3  3   0   0 -6.5390712E+01 -1.5535118E+02 -4.3028783E+02  4.7139714E+02  9.3046827E+01  0.0000000E+00  1.0000000E+00
-11  1  4  4   0   0  4.0267084E+01  1.5649431E+02  3.3395892E+02  3.7099928E+02  3.8146973E-06  0.0000000E+00  1.0000000E+00
 11  1  4  4   0   0  2.5123627E+01 -1.1431269E+00  1.0856262E+02  1.1143764E+02  1.0789593E-05  0.0000000E+00  1.0000000E+00
-13  1  5  5   0   0 -2.9335898E+01 -1.0838355E+02 -1.6499440E+02  1.9957640E+02  1.3214499E-05  0.0000000E+00  1.0000000E+00
 13  1  5  5   0   0 -3.6054814E+01 -4.6967630E+01 -2.6529344E+02  2.7182074E+02  1.0956884E-05  0.0000000E+00  1.0000000E+00
</event>
<event>
9 100 1.0000000E+00 1.0000000E+03 7.8125000E-03 0.0000000E+00
 21 -1  0  0 501 502  0.0000000E+00  0.0000000E+00  2.4327161E+03  2.4327161E+03  0.0000000E+00  0.0000000E+00  1.0000000E+00
 21 -1  0  0 502 501  0.0000000E+00  0.0000000E+00 -1.0295196E+02  1.0295196E+02  0.0000000E+00  0.0000000E+00  1.0000000E+00
 39  2  1  2   0   0 -2.4442670E-12  4.0074610E-12  2.3297641E+03  2.5356681E+03  1.0009054E+03  0.0000000E+00  1.0000000E+00
 23  2  3  3   0   0 -1.5401592E+02  2.5227220E+02  1.6843131E+02  3.5244418E+02  9.2117456E+01  0.0000000E+00  1.0000000E+00
 23  2  3  3   0   0  1.5401592E+02 -2.5227220E+02  2.1613328E+03  2.1832239E+03  8.8004295E+01  0.0000000E+00  1.0000000E+00
-11  1  4  4   0   0 -6.6333146E+01  1.5187701E+02  1.3813512E+02  2.1574992E+02  8.9716376E-06  0.0000000E+00  1.0000000E+00
 11  1  4  4   0   0 -8.7682777E+01  1.0039519E+02  3.0296186E+01  1.3669427E+02  1.3214499E-05  0.0000000E+00  1.0000000E+00
-13  1  5  5   0   0  8.8854225E+01 -1.9784704E+02  1.7364100E+03  1.7499024E+03  1.7059845E-05  0.0000000E+00  1.0000000E+00
 13  1  5  5   0   0  6.5161697E+01 -5.4425164E+01  4.2492279E+02  4.3332150E+02  4.3158373E-05  0.0000000E+00  1.0000000E+00
</event>
<event>
9 100 1.0000000E+00 1.0000000E+03 7.8125000E-03 0.0000000E+00
 21 -1  0  0 501 502  0.0000000E+00  0.0000000E+00  2.4053034E+02  2.4053034E+02  0.0000000E+00  0.0000000E+00  1.0000000E+00
 21 -1  0  0 502 501  0.0000000E+00  0.0000000E+00 -1.0307535E+03  1.0307535E+03  0.0000000E+00  0.0000000E+00  1.0000000E+00
 39  2  1  2   0   0 -2.7284841E-12 -2.7000624E-12 -7.9022319E+02  1.2712839E+03  9.9584638E+02  0.0000000E+00  1.0000000E+00
 23  2  3  3   0   0 -2.6283194E+02 -2.5459072E+02 -8.0939031E+02  8.9427915E+02  1.0356386E+02  0.0000000E+00  1.0000000E+00
 23  2  3  3   0   0  2.6283194E+02  2.5459072E+02  1.9167117E+01  3.7700472E+02  8.8702438E+01  0.0000000E+00  1.0000000E+00
-11  1  4  4   0   0 -1.9589186E+02 -1.7677224E+02 -6.7807850E+02  7.2760738E+02  8.9462581E-06  0.0000000E+00  1.0000000E+00
 11  1  4  4   0   0 -6.6940077E+01 -7.7818479E+01 -1.3131181E+02  1.6667178E+02  3.7376247E-05  0.0000000E+00  1.0000000E+00
-13  1  5  5   0   0  2.2071254E+02  2.1042822E+02  4.9357456E+01  3.0891782E+02  6.0032264E-06  0.0000000E+00  1.0000000E+00
 13  1  5  5   0   0  4.2119396E+01  4.4162501E+01 -3.0190340E+01  6.8086905E+01  1.6435326E-05  0.0000000E+00  1.0000000E+00
</event>
<event>
9 100 1.0000000E+00 1.0000000E+03 7.8125000E-03 0.0000000E+00
 21 -1  0  0 501 502  0.0000000E+00  0.0000000E+00  4.8730123E+02  4.8730123E+02  0.0000000E+00  0.0000000E+00  1.0000000E+00
 21 -1  0  0 502 501  0.0000000E+00  0.0000000E+00 -5.2890326E+02  5.2890326E+02  0.0000000E+00  0.0000000E+00  1.0000000E+00
 39  2  1  2   0   0 -5.6843419E-14  1.1368684E-13 -4.1602026E+01  1.0162045E+03  1.0153526E+03  0.0000000E+00  1.0000000E+00
 23  2  3  3   0   0 -4.1068402E+02  2.8323736E+02  9.1495543E+00  5.0653209E+02  8.7213956E+01  0.0000000E+00  1.0000000E+00
 23  2  3  3   0   0  4.1068402E+02 -2.8323736E+02 -5.0751580E+01  5.0967240E+02  9.1134312E+01  0.0000000E+00  1.0000000E+00
-11  1  4  4   0   0 -3.7153706E+01  4.4503670E+01 -2.2297028E+01  6.2113863E+01  1.9135969E-05  0.0000000E+00  1.0000000E+00
 11  1  4  4   0   0 -3.7353032E+02  2.3873369E+02  3.1446582E+01  4.4441823E+02  4.0671163E-06  0.0000000E+00  1.0000000E+00
-13  1  5  5   0   0  3.5306702E+01 -3.4335558E+01  2.1096711E+01  5.3577654E+01  1.7688024E-05  0.0000000E+00  1.0000000E+00
 13  1  5  5   0   0  3.7537732E+02 -2.4890181E+02 -7.1848291E+01  4.5609475E+02  3.7165778E-06  0.0000000E+00  1.0000000E+00
</event>
<event>
9 100 1.0000000E+00 1.0000000E+03 7.8125000E-03 0.0000000E+00
 21 -1  0  0 501 502  0.0000000E+00  0.0000000E+00  5.6411414E+02  5.6411414E+02  0.0000000E+00  0.0000000E+00  1.0000000E+00
 21 -1  0  0 502 501  0.0000000E+00  0.0000000E+00 -4.4357960E+02  4.4357960E+02  0.0000000E+00  0.0000000E+00  1.0000000E+00
 39  2  1  2   0   0  4.2632564E-13  6.5369932E-13  1.2053454E+02  1.0076937E+03  1.0004589E+03  0.0000000E+00  1.0000000E+00
 23  2  3  3   0   0  1.1188994E+02  1.6826526E+02 -3.9093772E+02  4.5013625E+02  9.4645546E+01  0.0000000E+00  1.0000000E+00
 23  2  3  3   0   0 -1.1188994E+02 -1.6826526E+02  5.1147226E+02  5.5755750E+02  9.1836437E+01  0.0000000E+00  1.0000000E+00
-11  1  4  4   0   0  8.6711361E+01  1.6787287E+02 -3.7613821E+02  4.2092768E+02  2.3176935E-06  0.0000000E+00  1.0000000E+00
 11  1  4  4   0   0  2.5178574E+01  3.9239504E-01 -1.4799512E+01  2.9208563E+01  1.7059845E-05  0.0000000E+00  1.0000000E+00
-13  1  5  5   0   0 -2.4097759E+01 -9.8186208E+01  1.6685644E+02  1.9509563E+02  6.6072495E-06  0.0000000E+00  1.0000000E+00
 13  1  5  5   0   0 -8.7792176E+01 -7.0079056E+01  3.4461582E+02  3.6246186E+02  6.8770433E-06  0.0000000E+00  1.0000000E+00
</event>
<event>
9 100 1.0000000E+00 1.0000000E+03 7.8125000E-03 0.0000000E+00
 21 -1  0  0 501 502  0.0000000E+00  0.0000000E+00  5.6320692E+02  5.6320692E+02  0.0000000E+00  0.0000000E+00  1.0000000E+00
 21 -1  0  0 502 501  0.0000000E+00  0.0000000E+00 -4.4233079E+02  4.4233079E+02  0.0000000E+00  0.0000000E+00  1.0000000E+00
 39  2  1  2   0   0  6.2527761E-13 -1.9539925E-14  1.2087614E+02  1.0055377E+03  9.9824599E+02  0.0000000E+00  1.0000000E+00
 23  2  3  3   0   0  1.4392129E+02 -4.6016340E+00 -4.1213476E+02  4.4583631E+02  9.0445784E+01  0.0000000E+00  1.0000000E+00
 23  2  3  3   0   0 -1.4392129E+02  4.6016340E+00  5.3301090E+02  5.5970141E+02  9.1817953E+01  0.0000000E+00  1.0000000E+00
-11  1  4  4   0   0  3.6728644E+01 -1.4733874E+01 -2.3677852E+02  2.4006280E+02  6.6072495E-06  0.0000000E+00  1.0000000E+00
 11  1  4  4   0   0  1.0719265E+02  1.0132240E+01 -1.7535624E+02  2.0577351E+02  8.5299224E-06  0.0000000E+00  1.0000000E+00
-13  1  5  5   0   0 -4.5296773E+00  1.8251820E+01  1.6280257E+02  1.6388509E+02  1.6184390E-05  0.0000000E+00  1.0000000E+00
 13  1  5  5   0   0 -1.3939161E+02 -1.3650186E+01  3.7020832E+02  3.9581631E+02  4.6720309E-06  0.0000000E+00  1.0000000E+00
</event>
<event>
9 100 1.0000000E+00 1.0000000E+03 7.8125000E-03 0.0000000E+00
 21 -1  0  0 501 502  0.0000000E+00  0.0000000E+00  6.2161086E+02  6.2161086E+02  0.0000000E+00  0.0000000E+00  1.0000000E+00
 21 -1  0  0 502 501  0.0000000E+00  0.0000000E+00 -4.0284619E+02  4.0284619E+02  0.0000000E+00  0.0000000E+00  1.0000000E+00
 39  2  1  2   0   0  2.4158453E-13  6.0396133E-14  2.1876468E+02  1.0244571E+03  1.0008268E+03  0.0000000E+00  1.0000000E+00
 23  2  3  3   0   0 -9.6449428E+01 -2.3401109E+01  6.0305599E+02  6.1776042E+02  9.0007276E+01  0.0000000E+00  1.0000000E+00
 23  2  3  3   0   0  9.6449428E+01  2.3401109E+01 -3.8429131E+02  4.0669663E+02  8.8725612E+01  0.0000000E+00  1.0000000E+00
-11  1  4  4   0   0 -5.0908738E+01  1.7272787E+01  4.4639822E+02  4.4962364E+02  8.3139399E-06  0.0000000E+00  1.0000000E+00
 11  1  4  4   0   0 -4.5540690E+01 -4.0673896E+01  1.5665777E+02  1.6813678E+02  1.7059845E-05  0.0000000E+00  1.0000000E+00
-13  1  5  5   0   0  3.5323048E+01  2.5862733E+01 -2.9637097E+02  2.9958697E+02  4.9554371E-06  0.0000000E+00  1.0000000E+00
 13  1  5  5   0   0  6.1126380E+01 -2.4616240E+00 -8.7920341E+01  1.0710967E+02  1.3214499E-05  0.0000000E+00  1.0000000E+00
</event>
<event>
9 100 1.0000000E+00 1.0000000E+03 7.8125000E-03 0.0000000E+00
 21 -1  0  0 501 502  0.0000000E+00  0.0000000E+00  4.4674079E+02  4.4674079E+02  0.0000000E+00  0.0000000E+00  1.0000000E+00
 21 -1  0  0 502 501  0.0000000E+00  0.0000000E+00 -5.5425222E+02  5.5425222E+02  0.0000000E+00  0.0000000E+00  1.0000000E+00
 39  2  1  2   0   0 -1.1368684E-13 -2.8421709E-14 -1.0751144E+02  1.0009930E+03  9.9520264E+02  0.0000000E+00  1.0000000E+00
 23  2  3  3   0   0 -2.9201163E+02 -2.1169832E+02  2.7898455E+02  4.6472902E+02  8.9742476E+01  0.0000000E+00  1.0000000E+00
 23  2  3  3   0   0  2.9201163E+02  2.1169832E+02 -3.8649599E+02  5.3626399E+02  9.0071910E+01  0.0000000E+00  1.0000000E+00
-11  1  4  4   0   0 -3.2520727E+01  5.2298298E+00  3.2039141E+01  4.5950575E+01  6.6072495E-06  0.0000000E+00  1.0000000E+00
 11  1  4  4   0   0 -2.5949090E+02 -2.1692815E+02  2.4694541E+02  4.1877844E+02  8.2590618E-07  0.0000000E+00  1.0000000E+00
-13  1  5  5   0   0  1.5539150E+02  1.1264427E+02 -1.4009651E+02  2.3761793E+02  6.0315660E-06  0.0000000E+00  1.0000000E+00
 13  1  5  5   0   0  1.3662013E+02  9.9054042E+01 -2.4639948E+02  2.9864606E+02  8.7405695E-06  0.0000000E+00  1.0000000E+00
</event>
<event>
9 100 1.0000000E+00 1.0000000E+03 7.8125000E-03 0.0000000E+00
 21 -1  0  0 501 502  0.0000000E+00  0.0000000E+00  1.9982598E+03  1.9982598E+03  0.0000000E+00  0.0000000E+00  1.0000000E+00
 21 -1  0  0 502 501  0.0000000E+00  0.0000000E+00 -1.2692403E+02  1.2692403E+02  0.0000000E+00  0.0000000E+00  1.0000000E+00
 39  2  1  2   0   0 -8.2422957E-12  2.4584779E-12  1.8713358E+03  2.1251838E+03  1.0072282E+03  0.0000000E+00  1.0000000E+00
 23  2  3  3   0   0  3.2923968E+02 -9.6719258E+01  1.8238835E+02  3.9947032E+02  9.2507564E+01  0.0000000E+00  1.0000000E+00
 23  2  3  3   0   0 -3.2923968E+02  9.6719258E+01  1.6889474E+03  1.7257135E+03  8.8262841E+01  0.0000000E+00  1.0000000E+00
-11  1  4  4   0   0  1.4071569E+02 -1.6909642E+01  1.1928192E+02  1.8524313E+02  1.6899152E-05  0.0000000E+00  1.0000000E+00
 11  1  4  4   0   0  1.8852399E+02 -7.9809615E+01  6.3106433E+01  2.1422720E+02  1.4774259E-05  0.0000000E+00  1.0000000E+00
-13  1  5  5   0   0 -3.2782193E+02  8.4369976E+01  1.5676340E+03  1.6037649E+03  0.0000000E+00  0.0000000E+00  1.0000000E+00
 13  1  5  5   0   0 -1.4177446E+00  1.2349281E+01  1.2131344E+02  1.2194862E+02  3.0517578E-05  0.0000000E+00  1.0000000E+00
</event>
<event>
9 100 1.0000000E+00 1.0000000E+03 7.8125000E-03 0.0000000E+00
 21 -1  0  0 501 502  0.0000000E+00  0.0000000E+00  5.8554641E+02  5.8554641E+02  0.0000000E+00  0.0000000E+00  1.0000000E+00
 21 -1  0  0 502 501  0.0000000E+00  0.0000000E+00 -4.2712393E+02  4.2712393E+02  0.0000000E+00  0.0000000E+00  1.0000000E+00
 39  2  1  2   0   0  5.4001248E-13 -7.6738615E-13  1.5842247E+02  1.0126703E+03  1.0002017E+03  0.0000000E+00  1.0000000E+00
 23  2  3  3   0   0  9.4036373E+01 -1.4204325E+02 -3.8754964E+02  4.3306198E+02  9.1262424E+01  0.0000000E+00  1.0000000E+00
 23  2  3  3   0   0 -9.4036373E+01  1.4204325E+02  5.4597211E+02  5.7960836E+02  9.4027537E+01  0.0000000E+00  1.0000000E+00
-11  1  4  4   0   0  8.3319467E+01 -9.6308711E+01 -3.5147560E+02  3.7383499E+02  9.5367432E-07  0.0000000E+00  1.0000000E+00
 11  1  4  4   0   0  1.0716906E+01 -4.5734539E+01 -3.6074042E+01  5.9226992E+01  6.6072495E-06  0.0000000E+00  1.0000000E+00
-13  1  5  5   0   0 -6.2124746E+01  1.2875577E+02  5.1025310E+02  5.2990165E+02  3.2690309E-06  0.0000000E+00  1.0000000E+00
 13  1  5  5   0   0 -3.1911627E+01  1.3287480E+01  3.5719012E+01  4.9706708E+01  5.3947966E-06  0.0000000E+00  1.0000000E+00
</event>
<event>
9 100 1.0000000E+00 1.0000000E+03 7.8125000E-03 0.0000000E+00
 21 -1  0  0 501 502  0.0000000E+00  0.0000000E+00  2.7304479E+02  2.7304479E+02  0.0000000E+00  0.0000000E+00  1.0000000E+00
 21 -1  0  0 502 501  0.0000000E+00  0.0000000E+00 -9.2763190E+02  9.2763190E+02  0.0000000E+00  0.0000000E+00  1.0000000E+00
 39  2  1  2   0   0 -1.7053026E-12  1.2221335E-12 -6.5458711E+02  1.2006767E+03  1.0065487E+03  0.0000000E+00  1.0000000E+00
 23  2  3  3   0   0  2.0625648E+02 -1.5431954E+02  1.7514410E+02  3.2480864E+02  9.2026841E+01  0.0000000E+00  1.0000000E+00
 23  2  3  3   0   0 -2.0625648E+02  1.5431954E+02 -8.2973121E+02  8.7586806E+02  1.1106180E+02  0.0000000E+00  1.0000000E+00
-11  1  4  4   0   0  1.3600158E+02 -1.1775122E+02  6.9682963E+01  1.9291837E+02  1.9073486E-06  0.0000000E+00  1.0000000E+00
 11  1  4  4   0   0  7.0254893E+01 -3.6568322E+01  1.0546113E+02  1.3189027E+02  3.8146973E-06  0.0000000E+00  1.0000000E+00
-13  1  5  5   0   0 -3.0877915E+00  6.8412923E+00  1.4109475E+00  7.6373103E+00  2.4126264E-05  0.0000000E+00  1.0000000E+00
 13  1  5  5   0   0 -2.0316868E+02  1.4747825E+02 -8.3114216E+02  8.6823075E+02  5.5655388E-07  0.0000000E+00  1.0000000E+00
</event>
<event>
9 100 1.0000000E+00 1.0000000E+03 7.8125000E-03 0.0000000E+00
 21 -1  0  0 501 502  0.0000000E+00  0.0000000E+00  1.3436010E+02  1.3436010E+02  0.0000000E+00  0.0000000E+00  1.0000000E+00
 21 -1  0  0 502 501  0.0000000E+00  0.0000000E+00 -1.9104166E+03  1.9104166E+03  0.0000000E+00  0.0000000E+00  1.0000000E+00
 39  2  1  2   0   0 -4.6540549E-13 -7.6738615E-12 -1.7760565E+03  2.0447767E+03  1.0132794E+03  0.0000000E+00  1.0000000E+00
 23  2  3  3   0   0  2.4987137E+01  4.1104161E+02 -3.2179313E+02  5.3050117E+02  9.1110390E+01  0.0000000E+00  1.0000000E+00
 23  2  3  3   0   0 -2.4987137E+01 -4.1104161E+02 -1.4542634E+03  1.5142755E+03  9.2568232E+01  0.0000000E+00  1.0000000E+00
-11  1  4  4   0   0  2.1972572E+01  3.4837826E+02 -2.2549321E+02  4.1556876E+02  1.1601949E-05  0.0000000E+00  1.0000000E+00
 11  1  4  4   0   0  3.0145650E+00  6.2663353E+01 -9.6299920E+01  1.1493241E+02  3.0873135E-05  0.0000000E+00  1.0000000E+00
-13  1  5  5   0   0  5.7017767E+00 -2.1995608E+02 -6.2086388E+02  6.5869958E+02  3.7376247E-05  0.0000000E+00  1.0000000E+00
 13  1  5  5   0   0 -3.0688914E+01 -1.9108553E+02 -8.3339950E+02  8.5557596E+02  3.1456800E-05  0.0000000E+00  1.0000000E+00
</event>
<event>
9 100 1.0000000E+00 1.0000000E+03 7.8125000E-03 0.0000000E+00
 21 -1  0  0 501 502  0.0000000E+00  0.0000000E+00  2.5240342E+02  2.5240342E+02  0.0000000E+00  0.0000000E+00  1.0000000E+00
 21 -1  0  0 502 501  0.0000000E+00  0.0000000E+00 -9.8182296E+02  9.8182296E+02  0.0000000E+00  0.0000000E+00  1.0000000E+00
 39  2  1  2   0   0 -1.9895197E-13  1.3500312E-13 -7.2941953E+02  1.2342264E+03  9.9562136E+02  0.0000000E+00  1.0000000E+00
 23  2  3  3   0   0  8.2437382E+01 -5.2373144E+01  2.3108710E+02  2.6450199E+02  8.3792539E+01  0.0000000E+00  1.0000000E+00
 23  2  3  3   0   0 -8.2437382E+01  5.2373144E+01 -9.6050663E+02  9.6972438E+02  9.0848901E+01  0.0000000E+00  1.0000000E+00
-11  1  4  4   0   0  2.3319625E+01 -6.2887209E+01  1.4233213E+02  1.5734370E+02  4.3702847E-06  0.0000000E+00  1.0000000E+00
 11  1  4  4   0   0  5.9117757E+01  1.0514065E+01  8.8754973E+01  1.0715829E+02  5.0463701E-06  0.0000000E+00  1.0000000E+00
-13  1  5  5   0   0 -1.4426083E+01 -1.9646043E+01 -7.9130253E+01  8.2799008E+01  2.6428998E-05  0.0000000E+00  1.0000000E+00
 13  1  5  5   0   0 -6.8011299E+01  7.2019187E+01 -8.8137638E+02  8.8692538E+02  3.5683226E-06  0.0000000E+00  1.0000000E+00
</event>
<event>
9 100 1.0000000E+00 1.0000000E+03 7.8125000E-03 0.0000000E+00
 21 -1  0  0 501 502  0.0000000E+00  0.0000000E+00  8.4271833E+02  8.4271833E+02  0.0000000E+00  0.0000000E+00  1.0000000E+00
 21 -1  0  0 502 501  0.0000000E+00  0.0000000E+00 -2.9374485E+02  2.9374485E+02  0.0000000E+00  0.0000000E+00  1.0000000E+00
 39  2  1  2   0   0  1.3642421E-12  9.0949470E-13  5.4897347E+02  1.1364632E+03  9.9507622E+02  0.0000000E+00  1.0000000E+00
 23  2  3  3   0   0 -4.1574114E+02 -2.5758343E+02  2.8635500E+02  5.7396191E+02  9.0791906E+01  0.0000000E+00  1.0000000E+00
 23  2  3  3   0   0  4.1574114E+02  2.5758343E+02  2.6261847E+02  5.6250127E+02  9.0825671E+01  0.0000000E+00  1.0000000E+00
-11  1  4  4   0   0 -2.1082067E+02 -1.7287908E+02  1.8930251E+02  3.3191561E+02  3.3036247E-06  0.0000000E+00  1.0000000E+00
 11  1  4  4   0   0 -2.0492047E+02 -8.4704349E+01  9.7052488E+01  2.4204630E+02  4.6720309E-06  0.0000000E+00  1.0000000E+00
-13  1  5  5   0   0  2.0634624E+02  1.7840328E+02  1.5998424E+02  3.1623007E+02  3.8146973E-06  0.0000000E+00  1.0000000E+00
 13  1  5  5   0   0  2.0939490E+02  7.9180151E+01  1.0263424E+02  2.4627120E+02  4.6720309E-06  0.0000000E+00  1.0000000E+00
</event>
<event>
9 100 1.0000000E+00 1.0000000E+03 7.8125000E-03 0.0000000E+00
 21 -1  0  0 501 502  0.0000000E+00  0.0000000E+00  5.8179906E+02  5.8179906E+02  0.0000000E+00  0.0000000E+00  1.0000000E+00
 21 -1  0  0 502 501  0.0000000E+00  0.0000000E+00 -4.3631815E+02  4.3631815E+02  0.0000000E+00  0.0000000E+00  1.0000000E+00
 39  2  1  2   0   0 -5.1159077E-13  1.8474111E-13  1.4548091E+02  1.0181172E+03  1.0076696E+03  0.0000000E+00  1.0000000E+00
 23  2  3  3   0   0 -2.6362608E+02  8.6945317E+01 -3.4396981E+02  4.5061118E+02  8.7618564E+01  0.0000000E+00  1.0000000E+00
 23  2  3  3   0   0  2.6362608E+02 -8.6945317E+01  4.8945072E+02  5.6750602E+02  7.3775852E+01  0.0000000E+00  1.0000000E+00
-11  1  4  4   0   0 -2.6013186E+02  7.2733078E+01 -2.9719998E+02  4.0160492E+02  3.9895059E-06  0.0000000E+00  1.0000000E+00
 11  1  4  4   0   0 -3.4942249E+00  1.4212239E+01 -4.6769824E+01  4.9006263E+01  1.8294645E-05  0.0000000E+00  1.0000000E+00
-13  1  5  5   0   0  5.1069355E+01 -4.9643136E+01  1.3084888E+02  1.4897634E+02  1.2063132E-05  0.0000000E+00  1.0000000E+00
 13  1  5  5   0   0  2.1255673E+02 -3.7302181E+01  3.5860184E+02  4.1852968E+02  3.3036247E-06  0.0000000E+00  1.0000000E+00
</event>
<event>
9 100 1.0000000E+00 1.0000000E+03 7.8125000E-03 0.0000000E+00
 21 -1  0  0 501 502  0.0000000E+00  0.0000000E+00  1.5782080E+02  1.5782080E+02  0.0000000E+00  0.0000000E+00  1.0000000E+00
 21 -1  0  0 502 501  0.0000000E+00  0.0000000E+00 -1.5918593E+03  1.5918593E+03  0.0000000E+00  0.0000000E+00  1.0000000E+00
 39  2  1  2   0   0 -1.4068746E-12  8.7929664E-14 -1.4340385E+03  1.7496801E+03  1.0024540E+03  0.0000000E+00  1.0000000E+00
 23  2  3  3   0   0 -9.5350299E+01  6.0959183E+00 -1.5613553E+03  1.5669044E+03  9.0720398E+01  0.0000000E+00  1.0000000E+00
 23  2  3  3   0   0  9.5350299E+01 -6.0959183E+00  1.2731681E+02  1.8277569E+02  8.9825072E+01  0.0000000E+00  1.0000000E+00
-11  1  4  4   0   0 -9.8274732E+01  3.3729831E+01 -1.2116113E+03  1.2160582E+03  3.8146973E-06  0.0000000E+00  1.0000000E+00
 11  1  4  4   0   0  2.9244334E+00 -2.7633913E+01 -3.4974397E+02  3.5084616E+02  1.5258789E-05  0.0000000E+00  1.0000000E+00
-13  1  5  5   0   0  3.8004504E+01 -1.1670259E+01  1.1786524E+02  1.2438951E+02  7.0363782E-06  0.0000000E+00  1.0000000E+00
 13  1  5  5   0   0  5.7345794E+01  5.5743407E+00  9.4515724E+00  5.8386177E+01  1.1121658E-05  0.0000000E+00  1.0000000E+00
</event>
<event>
9 100 1.0000000E+00 1.0000000E+03 7.8125000E-03 0.0000000E+00
 21 -1  0  0 501 502  0.0000000E+00  0.0000000E+00  2.8453472E+02  2.8453472E+02  0.0000000E+00  0.0000000E+00  1.0000000E+00
 21 -1  0  0 502 501  0.0000000E+00  0.0000000E+00 -9.2798467E+02  9.2798467E+02  0.0000000E+00  0.0000000E+00  1.0000000E+00
 39  2  1  2   0   0 -1.1368684E-13 -1.7053026E-13 -6.4344996E+02  1.2125194E+03  1.0277040E+03  0.0000000E+00  1.0000000E+00
 23  2  3  3   0   0 -3.0157894E+02 -3.7969824E+02 -1.5382231E+02  5.1688990E+02  9.1614680E+01  0.0000000E+00  1.0000000E+00
 23  2  3  3   0   0  3.0157894E+02  3.7969824E+02 -4.8962765E+02  6.9562949E+02  9.5102775E+01  0.0000000E+00  1.0000000E+00
-11  1  4  4   0   0 -1.3228341E+02 -1.8298155E+02 -1.1839492E+02  2.5494804E+02  4.9093390E-06  0.0000000E+00  1.0000000E+00
 11  1  4  4   0   0 -1.6929553E+02 -1.9671670E+02 -3.5427387E+01  2.6194186E+02  1.9073486E-06  0.0000000E+00  1.0000000E+00
-13  1  5  5   0   0  2.1156572E+02  3.1762486E+02 -4.1160050E+02  5.6130258E+02  5.5608291E-06  0.0000000E+00  1.0000000E+00
 13  1  5  5   0   0  9.0013219E+01  6.2073380E+01 -7.8027152E+01  1.3432692E+02  1.5258789E-05  0.0000000E+00  1.0000000E+00
</event>
<event>
9 100 1.0000000E+00 1.0000000E+03 7.8125000E-03 0.0000000E+00
 21 -1  0  0 501 502  0.0000000E+00  0.0000000E+00  4.1302054E+02  4.1302054E+02  0.0000000E+00  0.0000000E+00  1.0000000E+00
 21 -1  0  0 502 501  0.0000000E+00  0.0000000E+00 -7.8518751E+02  7.8518751E+02  0.0000000E+00  0.0000000E+00  1.0000000E+00
 39  2  1  2   0   0  1.1368684E-12  1.3500312E-13 -3.7216697E+02  1.1982081E+03  1.1389444E+03  0.0000000E+00  1.0000000E+00
 23  2  3  3   0   0  3.3247690E+02  3.7727842E+01  2.8936251E+02  4.5156719E+02  9.0653124E+01  0.0000000E+00  1.0000000E+00
 23  2  3  3   0   0 -3.3247690E+02 -3.7727842E+01 -6.6152948E+02  7.4664086E+02  8.8809041E+01  0.0000000E+00  1.0000000E+00
-11  1  4  4   0   0  2.3353328E+02  3.9059645E+01  2.5202826E+02  3.4580586E+02  1.7192608E-06  0.0000000E+00  1.0000000E+00
 11  1  4  4   0   0  9.8943616E+01 -1.3318030E+00  3.7334249E+01  1.0576133E+02  7.1366451E-06  0.0000000E+00  1.0000000E+00
-13  1  5  5   0   0 -2.4216873E+02 -2.8201308E+01 -5.5794510E+02  6.0888730E+02  6.1805160E-06  0.0000000E+00  1.0000000E+00
 13  1  5  5   0   0 -9.0308171E+01 -9.5265342E+00 -1.0358438E+02  1.3775356E+02  1.5258789E-05  0.0000000E+00  1.0000000E+00
</event>
<event>
9 100 1.0000000E+00 1.0000000E+03 7.8125000E-03 0.0000000E+00
 21 -1  0  0 501 502  0.0000000E+00  0.0000000E+00  1.1379497E+03  1.1379497E+03  0.0000000E+00  0.0000000E+00  1.0000000E+00
 21 -1  0  0 502 501  0.0000000E+00  0.0000000E+00 -2.1958506E+02  2.1958506E+02  0.0000000E+00  0.0000000E+00  1.0000000E+00
 39  2  1  2   0   0  6.2527761E-13 -2.2737368E-12  9.1836469E+02  1.3575348E+03  9.9975350E+02  0.0000000E+00  1.0000000E+00
 23  2  3  3   0   0  7.1449508E+01 -2.6281553E+02  1.0152702E+03  1.0551648E+03  9.1772025E+01  0.0000000E+00  1.0000000E+00
 23  2  3  3   0   0 -7.1449508E+01  2.6281553E+02 -9.6905511E+01  3.0237003E+02  8.8656201E+01  0.0000000E+00  1.0000000E+00
-11  1  4  4   0   0  9.4530996E+00 -1.9606092E+02  6.9732866E+02  7.2442840E+02  9.3440618E-06  0.0000000E+00  1.0000000E+00
 11  1  4  4   0   0  6.1996408E+01 -6.6754611E+01  3.1794154E+02  3.3073639E+02  1.8688124E-05  0.0000000E+00  1.0000000E+00
-13  1  5  5   0   0  1.9102808E+01  4.4506930E+01 -2.9054198E+01  5.6479470E+01  1.2397766E-05  0.0000000E+00  1.0000000E+00
 13  1  5  5   0   0 -9.0552316E+01  2.1830860E+02 -6.7851313E+01  2.4589056E+02  4.5736613E-06  0.0000000E+00  1.0000000E+00
</event>
<event>
9 100 1.0000000E+00 1.0000000E+03 7.8125000E-03 0.0000000E+00
 21 -1  0  0 501 502  0.0000000E+00  0.0000000E+00  1.8836985E+03  1.8836985E+03  0.0000000E+00  0.0000000E+00  1.0000000E+00
 21 -1  0  0 502 501  0.0000000E+00  0.0000000E+00 -1.2924317E+02  1.2924317E+02  0.0000000E+00  0.0000000E+00  1.0000000E+00
 39  2  1  2   0   0  5.7411853E-12  3.3821834E-12  1.7544553E+03  2.0129416E+03  9.8682351E+02  0.0000000E+00  1.0000000E+00
 23  2  3  3   0   0  3.5527076E+02  2.1075877E+02  1.3948513E+03  1.4576133E+03  9.1595763E+01  0.0000000E+00  1.0000000E+00
 23  2  3  3   0   0 -3.5527076E+02 -2.1075877E+02  3.5960398E+02  5.5532833E+02  9.1858342E+01  0.0000000E+00  1.0000000E+00
-11  1  4  4   0   0  2.9382796E+02  1.6249747E+02  9.9283614E+02  1.0480763E+03  5.3947966E-06  0.0000000E+00  1.0000000E+00
 11  1  4  4   0   0  6.1442805E+01  4.8261301E+01  4.0201516E+02  4.0953700E+02  2.4126264E-05  0.0000000E+00  1.0000000E+00
-13  1  5  5   0   0 -5.5593490E+01 -6.1206329E+01  1.1007721E+02  1.3767295E+02  8.9462581E-06  0.0000000E+00  1.0000000E+00
 13  1  5  5   0   0 -2.9967727E+02 -1.4955244E+02  2.4952678E+02  4.1765538E+02  4.8628039E-06  0.0000000E+00  1.0000000E+00
</event>
<event>
9 100 1.0000000E+00 1.0000000E+03 7.8125000E-03 0.0000000E+00
 21 -1  0  0 501 502  0.0000000E+00  0.0000000E+00  3.8827743E+02  3.8827743E+02  0.0000000E+00  0.0000000E+00  1.0000000E+00
 21 -1  0  0 502 501  0.0000000E+00  0.0000000E+00 -6.4061870E+02  6.4061870E+02  0.0000000E+00  0.0000000E+00  1.0000000E+00
 39  2  1  2   0   0  3.2684966E-13 -2.7000624E-13 -2.5234127E+02  1.0288961E+03  9.9747238E+02  0.0000000E+00  1.0000000E+00
 23  2  3  3   0   0 -1.1603120E+02  1.1656978E+02  3.5067610E+02  3.9723714E+02  8.8158196E+01  0.0000000E+00  1.0000000E+00
 23  2  3  3   0   0  1.1603120E+02 -1.1656978E+02 -6.0301737E+02  6.3165899E+02  9.1166772E+01  0.0000000E+00  1.0000000E+00
-11  1  4  4   0   0 -4.1420266E+01  8.7635510E+01  2.5320124E+02  2.7112080E+02  3.5683226E-06  0.0000000E+00  1.0000000E+00
 11  1  4  4   0   0 -7.4610932E+01  2.8934270E+01  9.7474862E+01  1.2611634E+02  8.9462581E-06  0.0000000E+00  1.0000000E+00
-13  1  5  5   0   0  2.5857125E+00 -6.0764977E+01 -2.2408721E+02  2.3219420E+02  9.3440618E-06  0.0000000E+00  1.0000000E+00
 13  1  5  5   0   0  1.1344549E+02 -5.5804803E+01 -3.7893016E+02  3.9946479E+02  3.8146973E-06  0.0000000E+00  1.0000000E+00
</event>
<event>
9 100 1.0000000E+00 1.0000000E+03 7.8125000E-03 0.0000000E+00
 21 -1  0  0 501 502  0.0000000E+00  0.0000000E+00  5.4361957E+02  5.4361957E+02  0.0000000E+00  0.0000000E+00  1.0000000E+00
 21 -1  0  0 502 501  0.0000000E+00  0.0000000E+00 -4.7235030E+02  4.7235030E+02  0.0000000E+00  0.0000000E+00  1.0000000E+00
 39  2  1  2   0   0 -3.4106051E-13 -4.9737992E-14  7.1269278E+01  1.0159699E+03  1.0134671E+03  0.0000000E+00  1.0000000E+00
 23  2  3  3   0   0  3.0391166E+02  3.5734984E+01 -3.5808509E+02  4.7998888E+02  9.2331488E+01  0.0000000E+00  1.0000000E+00
 23  2  3  3   0   0 -3.0391166E+02 -3.5734984E+01  4.2935437E+02  5.3598099E+02  9.6390688E+01  0.0000000E+00  1.0000000E+00
-11  1  4  4   0   0  1.0772805E+02 -1.6151819E+01 -1.7794040E+02  2.0863605E+02  1.0092740E-05  0.0000000E+00  1.0000000E+00
 11  1  4  4   0   0  1.9618361E+02  5.1886803E+01 -1.8014469E+02  2.7135283E+02  7.3871295E-06  0.0000000E+00  1.0000000E+00
-13  1  5  5   0   0  5.9295078E+00 -7.6951073E+00  1.3560297E+01  1.6680989E+01  2.0893957E-05  0.0000000E+00  1.0000000E+00
 13  1  5  5   0   0 -3.0984117E+02 -2.8039877E+01  4.1579407E+02  5.1930000E+02  2.2174210E-06  0.0000000E+00  1.0000000E+00
</event>
<event>
9 100 1.0000000E+00 1.0000000E+03 7.8125000E-03 0.0000000E+00
 21 -1  0  0 501 502  0.0000000E+00  0.0000000E+00  7.1397281E+01  7.1397281E+01  0.0000000E+00  0.0000000E+00  1.0000000E+00
 21 -1  0  0 502 501  0.0000000E+00  0.0000000E+00 -3.4148404E+03  3.4148404E+03  0.0000000E+00  0.0000000E+00  1.0000000E+00
 39  2  1  2   0   0  9.9475983E-13 -9.9475983E-13 -3.3434432E+03  3.4862377E+03  9.8754306E+02  0.0000000E+00  1.0000000E+00
 23  2  3  3   0   0  1.8119605E+02 -1.8731399E+02 -2.2703757E+02  3.5759700E+02  9.1711612E+01  0.0000000E+00  1.0000000E+00
 23  2  3  3   0   0 -1.8119605E+02  1.8731399E+02 -3.1164056E+03  3.1286407E+03  9.2143493E+01  0.0000000E+00  1.0000000E+00
-11  1  4  4   0   0  1.2231966E+02 -1.0102966E+02 -8.1231725E+01  1.7823491E+02  8.7405695E-06  0.0000000E+00  1.0000000E+00
 11  1  4  4   0   0  5.8876389E+01 -8.6284331E+01 -1.4580585E+02  1.7936209E+02  7.9218138E-06  0.0000000E+00  1.0000000E+00
-13  1  5  5   0   0 -1.4717694E+02  1.6350008E+02 -2.1228599E+03  2.1342276E+03  4.3158373E-05  0.0000000E+00  1.0000000E+00
 13  1  5  5   0   0 -3.4019107E+01  2.3813911E+01 -9.9354568E+02  9.9441310E+02  8.0741922E-05  0.0000000E+00  1.0000000E+00
</event>
<event>
9 100 1.0000000E+00 1.0000000E+03 7.8125000E-03 0.0000000E+00
 21 -1  0  0 501 502  0.0000000E+00  0.0000000E+00  1.0627371E+02  1.0627371E+02  0.0000000E+00  0.0000000E+00  1.0000000E+00
 21 -1  0  0 502 501  0.0000000E+00  0.0000000E+00 -2.3863203E+03  2.3863203E+03  0.0000000E+00  0.0000000E+00  1.0000000E+00
 39  2  1  2   0   0 -1.4779289E-12 -1.4210855E-12 -2.2800465E+03  2.4925940E+03  1.0071804E+03  0.0000000E+00  1.0000000E+00
 23  2  3  3   0   0  3.0263326E+02  2.8935168E+02 -1.7919673E+03  1.8425023E+03  9.1415012E+01  0.0000000E+00  1.0000000E+00
 23  2  3  3   0   0 -3.0263326E+02 -2.8935168E+02 -4.8807924E+02  6.5009164E+02  9.5323202E+01  0.0000000E+00  1.0000000E+00
-11  1  4  4   0   0  2.6809173E+02  2.7491268E+02 -1.7069317E+03  1.7495903E+03  4.5736613E-06  0.0000000E+00  1.0000000E+00
 11  1  4  4   0   0  3.4541529E+01  1.4439003E+01 -8.5035576E+01  9.2912061E+01  3.0517578E-05  0.0000000E+00  1.0000000E+00
-13  1  5  5   0   0 -5.1716405E+00 -6.3555488E+00  4.0869719E+00  9.1565390E+00  3.6589291E-05  0.0000000E+00  1.0000000E+00
 13  1  5  5   0   0 -2.9746162E+02 -2.8299613E+02 -4.9216621E+02  6.4093510E+02  3.0960009E-06  0.0000000E+00  1.0000000E+00
</event>
<event>
9 100 1.0000000E+00 1.0000000E+03 7.8125000E-03 0.0000000E+00
 21 -1  0  0 501 502  0.0000000E+00  0.0000000E+00  8.2957435E+02  8.2957435E+02  0.0000000E+00  0.0000000E+00  1.0000000E+00
 21 -1  0  0 502 501  0.0000000E+00  0.0000000E+00 -2.8133573E+02  2.8133573E+02  0.0000000E+00  0.0000000E+00  1.0000000E+00
 39  2  1  2   0   0 -1.5916157E-12  8.2422957E-13  5.4823863E+02  1.1109101E+03  9.6620682E+02  0.0000000E+00  1.0000000E+00
 23  2  3  3   0   0 -3.7474337E+02  2.0643042E+02  3.1196205E+01  4.3292462E+02  5.8347315E+01  0.0000000E+00  1.0000000E+00
 23  2  3  3   0   0  3.7474337E+02 -2.0643042E+02  5.1704242E+02  6.7798546E+02  9.6360281E+01  0.0000000E+00  1.0000000E+00
-11  1  4  4   0   0 -1.0602349E+01 -3.8291935E+00 -1.3871899E-01  1.1273498E+01  1.2940661E-05  0.0000000E+00  1.0000000E+00
 11  1  4  4   0   0 -3.6414103E+02  2.1025961E+02  3.1334924E+01  4.2165112E+02  9.6659798E-07  0.0000000E+00  1.0000000E+00
-13  1  5  5   0   0  3.1479376E+02 -1.3169427E+02  3.7935504E+02  5.1024381E+02  7.6293945E-06  0.0000000E+00  1.0000000E+00
 13  1  5  5   0   0  5.9949612E+01 -7.4736151E+01  1.3768738E+02  1.6774165E+02  1.6184390E-05  0.0000000E+00  1.0000000E+00
</event>
<event>
9 100 1.0000000E+00 1.0000000E+03 7.8125000E-03 0.0000000E+00
 21 -1  0  0 501 502  0.0000000E+00  0.0000000E+00  5.0452485E+02  5.0452485E+02  0.0000000E+00  0.0000000E+00  1.0000000E+00
 21 -1  0  0 502 501  0.0000000E+00  0.0000000E+00 -4.7661388E+02  4.7661388E+02  0.0000000E+00  0.0000000E+00  1.0000000E+00
 39  2  1  2   0   0 -1.1368684E-13 -7.1054274E-14  2.7910978E+01  9.8113873E+02  9.8074165E+02  0.0000000E+00  1.0000000E+00
 23  2  3  3   0   0 -2.1792418E+02 -1.0779396E+02 -4.0198525E+02  4.7894135E+02  9.3178261E+01  0.0000000E+00  1.0000000E+00
 23  2  3  3   0   0  2.1792418E+02  1.0779396E+02  4.2989623E+02  5.0219738E+02  9.0999742E+01  0.0000000E+00  1.0000000E+00
-11  1  4  4   0   0 -1.0400260E+02 -7.7324515E+01 -2.8377512E+02  3.1196785E+02  6.0315660E-06  0.0000000E+00  1.0000000E+00
 11  1  4  4   0   0 -1.1392159E+02 -3.0469446E+01 -1.1821013E+02  1.6697350E+02  3.8146973E-06  0.0000000E+00  1.0000000E+00
-13  1  5  5   0   0  1.2989301E+02  1.0348769E+02  3.2667327E+02  3.6646598E+02  3.8146973E-06  0.0000000E+00  1.0000000E+00
 13  1  5  5   0   0  8.8031175E+01  4.3062764E+00  1.0322296E+02  1.3573140E+02  5.3947966E-06  0.0000000E+00  1.0000000E+00
</event>
<event>
9 100 1.0000000E+00 1.0000000E+03 7.8125000E-03 0.0000000E+00
 21 -1  0  0 501 502  0.0000000E+00  0.0000000E+00  7.2042886E+02  7.2042886E+02  0.0000000E+00  0.0000000E+00  1.0000000E+00
 21 -1  0  0 502 501  0.0000000E+00  0.0000000E+00 -3.4684479E+02  3.4684479E+02  0.0000000E+00  0.0000000E+00  1.0000000E+00
 39  2  1  2   0   0 -9.0949470E-13  5.1159077E-13  3.7358407E+02  1.0672737E+03  9.9975397E+02  0.0000000E+00  1.0000000E+00
 23  2  3  3   0   0 -1.1972852E+02  6.7689679E+01  6.9068599E+02  7.1005934E+02  9.0665973E+01  0.0000000E+00  1.0000000E+00
 23  2  3  3   0   0  1.1972852E+02 -6.7689679E+01 -3.1710192E+02  3.5721431E+02  9.0175522E+01  0.0000000E+00  1.0000000E+00
-11  1  4  4   0   0 -6.8633671E+01 -1.1061130E+00  4.3531272E+02  4.4069146E+02  8.0921949E-06  0.0000000E+00  1.0000000E+00
 11  1  4  4   0   0 -5.1094846E+01  6.8795792E+01  2.5537328E+02  2.6936788E+02  1.0789593E-05  0.0000000E+00  1.0000000E+00
-13  1  5  5   0   0  3.0039822E+01  5.9038790E+00 -1.5427120E+02  1.5727953E+02  8.3139399E-06  0.0000000E+00  1.0000000E+00
 13  1  5  5   0   0  8.9688694E+01 -7.3593558E+01 -1.6283072E+02  1.9993479E+02  6.6072495E-06  0.0000000E+00  1.0000000E+00
</event>
<event>
9 100 1.0000000E+00 1.0000000E+03 7.8125000E-03 0.0000000E+00
 21 -1  0  0 501 502  0.0000000E+00  0.0000000E+00  1.8532644E+02  1.8532644E+02  0.0000000E+00  0.0000000E+00  1.0000000E+00
 21 -1  0  0 502 501  0.0000000E+00  0.0000000E+00 -1.2263261E+03  1.2263261E+03  0.0000000E+00  0.0000000E+00  1.0000000E+00
 39  2  1  2   0   0  1.3642421E-12  1.1013412E-13 -1.0409997E+03  1.4116526E+03  9.5345825E+02  0.0000000E+00  1.0000000E+00
 23  2  3  3   0   0 -2.8173764E+02 -2.3364878E+01  3.1217604E+01  2.9851928E+02  9.0648837E+01  0.0000000E+00  1.0000000E+00
 23  2  3  3   0   0  2.8173764E+02  2.3364878E+01 -1.0722173E+03  1.1131333E+03  9.7436029E+01  0.0000000E+00  1.0000000E+00
-11  1  4  4   0   0 -3.9614013E+01  2.8400129E+01  1.1883072E+01  5.0170158E+01  1.3143331E-05  0.0000000E+00  1.0000000E+00
 11  1  4  4   0   0 -2.4212362E+02 -5.1765007E+01  1.9334532E+01  2.4834913E+02  4.3113569E-06  0.0000000E+00  1.0000000E+00
-13  1  5  5   0   0  2.2087374E+02  5.1841449E+01 -9.0293866E+02  9.3100536E+02  8.7405695E-06  0.0000000E+00  1.0000000E+00
 13  1  5  5   0   0  6.0863893E+01 -2.8476571E+01 -1.6927864E+02  1.8212794E+02  3.2368780E-05  0.0000000E+00  1.0000000E+00
</event>
<event>
9 100 1.0000000E+00 1.0000000E+03 7.8125000E-03 0.0000000E+00
 21 -1  0  0 501 502  0.0000000E+00  0.0000000E+00  3.1738550E+02  3.1738550E+02  0.0000000E+00  0.0000000E+00  1.0000000E+00
 21 -1  0  0 502 501  0.0000000E+00  0.0000000E+00 -7.9272445E+02  7.9272445E+02  0.0000000E+00  0.0000000E+00  1.0000000E+00
 39  2  1  2   0   0  0.0000000E+00 -1.4210855E-14 -4.7533895E+02  1.1101100E+03  1.0031934E+03  0.0000000E+00  1.0000000E+00
 23  2  3  3   0   0 -1.5685759E+02 -8.9610665E+01 -7.4549155E+02  7.7241701E+02  9.0752489E+01  0.0000000E+00  1.0000000E+00
 23  2  3  3   0   0  1.5685759E+02  8.9610665E+01  2.7015260E+02  3.3769295E+02  9.1759074E+01  0.0000000E+00  1.0000000E+00
-11  1  4  4   0   0 -1.2159287E+01 -5.0717749E+01 -2.0687829E+02  2.1335128E+02  2.0185481E-05  0.0000000E+00  1.0000000E+00
 11  1  4  4   0   0 -1.4469830E+02 -3.8892916E+01 -5.3861325E+02  5.5906573E+02  3.8146973E-06  0.0000000E+00  1.0000000E+00
-13  1  5  5   0   0  5.6889408E+00  1.6976274E+01 -1.9982544E+00  1.8015297E+01  1.0092740E-05  0.0000000E+00  1.0000000E+00
 13  1  5  5   0   0  1.5116865E+02  7.2634391E+01  2.7215085E+02  3.1967765E+02  1.2792454E-06  0.0000000E+00  1.0000000E+00
</event>
<event>
9 100 1.0000000E+00 1.0000000E+03 7.8125000E-03 0.0000000E+00
 21 -1  0  0 501 502  0.0000000E+00  0.0000000E+00  8.3639603E+02  8.3639603E+02  0.0000000E+00  0.0000000E+00  1.0000000E+00
 21 -1  0  0 502 501  0.0000000E+00  0.0000000E+00 -2.9626659E+02  2.9626659E+02  0.0000000E+00  0.0000000E+00  1.0000000E+00
 39  2  1  2   0   0  8.2422957E-13  3.7658765E-13  5.4012944E+02  1.1326626E+03  9.9558264E+02  0.0000000E+00  1.0000000E+00
 23  2  3  3   0   0 -1.3117488E+02 -6.2727764E+01 -2.6116586E+02  3.1298817E+02  9.2802846E+01  0.0000000E+00  1.0000000E+00
 23  2  3  3   0   0  1.3117488E+02  6.2727764E+01  8.0129530E+02  8.1967445E+02  9.3007652E+01  0.0000000E+00  1.0000000E+00
-11  1  4  4   0   0 -1.0360591E+02 -3.7455977E+01 -2.5118066E+02  2.7427880E+02  3.2950103E-06  0.0000000E+00  1.0000000E+00
 11  1  4  4   0   0 -2.7568967E+01 -2.5271786E+01 -9.9851948E+00  3.8709369E+01  1.1757687E-05  0.0000000E+00  1.0000000E+00
-13  1  5  5   0   0  8.0776856E+01  1.8671598E+01  2.3029485E+02  2.4476365E+02  2.2888184E-05  0.0000000E+00  1.0000000E+00
 13  1  5  5   0   0  5.0398019E+01  4.4056165E+01  5.7100045E+02  5.7491079E+02  1.2361032E-05  0.0000000E+00  1.0000000E+00
</event>
<event>
9 100 1.0000000E+00 1.0000000E+03 7.8125000E-03 0.0000000E+00
 21 -1  0  0 501 502  0.0000000E+00  0.0000000E+00  1.4708436E+02  1.4708436E+02  0.0000000E+00  0.0000000E+00  1.0000000E+00
 21 -1  0  0 502 501  0.0000000E+00  0.0000000E+00 -1.6860118E+03  1.6860118E+03  0.0000000E+00  0.0000000E+00  1.0000000E+00
 39  2  1  2   0   0  7.6738615E-12 -9.1517904E-12 -1.5389274E+03  1.8330962E+03  9.9596380E+02  0.0000000E+00  1.0000000E+00
 23  2  3  3   0   0  2.3875425E+02 -2.8506567E+02 -1.3554189E+03  1.4084703E+03  9.1445339E+01  0.0000000E+00  1.0000000E+00
 23  2  3  3   0   0 -2.3875425E+02  2.8506567E+02 -1.8350855E+02  4.2462585E+02  9.1464162E+01  0.0000000E+00  1.0000000E+00
-11  1  4  4   0   0  9.2775394E+01 -6.4902550E+01 -3.0478861E+02  3.2513952E+02  3.0517578E-05  0.0000000E+00  1.0000000E+00
 11  1  4  4   0   0  1.4597886E+02 -2.2016312E+02 -1.0506303E+03  1.0833308E+03  0.0000000E+00  0.0000000E+00  1.0000000E+00
-13  1  5  5   0   0 -2.0783134E+02  2.8384110E+02 -1.7218138E+02  3.9167086E+02  2.7547407E-06  0.0000000E+00  1.0000000E+00
 13  1  5  5   0   0 -3.0922914E+01  1.2245653E+00 -1.1327173E+01  3.2954984E+01  1.6518124E-05  0.0000000E+00  1.0000000E+00
</event>
<event>
9 100 1.0000000E+00 1.0000000E+03 7.8125000E-03 0.0000000E+00
 21 -1  0  0 501 502  0.0000000E+00  0.0000000E+00  8.9109865E+02  8.9109865E+02  0.0000000E+00  0.0000000E+00  1.0000000E+00
 21 -1  0  0 502 501  0.0000000E+00  0.0000000E+00 -2.8107103E+02  2.8107103E+02  0.0000000E+00  0.0000000E+00  1.0000000E+00
 39  2  1  2   0   0  3.9790393E-13 -1.8758328E-12  6.1002763E+02  1.1721697E+03  1.0009236E+03  0.0000000E+00  1.0000000E+00
 23  2  3  3   0   0  7.6640958E+01 -3.9388590E+02  6.3930323E+02  7.6057372E+02  9.3508418E+01  0.0000000E+00  1.0000000E+00
 23  2  3  3   0   0 -7.6640958E+01  3.9388590E+02 -2.9275601E+01  4.1159596E+02  8.6799946E+01  0.0000000E+00  1.0000000E+00
-11  1  4  4   0   0  1.2871037E+01 -2.6791955E+02  3.7695460E+02  4.6264599E+02  1.0789593E-05  0.0000000E+00  1.0000000E+00
 11  1  4  4   0   0  6.3769921E+01 -1.2596636E+02  2.6234863E+02  2.9792773E+02  2.0893957E-05  0.0000000E+00  1.0000000E+00
-13  1  5  5   0   0 -1.2870548E+01  1.9610769E+02  2.1429199E+01  1.9769443E+02  8.8182650E-06  0.0000000E+00  1.0000000E+00
 13  1  5  5   0   0 -6.3770410E+01  1.9777821E+02 -5.0704801E+01  2.1390152E+02  1.0235352E-05  0.0000000E+00  1.0000000E+00
</event>
<event>
9 100 1.0000000E+00 1.0000000E+03 7.8125000E-03 0.0000000E+00
 21 -1  0  0 501 502  0.0000000E+00  0.0000000E+00  1.0261672E+03  1.0261672E+03  0.0000000E+00  0.0000000E+00  1.0000000E+00
 21 -1  0  0 502 501  0.0000000E+00  0.0000000E+00 -2.4434683E+02  2.4434683E+02  0.0000000E+00  0.0000000E+00  1.0000000E+00
 39  2  1  2   0   0  1.4210855E-12 -1.0516032E-12  7.8182035E+02  1.2705140E+03  1.0014803E+03  0.0000000E+00  1.0000000E+00
 23  2  3  3   0   0 -1.8897880E+02  1.4259199E+02 -1.5474752E+02  3.0020278E+02  1.0064518E+02  0.0000000E+00  1.0000000E+00
 23  2  3  3   0   0  1.8897880E+02 -1.4259199E+02  9.3656788E+02  9.7031123E+02  9.1099029E+01  0.0000000E+00  1.0000000E+00
-11  1  4  4   0   0 -2.3226636E+01  6.4766953E+01 -7.0924410E+01  9.8815519E+01  1.0789593E-05  0.0000000E+00  1.0000000E+00
 11  1  4  4   0   0 -1.6575216E+02  7.7825037E+01 -8.3823114E+01  2.0138726E+02  6.3259598E-06  0.0000000E+00  1.0000000E+00
-13  1  5  5   0   0  6.7066487E+00  8.4866091E-02  1.3090595E+00  6.8337381E+00  2.4126264E-05  0.0000000E+00  1.0000000E+00
 13  1  5  5   0   0  1.8227215E+02 -1.4267686E+02  9.3525882E+02  9.6347749E+02  1.2362577E-06  0.0000000E+00  1.0000000E+00
</event>
<event>
9 100 1.0000000E+00 1.0000000E+03 7.8125000E-03 0.0000000E+00
 21 -1  0  0 501 502  0.0000000E+00  0.0000000E+00  6.9727619E+02  6.9727619E+02  0.0000000E+00  0.0000000E+00  1.0000000E+00
 21 -1  0  0 502 501  0.0000000E+00  0.0000000E+00 -3.4293479E+02  3.4293479E+02  0.0000000E+00  0.0000000E+00  1.0000000E+00
 39  2  1  2   0   0 -1.7053026E-13  5.6843419E-14  3.5434141E+02  1.0402110E+03  9.7799849E+02  0.0000000E+00  1.0000000E+00
 23  2  3  3   0   0 -3.6700719E+02  1.2537117E+02  4.7801853E+02  6.2310230E+02  9.6656926E+01  0.0000000E+00  1.0000000E+00
 23  2  3  3   0   0  3.6700719E+02 -1.2537117E+02 -1.2367712E+02  4.1710868E+02  9.0947302E+01  0.0000000E+00  1.0000000E+00
-11  1  4  4   0   0 -1.7897885E+02  3.8646406E+01  1.5753480E+02  2.4154541E+02  1.3754087E-05  0.0000000E+00  1.0000000E+00
 11  1  4  4   0   0 -1.8802834E+02  8.6724766E+01  3.2048373E+02  3.8155689E+02  8.7405695E-06  0.0000000E+00  1.0000000E+00
-13  1  5  5   0   0  2.6746388E+02 -7.7806406E+01 -1.2832157E+02  3.0668745E+02  5.3809494E-06  0.0000000E+00  1.0000000E+00
 13  1  5  5   0   0  9.9543305E+01 -4.7564766E+01  4.6444535E+00  1.1042123E+02  1.5139110E-05  0.0000000E+00  1.0000000E+00
</event>
<event>
9 100 1.0000000E+00 1.0000000E+03 7.8125000E-03 0.0000000E+00
 21 -1  0  0 501 502  0.0000000E+00  0.0000000E+00  1.7747040E+03  1.7747040E+03  0.0000000E+00  0.0000000E+00  1.0000000E+00
 21 -1  0  0 502 501  0.0000000E+00  0.0000000E+00 -1.4182274E+02  1.4182274E+02  0.0000000E+00  0.0000000E+00  1.0000000E+00
 39  2  1  2   0   0 -1.7053026E-13 -3.6948222E-12  1.6328812E+03  1.9165267E+03  1.0033811E+03  0.0000000E+00  1.0000000E+00
 23  2  3  3   0   0 -2.0569532E+01 -4.2637066E+02  1.2893811E+03  1.3612335E+03  9.0764546E+01  0.0000000E+00  1.0000000E+00
 23  2  3  3   0   0  2.0569532E+01  4.2637066E+02  3.4350018E+02  5.5529318E+02  9.0239090E+01  0.0000000E+00  1.0000000E+00
-11  1  4  4   0   0 -1.1521212E+01 -4.0563826E+02  1.1383542E+03  1.2085220E+03  3.3036247E-06  0.0000000E+00  1.0000000E+00
 11  1  4  4   0   0 -9.0483207E+00 -2.0732405E+01  1.5102686E+02  1.5271155E+02  1.5258789E-05  0.0000000E+00  1.0000000E+00
-13  1  5  5   0   0  2.2176732E+01  3.4935379E+02  2.3269460E+02  4.2034112E+02  1.3486992E-06  0.0000000E+00  1.0000000E+00
 13  1  5  5   0   0 -1.6071994E+00  7.7016868E+01  1.1080558E+02  1.3495206E+02  5.3947966E-06  0.0000000E+00  1.0000000E+00
</event>
<event>
9 100 1.0000000E+00 1.0000000E+03 7.8125000E-03 0.0000000E+00
 21 -1  0  0 501 502  0.0000000E+00  0.0000000E+00  1.0955597E+03  1.0955597E+03  0.0000000E+00  0.0000000E+00  1.0000000E+00
 21 -1  0  0 502 501  0.0000000E+00  0.0000000E+00 -2.2493375E+02  2.2493375E+02  0.0000000E+00  0.0000000E+00  1.0000000E+00
 39  2  1  2   0   0 -2.4868996E-13  1.4210855E-12  8.7062594E+02  1.3204935E+03  9.9283101E+02  0.0000000E+00  1.0000000E+00
 23  2  3  3   0   0  3.6661327E+01 -2.3425961E+02  1.0017626E+03  1.0335308E+03  9.1847453E+01  0.0000000E+00  1.0000000E+00
 23  2  3  3   0   0 -3.6661327E+01  2.3425961E+02 -1.3113663E+02  2.8696269E+02  9.4494198E+01  0.0000000E+00  1.0000000E+00
-11  1  4  4   0   0  1.2431146E+01  7.8695132E-01  1.8698362E+01  2.2467341E+01  2.6428998E-05  0.0000000E+00  1.0000000E+00
 11  1  4  4   0   0  2.4230182E+01 -2.3504656E+02  9.8306421E+02  1.0110634E+03  2.1720966E-06  0.0000000E+00  1.0000000E+00
-13  1  5  5   0   0 -6.8696696E+01  1.7047351E+02 -9.1354824E+01  2.0524658E+02  5.2452087E-06  0.0000000E+00  1.0000000E+00
 13  1  5  5   0   0  3.2035369E+01  6.3786102E+01 -3.9781807E+01  8.1716118E+01  1.0182455E-05  0.0000000E+00  1.0000000E+00
</event>
<event>
9 100 1.0000000E+00 1.0000000E+03 7.8125000E-03 0.0000000E+00
 21 -1  0  0 501 502  0.0000000E+00  0.0000000E+00  5.1001127E+02  5.1001127E+02  0.0000000E+00  0.0000000E+00  1.0000000E+00
 21 -1  0  0 502 501  0.0000000E+00  0.0000000E+00 -4.9009362E+02  4.9009362E+02  0.0000000E+00  0.0000000E+00  1.0000000E+00
 39  2  1  2   0   0 -2.2737368E-13 -9.9475983E-14  1.9917651E+01  1.0001049E+03  9.9990654E+02  0.0000000E+00  1.0000000E+00
 23  2  3  3   0   0 -3.7917939E+02 -1.2122011E+02 -2.7878887E+02  4.9425875E+02  8.9984179E+01  0.0000000E+00  1.0000000E+00
 23  2  3  3   0   0  3.7917939E+02  1.2122011E+02  2.9870652E+02  5.0584615E+02  9.0462212E+01  0.0000000E+00  1.0000000E+00
-11  1  4  4   0   0 -3.1729663E+02 -7.1716804E+01 -1.9663551E+02  3.8011311E+02  3.6935647E-06  0.0000000E+00  1.0000000E+00
 11  1  4  4   0   0 -6.1882765E+01 -4.9503301E+01 -8.2153359E+01  1.1414564E+02  1.3214499E-05  0.0000000E+00  1.0000000E+00
-13  1  5  5   0   0  2.0117023E+02  3.1584157E+01  1.1031281E+02  2.3159433E+02  1.1444092E-05  0.0000000E+00  1.0000000E+00
 13  1  5  5   0   0  1.7800917E+02  8.9635948E+01  1.8839371E+02  2.7425181E+02  1.3214499E-05  0.0000000E+00  1.0000000E+00
</event>
<event>
9 100 1.0000000E+00 1.0000000E+03 7.8125000E-03 0.0000000E+00
 21 -1  0  0 501 502  0.0000000E+00  0.0000000E+00  1.0470247E+03  1.0470247E+03  0.0000000E+00  0.0000000E+00  1.0000000E+00
 21 -1  0  0 502 501  0.0000000E+00  0.0000000E+00 -2.3784130E+02  2.3784130E+02  0.0000000E+00  0.0000000E+00  1.0000000E+00
 39  2  1  2   0   0  1.7621460E-12  2.2168933E-12  8.0918342E+02  1.2848660E+03  9.9804953E+02  0.0000000E+00  1.0000000E+00
 23  2  3  3   0   0  2.8120957E+02  3.5627792E+02  6.4579482E+02  7.9454659E+02  9.0777534E+01  0.0000000E+00  1.0000000E+00
 23  2  3  3   0   0 -2.8120957E+02 -3.5627792E+02  1.6338860E+02  4.9031942E+02  8.7775389E+01  0.0000000E+00  1.0000000E+00
-11  1  4  4   0   0  2.8569536E+02  3.5672382E+02  6.4401095E+02  7.8969857E+02  1.2125920E-06  0.0000000E+00  1.0000000E+00
 11  1  4  4   0   0 -4.4857893E+00 -4.4590164E-01  1.7838630E+00  4.8480203E+00  2.1579186E-05  0.0000000E+00  1.0000000E+00
-13  1  5  5   0   0 -2.5571454E+02 -3.1657244E+02  1.7294707E+02  4.4217500E+02  2.3960771E-06  0.0000000E+00  1.0000000E+00
 13  1  5  5   0   0 -2.5495031E+01 -3.9705477E+01 -9.5584634E+00  4.8144426E+01  3.8146973E-06  0.0000000E+00  1.0000000E+00
</event>
<event>
9 100 1.0000000E+00 1.0000000E+03 7.8125000E-03 0.0000000E+00
 21 -1  0  0 501 502  0.0000000E+00  0.0000000E+00  5.6017174E+02  5.6017174E+02  0.0000000E+00  0.0000000E+00  1.0000000E+00
 21 -1  0  0 502 501  0.0000000E+00  0.0000000E+00 -4.9637974E+02  4.9637974E+02  0.0000000E+00  0.0000000E+00  1.0000000E+00
 39  2  1  2   0   0  5.6843419E-14  0.0000000E+00  6.3792000E+01  1.0565515E+03  1.0546239E+03  0.0000000E+00  1.0000000E+00
 23  2  3  3   0   0 -3.8565526E+02  1.8275971E+01  3.7912619E+02  5.5002768E+02  9.8639680E+01  0.0000000E+00  1.0000000E+00
 23  2  3  3   0   0  3.8565526E+02 -1.8275971E+01 -3.1533419E+02  5.0652380E+02  8.9814907E+01  0.0000000E+00  1.0000000E+00
-11  1  4  4   0   0 -1.7397608E+02  5.3759149E+01  1.9991551E+02  2.7041437E+02  4.6720309E-06  0.0000000E+00  1.0000000E+00
 11  1  4  4   0   0 -2.1167918E+02 -3.5483178E+01  1.7921068E+02  2.7961330E+02  4.6720309E-06  0.0000000E+00  1.0000000E+00
-13  1  5  5   0   0  8.4415129E+01  2.3122960E+01 -3.9663538E+01  9.6092567E+01  1.5728400E-05  0.0000000E+00  1.0000000E+00
 13  1  5  5   0   0  3.0124013E+02 -4.1398931E+01 -2.7567065E+02  4.1043123E+02  4.3962214E-06  0.0000000E+00  1.0000000E+00
</event>
<event>
9 100 1.0000000E+00 1.0000000E+03 7.8125000E-03 0.0000000E+00
 21 -1  0  0 501 502  0.0000000E+00  0.0000000E+00  1.5048312E+02  1.5048312E+02  0.0000000E+00  0.0000000E+00  1.0000000E+00
 21 -1  0  0 502 501  0.0000000E+00  0.0000000E+00 -1.6512381E+03  1.6512381E+03  0.0000000E+00  0.0000000E+00  1.0000000E+00
 39  2  1  2   0   0 -2.7284841E-12 -2.7000624E-12 -1.5007550E+03  1.8017212E+03  9.9696232E+02  0.0000000E+00  1.0000000E+00
 23  2  3  3   0   0  1.9902371E+02  1.9732599E+02 -1.4767581E+03  1.5057721E+03  8.9369884E+01  0.0000000E+00  1.0000000E+00
 23  2  3  3   0   0 -1.9902371E+02 -1.9732599E+02 -2.3996852E+01  2.9594915E+02  9.1989505E+01  0.0000000E+00  1.0000000E+00
-11  1  4  4   0   0  6.6804067E+01  2.0415525E+01 -2.6507551E+02  2.7412516E+02  2.1579186E-05  0.0000000E+00  1.0000000E+00
 11  1  4  4   0   0  1.3221964E+02  1.7691046E+02 -1.2116826E+03  1.2316469E+03  8.5299224E-06  0.0000000E+00  1.0000000E+00
-13  1  5  5   0   0 -1.2716499E+02 -1.2212243E+02  2.9856767E+01  1.7881904E+02  9.1969020E-06  0.0000000E+00  1.0000000E+00
 13  1  5  5   0   0 -7.1858719E+01 -7.5203558E+01 -5.3853619E+01  1.1713011E+02  1.3257445E-05  0.0000000E+00  1.0000000E+00
</event>
<event>
9 100 1.0000000E+00 1.0000000E+03 7.8125000E-03 0.0000000E+00
 21 -1  0  0 501 502  0.0000000E+00  0.0000000E+00  5.7884022E+02  5.7884022E+02  0.0000000E+00  0.0000000E+00  1.0000000E+00
 21 -1  0  0 502 501  0.0000000E+00  0.0000000E+00 -4.2903509E+02  4.2903509E+02  0.0000000E+00  0.0000000E+00  1.0000000E+00
 39  2  1  2   0   0 -1.5631940E-13  2.4868996E-14  1.4980513E+02  1.0078753E+03  9.9668002E+02  0.0000000E+00  1.0000000E+00
 23  2  3  3   0   0 -1.1040106E+02  2.0199633E+01  5.5723603E+02  5.7542559E+02  8.9477365E+01  0.0000000E+00  1.0000000E+00
 23  2  3  3   0   0  1.1040106E+02 -2.0199633E+01 -4.0743090E+02  4.3244972E+02  9.1740964E+01  0.0000000E+00  1.0000000E+00
-11  1  4  4   0   0 -8.5599546E+00  3.0102417E+01  5.8949222E+01  6.6741585E+01  7.6293945E-06  0.0000000E+00  1.0000000E+00
 11  1  4  4   0   0 -1.0184110E+02 -9.9027838E+00  4.9828680E+02  5.0868400E+02  1.7841613E-06  0.0000000E+00  1.0000000E+00
-13  1  5  5   0   0  4.5830667E+01 -4.4148552E+01 -2.8461818E+02  2.9164542E+02  2.6973983E-06  0.0000000E+00  1.0000000E+00
 13  1  5  5   0   0  6.4570392E+01  2.3948919E+01 -1.2281272E+02  1.4080430E+02  5.3947966E-06  0.0000000E+00  1.0000000E+00
</event>
<event>
9 100 1.0000000E+00 1.0000000E+03 7.8125000E-03 0.0000000E+00
 21 -1  0  0 501 502  0.0000000E+00  0.0000000E+00  9.8553969E+02  9.8553969E+02  0.0000000E+00  0.0000000E+00  1.0000000E+00
 21 -1  0  0 502 501  0.0000000E+00  0.0000000E+00 -2.6163384E+02  2.6163384E+02  0.0000000E+00  0.0000000E+00  1.0000000E+00
 39  2  1  2   0   0 -1.4210855E-12 -2.1316282E-13  7.2390586E+02  1.2471735E+03  1.0155797E+03  0.0000000E+00  1.0000000E+00
 23  2  3  3   0   0 -4.0213790E+02 -6.2459452E+01  3.5214845E+00  4.1490349E+02  8.0724400E+01  0.0000000E+00  1.0000000E+00
 23  2  3  3   0   0  4.0213790E+02  6.2459452E+01  7.2038437E+02  8.3227004E+02  9.0020555E+01  0.0000000E+00  1.0000000E+00
-11  1  4  4   0   0 -2.0233311E+02 -7.1358531E+01  1.0188729E+01  2.1478952E+02  6.3326955E-06  0.0000000E+00  1.0000000E+00
 11  1  4  4   0   0 -1.9980480E+02  8.8990798E+00 -6.6672449E+00  2.0011397E+02  4.4155739E-06  0.0000000E+00  1.0000000E+00
-13  1  5  5   0   0  3.3547236E+02  2.2884161E+01  6.2134926E+02  7.0649861E+02  1.3486992E-06  0.0000000E+00  1.0000000E+00
 13  1  5  5   0   0  6.6665540E+01  3.9575291E+01  9.9035115E+01  1.2577143E+02  2.2888184E-05  0.0000000E+00  1.0000000E+00
</event>
<event>
9 100 1.0000000E+00 1.0000000E+03 7.8125000E-03 0.0000000E+00
 21 -1  0  0 501 502  0.0000000E+00  0.0000000E+00  2.9500788E+02  2.9500788E+02  0.0000000E+00  0.0000000E+00  1.0000000E+00
 21 -1  0  0 502 501  0.0000000E+00  0.0000000E+00 -8.2848097E+02  8.2848097E+02  0.0000000E+00  0.0000000E+00  1.0000000E+00
 39  2  1  2   0   0  7.4606987E-14  5.4001248E-13 -5.3347309E+02  1.1234888E+03  9.8875359E+02  0.0000000E+00  1.0000000E+00
 23  2  3  3   0   0  8.8986584E+00  6.8010969E+01 -8.1360297E+02  8.2157878E+02  9.1308330E+01  0.0000000E+00  1.0000000E+00
 23  2  3  3   0   0 -8.8986584E+00 -6.8010969E+01  2.8012989E+02  3.0191007E+02  8.9287502E+01  0.0000000E+00  1.0000000E+00
-11  1  4  4   0   0  1.4437089E+00  6.8266813E+01 -8.1070628E+02  8.1357674E+02  3.6256090E-07  0.0000000E+00  1.0000000E+00
 11  1  4  4   0   0  7.4549495E+00 -2.5584438E-01 -2.8966918E+00  8.0020342E+00  2.1579186E-05  0.0000000E+00  1.0000000E+00
-13  1  5  5   0   0  9.2028210E+00 -7.4188641E+01  1.2532492E+02  1.4592800E+02  1.2651920E-05  0.0000000E+00  1.0000000E+00
 13  1  5  5   0   0 -1.8101479E+01  6.1776715E+00  1.5480497E+02  1.5598207E+02  1.2212990E-05  0.0000000E+00  1.0000000E+00
</event>
<event>
9 100 1.0000000E+00 1.0000000E+03 7.8125000E-03 0.0000000E+00
 21 -1  0  0 501 502  0.0000000E+00  0.0000000E+00  1.6091169E+03  1.6091169E+03  0.0000000E+00  0.0000000E+00  1.0000000E+00
 21 -1  0  0 502 501  0.0000000E+00  0.0000000E+00 -1.6643246E+02  1.6643246E+02  0.0000000E+00  0.0000000E+00  1.0000000E+00
 39  2  1  2   0   0  2.2737368E-13  1.5631940E-13  1.4426844E+03  1.7755494E+03  1.0350059E+03  0.0000000E+00  1.0000000E+00
 23  2  3  3   0   0 -1.3370732E+02 -9.7577210E+01  1.5483331E+03  1.5598656E+03  9.1904156E+01  0.0000000E+00  1.0000000E+00
 23  2  3  3   0   0  1.3370732E+02  9.7577210E+01 -1.0564864E+02  2.1568377E+02  8.9212632E+01  0.0000000E+00  1.0000000E+00
-11  1  4  4   0   0 -4.8976149E+01 -1.8552101E+01  8.8051385E+02  8.8207000E+02  7.6293945E-06  0.0000000E+00  1.0000000E+00
 11  1  4  4   0   0 -8.4731171E+01 -7.9025109E+01  6.6781923E+02  6.7779559E+02  1.0789593E-05  0.0000000E+00  1.0000000E+00
-13  1  5  5   0   0  1.0141679E+02  8.9362193E+01 -3.8216055E+01  1.4046862E+02  3.9320999E-06  0.0000000E+00  1.0000000E+00
 13  1  5  5   0   0  3.2290529E+01  8.2150175E+00 -6.7432584E+01  7.5215146E+01  6.2718136E-06  0.0000000E+00  1.0000000E+00
</event>
<event>
9 100 1.0000000E+00 1.0000000E+03 7.8125000E-03 0.0000000E+00
 21 -1  0  0 501 502  0.0000000E+00  0.0000000E+00  5.9294801E+02  5.9294801E+02  0.0000000E+00  0.0000000E+00  1.0000000E+00
 21 -1  0  0 502 501  0.0000000E+00  0.0000000E+00 -4.0727716E+02  4.0727716E+02  0.0000000E+00  0.0000000E+00  1.0000000E+00
 39  2  1  2   0   0  1.4210855E-14 -2.2737368E-13  1.8567085E+02  1.0002252E+03  9.8284116E+02  0.0000000E+00  1.0000000E+00
 23  2  3  3   0   0  1.7870800E+01 -4.7697530E+02  1.7982658E+01  4.8626701E+02  9.1145114E+01  0.0000000E+00  1.0000000E+00
 23  2  3  3   0   0 -1.7870800E+01  4.7697530E+02  1.6768819E+02  5.1395817E+02  9.0602793E+01  0.0000000E+00  1.0000000E+00
-11  1  4  4   0   0 -3.0134068E+01 -1.4534198E+02  2.7891768E+01  1.5103080E+02  7.0272840E-06  0.0000000E+00  1.0000000E+00
 11  1  4  4   0   0  4.8004868E+01 -3.3163332E+02 -9.9091101E+00  3.3523621E+02  2.9004872E-06  0.0000000E+00  1.0000000E+00
-13  1  5  5   0   0 -1.4802498E+01  2.9312014E+02  1.4894444E+02  3.2912456E+02  3.7470421E-06  0.0000000E+00  1.0000000E+00
 13  1  5  5   0   0 -3.0683026E+00  1.8385516E+02  1.8743754E+01  1.8483360E+02  3.8146973E-06  0.0000000E+00  1.0000000E+00
</event>
<event>
9 100 1.0000000E+00 1.0000000E+03 7.8125000E-03 0.0000000E+00
 21 -1  0  0 501 502  0.0000000E+00  0.0000000E+00  3.0720067E+02  3.0720067E+02  0.0000000E+00  0.0000000E+00  1.0000000E+00
 21 -1  0  0 502 501  0.0000000E+00  0.0000000E+00 -7.9962783E+02  7.9962783E+02  0.0000000E+00  0.0000000E+00  1.0000000E+00
 39  2  1  2   0   0 -2.2453150E-12 -4.2632564E-12 -4.9242715E+02  1.1068285E+03  9.9125417E+02  0.0000000E+00  1.0000000E+00
 23  2  3  3   0   0 -2.0689443E+02 -3.9924133E+02 -3.7155585E+01  4.6029894E+02  9.1080372E+01  0.0000000E+00  1.0000000E+00
 23  2  3  3   0   0  2.0689443E+02  3.9924133E+02 -4.5527157E+02  6.4652956E+02  9.2354377E+01  0.0000000E+00  1.0000000E+00
-11  1  4  4   0   0 -1.8981472E-01 -2.6972215E+01  1.5724240E+01  3.1221597E+01  1.4728017E-05  0.0000000E+00  1.0000000E+00
 11  1  4  4   0   0 -2.0670462E+02 -3.7226911E+02 -5.2879825E+01  4.2907734E+02  1.1055015E-06  0.0000000E+00  1.0000000E+00
-13  1  5  5   0   0  2.0386569E+02  3.3194166E+02 -3.6446038E+02  5.3345839E+02  5.7220459E-06  0.0000000E+00  1.0000000E+00
 13  1  5  5   0   0  3.0287479E+00  6.7299662E+01 -9.0811190E+01  1.1307117E+02  5.3947966E-06  0.0000000E+00  1.0000000E+00
</event>
<event>
9 100 1.0000000E+00 1.0000000E+03 7.8125000E-03 0.0000000E+00
 21 -1  0  0 501 502  0.0000000E+00  0.0000000E+00  3.5398792E+02  3.5398792E+02  0.0000000E+00  0.0000000E+00  1.0000000E+00
 21 -1  0  0 502 501  0.0000000E+00  0.0000000E+00 -7.3241397E+02  7.3241397E+02  0.0000000E+00  0.0000000E+00  1.0000000E+00
 39  2  1  2   0   0  1.1084467E-12 -2.8421709E-12 -3.7842605E+02  1.0864019E+03  1.0183628E+03  0.0000000E+00  1.0000000E+00
 23  2  3  3   0   0  1.1619077E+02 -2.9673266E+02 -6.0134620E+02  6.8661585E+02  9.0958786E+01  0.0000000E+00  1.0000000E+00
 23  2  3  3   0   0 -1.1619077E+02  2.9673266E+02  2.2292015E+02  3.9978604E+02  9.2654821E+01  0.0000000E+00  1.0000000E+00
-11  1  4  4   0   0 -1.0657857E+01 -5.9338409E+01 -8.3409101E+01  1.0291606E+02  1.0789593E-05  0.0000000E+00  1.0000000E+00
 11  1  4  4   0   0  1.2684862E+02 -2.3739425E+02 -5.1793710E+02  5.8369979E+02  1.6518124E-06  0.0000000E+00  1.0000000E+00
-13  1  5  5   0   0 -6.0119352E+01  2.5342378E+02  1.8455949E+02  3.1921803E+02  7.3871295E-06  0.0000000E+00  1.0000000E+00
 13  1  5  5   0   0 -5.6071415E+01  4.3308882E+01  3.8360662E+01  8.0568004E+01  2.1067354E-05  0.0000000E+00  1.0000000E+00
</event>
<event>
9 100 1.0000000E+00 1.0000000E+03 7.8125000E-03 0.0000000E+00
 21 -1  0  0 501 502  0.0000000E+00  0.0000000E+00  3.6929550E+02  3.6929550E+02  0.0000000E+00  0.0000000E+00  1.0000000E+00
 21 -1  0  0 502 501  0.0000000E+00  0.0000000E+00 -4.8924073E+02  4.8924073E+02  0.0000000E+00  0.0000000E+00  1.0000000E+00
 39  2  1  2   0   0  2.8421709E-13 -2.5579538E-13 -1.1994523E+02  8.5853622E+02  8.5011622E+02  0.0000000E+00  1.0000000E+00
 23  2  3  3   0   0 -2.0652190E+02  2.0878096E+02  2.3608246E+02  3.8812552E+02  9.3089766E+01  0.0000000E+00  1.0000000E+00
 23  2  3  3   0   0  2.0652190E+02 -2.0878096E+02 -3.5602769E+02  4.7041070E+02  9.1047943E+01  0.0000000E+00  1.0000000E+00
-11  1  4  4   0   0 -3.0603445E+00  3.5167267E+00 -8.3779595E+00  9.5876630E+00  9.7256079E-06  0.0000000E+00  1.0000000E+00
 11  1  4  4   0   0 -2.0346156E+02  2.0526423E+02  2.4446042E+02  3.7853786E+02  2.6656007E-07  0.0000000E+00  1.0000000E+00
-13  1  5  5   0   0  1.8489196E+02 -1.8186381E+02 -2.5526405E+02  3.6389451E+02  5.3947966E-06  0.0000000E+00  1.0000000E+00
 13  1  5  5   0   0  2.1629948E+01 -2.6917147E+01 -1.0076364E+02  1.0651619E+02  1.5728400E-05  0.0000000E+00  1.0000000E+00
</event>
<event>
9 100 1.0000000E+00 1.0000000E+03 7.8125000E-03 0.0000000E+00
 21 -1  0  0 501 502  0.0000000E+00  0.0000000E+00  5.3797619E+02  5.3797619E+02  0.0000000E+00  0.0000000E+00  1.0000000E+00
 21 -1  0  0 502 501  0.0000000E+00  0.0000000E+00 -5.1060074E+02  5.1060074E+02  0.0000000E+00  0.0000000E+00  1.0000000E+00
 39  2  1  2   0   0 -2.2737368E-13  3.9790393E-13  2.7375447E+01  1.0485769E+03  1.0482195E+03  0.0000000E+00  1.0000000E+00
 23  2  3  3   0   0  2.0213263E+02 -3.3632265E+02 -3.2147857E+02  5.1523598E+02  9.0272446E+01  0.0000000E+00  1.0000000E+00
 23  2  3  3   0   0 -2.0213263E+02  3.3632265E+02  3.4885402E+02  5.3334095E+02  9.3717216E+01  0.0000000E+00  1.0000000E+00
-11  1  4  4   0   0  1.2687950E+02 -2.8004804E+02 -2.2868812E+02  3.8317563E+02  3.0157830E-06  0.0000000E+00  1.0000000E+00
 11  1  4  4   0   0  7.5253135E+01 -5.6274612E+01 -9.2790455E+01  1.3206035E+02  1.0092740E-05  0.0000000E+00  1.0000000E+00
-13  1  5  5   0   0 -7.1580874E+01  2.0734313E+02  1.7595596E+02  2.8120365E+02  1.1757687E-05  0.0000000E+00  1.0000000E+00
 13  1  5  5   0   0 -1.3055176E+02  1.2897953E+02  1.7289806E+02  2.5213730E+02  1.2794884E-05  0.0000000E+00  1.0000000E+00
</event>
<event>
9 100 1.0000000E+00 1.0000000E+03 7.8125000E-03 0.0000000E+00
 21 -1  0  0 501 502  0.0000000E+00  0.0000000E+00  9.0583483E+02  9.0583483E+02  0.0000000E+00  0.0000000E+00  1.0000000E+00
 21 -1  0  0 502 501  0.0000000E+00  0.0000000E+00 -2.6967498E+02  2.6967498E+02  0.0000000E+00  0.0000000E+00  1.0000000E+00
 39  2  1  2   0   0  6.5369932E-13 -1.3642421E-12  6.3615985E+02  1.1755098E+03  9.8849581E+02  0.0000000E+00  1.0000000E+00
 23  2  3  3   0   0  1.8996012E+02 -3.8312826E+02  5.9230188E+02  7.3611403E+02  9.0389348E+01  0.0000000E+00  1.0000000E+00
 23  2  3  3   0   0 -1.8996012E+02  3.8312826E+02  4.3857970E+01  4.3939579E+02  9.0956151E+01  0.0000000E+00  1.0000000E+00
-11  1  4  4   0   0  7.9137335E+00 -4.3801614E+00  4.6021681E+01  4.6902112E+01  2.2888184E-05  0.0000000E+00  1.0000000E+00
 11  1  4  4   0   0  1.8204639E+02 -3.7874810E+02  5.4628020E+02  6.8921192E+02  4.5236745E-06  0.0000000E+00  1.0000000E+00
-13  1  5  5   0   0 -1.3539371E+02  3.3487334E+02  5.6076970E+01  3.6553555E+02  4.4794784E-06  0.0000000E+00  1.0000000E+00
 13  1  5  5   0   0 -5.4566408E+01  4.8254923E+01 -1.2219000E+01  7.3860236E+01  1.3836496E-05  0.0000000E+00  1.0000000E+00
</event>
<event>
9 100 1.0000000E+00 1.0000000E+03 7.8125000E-03 0.0000000E+00
 21 -1  0  0 501 502  0.0000000E+00  0.0000000E+00  2.2730973E+02  2.2730973E+02  0.0000000E+00  0.0000000E+00  1.0000000E+00
 21 -1  0  0 502 501  0.0000000E+00  0.0000000E+00 -9.1560343E+02  9.1560343E+02  0.0000000E+00  0.0000000E+00  1.0000000E+00
 39  2  1  2   0   0 -2.0463631E-12  7.6738615E-13 -6.8829370E+02  1.1429132E+03  9.1241562E+02  0.0000000E+00  1.0000000E+00
 23  2  3  3   0   0 -2.5650528E+02  1.0441775E+02 -7.8504947E+02  8.3718268E+02  8.8736399E+01  0.0000000E+00  1.0000000E+00
 23  2  3  3   0   0  2.5650528E+02 -1.0441775E+02  9.6755772E+01  3.0573047E+02  8.6089579E+01  0.0000000E+00  1.0000000E+00
-11  1  4  4   0   0 -3.4665325E+01 -7.9967145E+00 -1.7139882E+02  1.7505196E+02  0.0000000E+00  0.0000000E+00  1.0000000E+00
 11  1  4  4   0   0 -2.2183996E+02  1.1241446E+02 -6.1365065E+02  6.6213073E+02  5.3947966E-06  0.0000000E+00  1.0000000E+00
-13  1  5  5   0   0 -2.1132483E+00 -7.6611610E-01  1.5281131E+01  1.5445573E+01  1.8541548E-05  0.0000000E+00  1.0000000E+00
 13  1  5  5   0   0  2.5861853E+02 -1.0365163E+02  8.1474641E+01  2.9028490E+02  3.2820463E-06  0.0000000E+00  1.0000000E+00
</event>
<event>
9 100 1.0000000E+00 1.0000000E+03 7.8125000E-03 0.0000000E+00
 21 -1  0  0 501 502  0.0000000E+00  0.0000000E+00  2.5245392E+03  2.5245392E+03  0.0000000E+00  0.0000000E+00  1.0000000E+00
 21 -1  0  0 502 501  0.0000000E+00  0.0000000E+00 -9.9612533E+01  9.9612533E+01  0.0000000E+00  0.0000000E+00  1.0000000E+00
 39  2  1  2   0   0 -4.1211479E-13 -1.7053026E-12  2.4249266E+03  2.6241517E+03  1.0029471E+03  0.0000000E+00  1.0000000E+00
 23  2  3  3   0   0  5.0129279E+01  2.1033055E+02  5.2606907E+01  2.4029076E+02  9.0665746E+01  0.0000000E+00  1.0000000E+00
 23  2  3  3   0   0 -5.0129279E+01 -2.1033055E+02  2.3723197E+03  2.3838609E+03  9.0223031E+01  0.0000000E+00  1.0000000E+00
-11  1  4  4   0   0  2.6221035E+01  8.7026380E+01  6.8328770E+01  1.1370996E+02  1.1212012E-05  0.0000000E+00  1.0000000E+00
 11  1  4  4   0   0  2.3908243E+01  1.2330417E+02 -1.5721863E+01  1.2658081E+02  1.0490417E-05  0.0000000E+00  1.0000000E+00
-13  1  5  5   0   0 -2.3084838E+01 -7.2004655E+01  4.4361884E+02  4.5001695E+02  2.1579186E-05  0.0000000E+00  1.0000000E+00
 13  1  5  5   0   0 -2.7044441E+01 -1.3832590E+02  1.9287009E+03  1.9338440E+03  5.3947966E-06  0.0000000E+00  1.0000000E+00
</event>
<event>
9 100 1.0000000E+00 1.0000000E+03 7.8125000E-03 0.0000000E+00
 21 -1  0  0 501 502  0.0000000E+00  0.0000000E+00  2.1333478E+02  2.1333478E+02  0.0000000E+00  0.0000000E+00  1.0000000E+00
 21 -1  0  0 502 501  0.0000000E+00  0.0000000E+00 -1.1643813E+03  1.1643813E+03  0.0000000E+00  0.0000000E+00  1.0000000E+00
 39  2  1  2   0   0 -2.4726887E-12 -1.4068746E-12 -9.5104647E+02  1.3777160E+03  9.9680093E+02  0.0000000E+00  1.0000000E+00
 23  2  3  3   0   0  1.5386760E+02  8.7321224E+01  1.5576994E+02  2.5334584E+02  9.2841835E+01  0.0000000E+00  1.0000000E+00
 23  2  3  3   0   0 -1.5386760E+02 -8.7321224E+01 -1.1068164E+03  1.1243702E+03  8.8687859E+01  0.0000000E+00  1.0000000E+00
-11  1  4  4   0   0  5.4492016E+01 -1.4809638E+01  5.4904506E+01  7.8760459E+01  6.0315660E-06  0.0000000E+00  1.0000000E+00
 11  1  4  4   0   0  9.9375580E+01  1.0213086E+02  1.0086544E+02  1.7458538E+02  2.5231851E-06  0.0000000E+00  1.0000000E+00
-13  1  5  5   0   0 -1.3889743E+02 -1.0502649E+02 -9.4640148E+02  9.6228832E+02  9.5367432E-06  0.0000000E+00  1.0000000E+00
 13  1  5  5   0   0 -1.4970163E+01  1.7705270E+01 -1.6041493E+02  1.6208187E+02  1.8688124E-05  0.0000000E+00  1.0000000E+00
</event>
<event>
9 100 1.0000000E+00 1.0000000E+03 7.8125000E-03 0.0000000E+00
 21 -1  0  0 501 502  0.0000000E+00  0.0000000E+00  4.3116544E+02  4.3116544E+02  0.0000000E+00  0.0000000E+00  1.0000000E+00
 21 -1  0  0 502 501  0.0000000E+00  0.0000000E+00 -5.8606577E+02  5.8606577E+02  0.0000000E+00  0.0000000E+00  1.0000000E+00
 39  2  1  2   0   0 -5.6843419E-14 -1.1368684E-13 -1.5490033E+02  1.0172312E+03  1.0053682E+03  0.0000000E+00  1.0000000E+00
 23  2  3  3   0   0  3.2042263E+02  3.3250264E+02 -2.5641444E+02  5.3570255E+02  8.9443799E+01  0.0000000E+00  1.0000000E+00
 23  2  3  3   0   0 -3.2042263E+02 -3.3250264E+02  1.0151411E+02  4.8152866E+02  9.1302123E+01  0.0000000E+00  1.0000000E+00
-11  1  4  4   0   0  1.1744440E+02  1.7093565E+02 -1.4666300E+02  2.5401224E+02  5.2234894E-06  0.0000000E+00  1.0000000E+00
 11  1  4  4   0   0  2.0297822E+02  1.6156699E+02 -1.0975144E+02  2.8169031E+02  3.3036247E-06  0.0000000E+00  1.0000000E+00
-13  1  5  5   0   0 -2.3110884E+02 -2.6929245E+02  4.3042681E+01  3.5746663E+02  4.7683716E-06  0.0000000E+00  1.0000000E+00
 13  1  5  5   0   0 -8.9313789E+01 -6.3210183E+01  5.8471428E+01  1.2406203E+02  9.7139114E-06  0.0000000E+00  1.0000000E+00
</event>
<event>
9 100 1.0000000E+00 1.0000000E+03 7.8125000E-03 0.0000000E+00
 21 -1  0  0 501 502  0.0000000E+00  0.0000000E+00  3.1095869E+02  3.1095869E+02  0.0000000E+00  0.0000000E+00  1.0000000E+00
 21 -1  0  0 502 501  0.0000000E+00  0.0000000E+00 -7.9957253E+02  7.9957253E+02  0.0000000E+00  0.0000000E+00  1.0000000E+00
 39  2  1  2   0   0 -8.5265128E-14  2.2204460E-15 -4.8861384E+02  1.1105312E+03  9.9726431E+02  0.0000000E+00  1.0000000E+00
 23  2  3  3   0   0  6.9614718E+01 -2.1631717E+00  2.9584455E+02  3.1760188E+02  9.2174123E+01  0.0000000E+00  1.0000000E+00
 23  2  3  3   0   0 -6.9614718E+01  2.1631717E+00 -7.8445839E+02  7.9292933E+02  9.2255460E+01  0.0000000E+00  1.0000000E+00
-11  1  4  4   0   0  6.6910217E+01 -3.5821822E+00  9.2420862E+01  1.1415527E+02  2.6973983E-06  0.0000000E+00  1.0000000E+00
 11  1  4  4   0   0  2.7045004E+00  1.4190105E+00  2.0342369E+02  2.0344662E+02  1.9073486E-06  0.0000000E+00  1.0000000E+00
-13  1  5  5   0   0 -9.1976823E+01  8.4370675E+00 -6.2373573E+02  6.3053722E+02  5.0463701E-06  0.0000000E+00  1.0000000E+00
 13  1  5  5   0   0  2.2362105E+01 -6.2738958E+00 -1.6072266E+02  1.6239211E+02  2.1579186E-05  0.0000000E+00  1.0000000E+00
</event>
<event>
9 100 1.0000000E+00 1.0000000E+03 7.8125000E-03 0.0000000E+00
 21 -1  0  0 501 502  0.0000000E+00  0.0000000E+00  1.4543942E+02  1.4543942E+02  0.0000000E+00  0.0000000E+00  1.0000000E+00
 21 -1  0  0 502 501  0.0000000E+00  0.0000000E+00 -1.7055350E+03  1.7055350E+03  0.0000000E+00  0.0000000E+00  1.0000000E+00
 39  2  1  2   0   0 -1.5063506E-12 -5.0590643E-12 -1.5600956E+03  1.8509744E+03  9.9609643E+02  0.0000000E+00  1.0000000E+00
 23  2  3  3   0   0  1.4236758E+02  4.6663299E+02 -6.8806161E+02  8.4769665E+02  8.4533836E+01  0.0000000E+00  1.0000000E+00
 23  2  3  3   0   0 -1.4236758E+02 -4.6663299E+02 -8.7203395E+02  1.0032777E+03  9.0045306E+01  0.0000000E+00  1.0000000E+00
-11  1  4  4   0   0  1.0508408E+02  3.5463068E+02 -4.5436042E+02  5.8587454E+02  8.9462581E-06  0.0000000E+00  1.0000000E+00
 11  1  4  4   0   0  3.7283506E+01  1.1200231E+02 -2.3370118E+02  2.6182212E+02  1.0789593E-05  0.0000000E+00  1.0000000E+00
-13  1  5  5   0   0 -3.4357627E+01 -2.6620757E+02 -4.6780369E+02  5.3933960E+02  2.0893957E-05  0.0000000E+00  1.0000000E+00
 13  1  5  5   0   0 -1.0800995E+02 -2.0042542E+02 -4.0423026E+02  4.6393815E+02  1.8688124E-05  0.0000000E+00  1.0000000E+00
</event>
<event>
9 100 1.0000000E+00 1.0000000E+03 7.8125000E-03 0.0000000E+00
 21 -1  0  0 501 502  0.0000000E+00  0.0000000E+00  2.7761476E+02  2.7761476E+02  0.0000000E+00  0.0000000E+00  1.0000000E+00
 21 -1  0  0 502 501  0.0000000E+00  0.0000000E+00 -1.1823087E+03  1.1823087E+03  0.0000000E+00  0.0000000E+00  1.0000000E+00
 39  2  1  2   0   0 -4.9737992E-14  5.4001248E-13 -9.0469390E+02  1.4599234E+03  1.1458208E+03  0.0000000E+00  1.0000000E+00
 23  2  3  3   0   0 -9.8747998E+00  1.0025802E+02 -1.1615903E+03  1.1695076E+03  9.1141918E+01  0.0000000E+00  1.0000000E+00
 23  2  3  3   0   0  9.8747998E+00 -1.0025802E+02  2.5689637E+02  2.9041584E+02  9.0534152E+01  0.0000000E+00  1.0000000E+00
-11  1  4  4   0   0 -5.4283542E+00  9.6744678E+01 -5.9111191E+02  5.9900108E+02  7.6293945E-06  0.0000000E+00  1.0000000E+00
 11  1  4  4   0   0 -4.4464456E+00  3.5133404E+00 -5.7047835E+02  5.7050650E+02  2.2888184E-05  0.0000000E+00  1.0000000E+00
-13  1  5  5   0   0 -2.4160802E+01 -6.9182251E+01  8.3950849E+01  1.1143461E+02  4.6720309E-06  0.0000000E+00  1.0000000E+00
 13  1  5  5   0   0  3.4035602E+01 -3.1075767E+01  1.7294552E+02  1.7898122E+02  1.9073486E-06  0.0000000E+00  1.0000000E+00
</event>
<event>
9 100 1.0000000E+00 1.0000000E+03 7.8125000E-03 0.0000000E+00
 21 -1  0  0 501 502  0.0000000E+00  0.0000000E+00  2.6273361E+02  2.6273361E+02  0.0000000E+00  0.0000000E+00  1.0000000E+00
 21 -1  0  0 502 501  0.0000000E+00  0.0000000E+00 -9.6515649E+02  9.6515649E+02  0.0000000E+00  0.0000000E+00  1.0000000E+00
 39  2  1  2   0   0 -1.5631940E-13  1.7621460E-12 -7.0242288E+02  1.2278901E+03  1.0071327E+03  0.0000000E+00  1.0000000E+00
 23  2  3  3   0   0  3.3989332E+01 -3.8826699E+02  2.1516947E+01  4.0045699E+02  8.9422022E+01  0.0000000E+00  1.0000000E+00
 23  2  3  3   0   0 -3.3989332E+01  3.8826699E+02 -7.2393983E+02  8.2743311E+02  9.3006151E+01  0.0000000E+00  1.0000000E+00
-11  1  4  4   0   0  5.4520097E+01 -2.2794636E+02  4.0032593E+01  2.3777004E+02  7.4140128E-06  0.0000000E+00  1.0000000E+00
 11  1  4  4   0   0 -2.0530765E+01 -1.6032062E+02 -1.8515646E+01  1.6268695E+02  1.0081470E-05  0.0000000E+00  1.0000000E+00
-13  1  5  5   0   0 -2.4075867E+01  8.1612350E+01 -9.4279918E+01  1.2699971E+02  2.7508173E-05  0.0000000E+00  1.0000000E+00
 13  1  5  5   0   0 -9.9134648E+00  3.0665464E+02 -6.2965991E+02  7.0043340E+02  5.2234894E-06  0.0000000E+00  1.0000000E+00
</event>
<event>
9 100 1.0000000E+00 1.0000000E+03 7.8125000E-03 0.0000000E+00
 21 -1  0  0 501 502  0.0000000E+00  0.0000000E+00  1.2386763E+03  1.2386763E+03  0.0000000E+00  0.0000000E+00  1.0000000E+00
 21 -1  0  0 502 501  0.0000000E+00  0.0000000E+00 -2.0193302E+02  2.0193302E+02  0.0000000E+00  0.0000000E+00  1.0000000E+00
 39  2  1  2   0   0  1.1937118E-12  2.1316282E-12  1.0367433E+03  1.4406093E+03  1.0002593E+03  0.0000000E+00  1.0000000E+00
 23  2  3  3   0   0  1.2873101E+02  2.2632315E+02  1.1196198E+03  1.1526995E+03  8.5871003E+01  0.0000000E+00  1.0000000E+00
 23  2  3  3   0   0 -1.2873101E+02 -2.2632315E+02 -8.2876529E+01  2.8790979E+02  9.0717632E+01  0.0000000E+00  1.0000000E+00
-11  1  4  4   0   0  7.2218883E+01  6.6253461E+01  5.3631124E+02  5.4519248E+02  1.5258789E-05  0.0000000E+00  1.0000000E+00
 11  1  4  4   0   0  5.6512131E+01  1.6006969E+02  5.8330858E+02  6.0750705E+02  1.0789593E-05  0.0000000E+00  1.0000000E+00
-13  1  5  5   0   0 -1.1279208E+02 -2.0817488E+02 -4.2048775E+01  2.4047231E+02  2.0784850E-06  0.0000000E+00  1.0000000E+00
 13  1  5  5   0   0 -1.5938936E+01 -1.8148272E+01 -4.0827754E+01  4.7437485E+01  8.2452853E-06  0.0000000E+00  1.0000000E+00
</event>
<event>
9 100 1.0000000E+00 1.0000000E+03 7.8125000E-03 0.0000000E+00
 21 -1  0  0 501 502  0.0000000E+00  0.0000000E+00  8.9522820E+02  8.9522820E+02  0.0000000E+00  0.0000000E+00  1.0000000E+00
 21 -1  0  0 502 501  0.0000000E+00  0.0000000E+00 -2.7831973E+02  2.7831973E+02  0.0000000E+00  0.0000000E+00  1.0000000E+00
 39  2  1  2   0   0  6.8212103E-13  1.1937118E-12  6.1690848E+02  1.1735479E+03  9.9831792E+02  0.0000000E+00  1.0000000E+00
 23  2  3  3   0   0 -1.9413754E+02 -3.4822687E+02 -2.8484588E+01  4.0996572E+02  9.1154700E+01  0.0000000E+00  1.0000000E+00
 23  2  3  3   0   0  1.9413754E+02  3.4822687E+02  6.4539307E+02  7.6358221E+02  8.7030136E+01  0.0000000E+00  1.0000000E+00
-11  1  4  4   0   0 -1.7718865E+02 -3.4881945E+02 -2.2174361E+01  3.9187055E+02  2.3797112E-06  0.0000000E+00  1.0000000E+00
 11  1  4  4   0   0 -1.6948892E+01  5.9257972E-01 -6.3102274E+00  1.8095166E+01  1.6870536E-05  0.0000000E+00  1.0000000E+00
-13  1  5  5   0   0  1.9300061E+02  3.3148042E+02  6.3964937E+02  7.4584168E+02  1.7459176E-06  0.0000000E+00  1.0000000E+00
 13  1  5  5   0   0  1.1369297E+00  1.6746451E+01  5.7436996E+00  1.7740527E+01  2.8546580E-05  0.0000000E+00  1.0000000E+00
</event>
<event>
9 100 1.0000000E+00 1.0000000E+03 7.8125000E-03 0.0000000E+00
 21 -1  0  0 501 502  0.0000000E+00  0.0000000E+00  3.8885415E+02  3.8885415E+02  0.0000000E+00  0.0000000E+00  1.0000000E+00
 21 -1  0  0 502 501  0.0000000E+00  0.0000000E+00 -6.4559541E+02  6.4559541E+02  0.0000000E+00  0.0000000E+00  1.0000000E+00
 39  2  1  2   0   0  8.5265128E-13  6.8212103E-13 -2.5674127E+02  1.0344496E+03  1.0020827E+03  0.0000000E+00  1.0000000E+00
 23  2  3  3   0   0  1.8323229E+02  1.4407321E+02  3.1992902E+02  4.0641028E+02  9.2106331E+01  0.0000000E+00  1.0000000E+00
 23  2  3  3   0   0 -1.8323229E+02 -1.4407321E+02 -5.7667028E+02  6.2803928E+02  8.6911248E+01  0.0000000E+00  1.0000000E+00
-11  1  4  4   0   0 -9.2276180E+00  2.8859941E+00  4.0356045E+00  1.0476832E+01  1.3754087E-05  0.0000000E+00  1.0000000E+00
 11  1  4  4   0   0  1.9245990E+02  1.4118721E+02  3.1589341E+02  3.9593344E+02  1.8905105E-06  0.0000000E+00  1.0000000E+00
-13  1  5  5   0   0 -1.0328182E+02 -1.3097895E+02 -4.1311621E+02  4.4551950E+02  8.7405695E-06  0.0000000E+00  1.0000000E+00
 13  1  5  5   0   0 -7.9950467E+01 -1.3094253E+01 -1.6355407E+02  1.8251978E+02  1.6184390E-05  0.0000000E+00  1.0000000E+00
</event>
<event>
9 100 1.0000000E+00 1.0000000E+03 7.8125000E-03 0.0000000E+00
 21 -1  0  0 501 502  0.0000000E+00  0.0000000E+00  5.2296519E+02  5.2296519E+02  0.0000000E+00  0.0000000E+00  1.0000000E+00
 21 -1  0  0 502 501  0.0000000E+00  0.0000000E+00 -5.3550717E+02  5.3550717E+02  0.0000000E+00  0.0000000E+00  1.0000000E+00
 39  2  1  2   0   0  1.4210855E-13 -7.9580786E-13 -1.2541981E+01  1.0584724E+03  1.0583981E+03  0.0000000E+00  1.0000000E+00
 23  2  3  3   0   0  5.9453972E+01 -3.2710422E+02  3.9563395E+02  5.2411736E+02  8.7411907E+01  0.0000000E+00  1.0000000E+00
 23  2  3  3   0   0 -5.9453972E+01  3.2710422E+02 -4.0817593E+02  5.3435501E+02  9.1628311E+01  0.0000000E+00  1.0000000E+00
-11  1  4  4   0   0  1.4014125E+01 -1.2157027E+02  8.5461591E+01  1.4926289E+02  6.6072495E-06  0.0000000E+00  1.0000000E+00
 11  1  4  4   0   0  4.5439847E+01 -2.0553394E+02  3.1017235E+02  3.7485447E+02  3.5683226E-06  0.0000000E+00  1.0000000E+00
-13  1  5  5   0   0 -8.1483563E+01  2.2242376E+02 -2.9963358E+02  3.8195835E+02  2.3360155E-06  0.0000000E+00  1.0000000E+00
 13  1  5  5   0   0  2.2029592E+01  1.0468046E+02 -1.0854235E+02  1.5239666E+02  3.8146973E-06  0.0000000E+00  1.0000000E+00
</event>
<event>
9 100 1.0000000E+00 1.0000000E+03 7.8125000E-03 0.0000000E+00
 21 -1  0  0 501 502  0.0000000E+00  0.0000000E+00  2.6730715E+02  2.6730715E+02  0.0000000E+00  0.0000000E+00  1.0000000E+00
 21 -1  0  0 502 501  0.0000000E+00  0.0000000E+00 -9.4055589E+02  9.4055589E+02  0.0000000E+00  0.0000000E+00  1.0000000E+00
 39  2  1  2   0   0  2.1316282E-12  1.4495072E-12 -6.7324874E+02  1.2078630E+03  1.0028306E+03  0.0000000E+00  1.0000000E+00
 23  2  3  3   0   0 -2.3775801E+02 -1.6757453E+02  1.4288010E+02  3.3663227E+02  9.1084970E+01  0.0000000E+00  1.0000000E+00
 23  2  3  3   0   0  2.3775801E+02  1.6757453E+02 -8.1612884E+02  8.7123076E+02  9.1469480E+01  0.0000000E+00  1.0000000E+00
-11  1  4  4   0   0 -1.5914311E+02 -1.3563057E+02  5.8879240E+01  2.1723017E+02  4.4731290E-06  0.0000000E+00  1.0000000E+00
 11  1  4  4   0   0 -7.8614894E+01 -3.1943963E+01  8.4000857E+01  1.1940210E+02  7.0080464E-06  0.0000000E+00  1.0000000E+00
-13  1  5  5   0   0  2.3687191E+02  1.5899070E+02 -8.1370745E+02  8.6226804E+02  8.2536831E-07  0.0000000E+00  1.0000000E+00
 13  1  5  5   0   0  8.8609469E-01  8.5838310E+00 -2.4213821E+00  8.9627233E+00  1.0789593E-05  0.0000000E+00  1.0000000E+00
</event>
<event>
9 100 1.0000000E+00 1.0000000E+03 7.8125000E-03 0.0000000E+00
 21 -1  0  0 501 502  0.0000000E+00  0.0000000E+00  4.5424111E+03  4.5424111E+03  0.0000000E+00  0.0000000E+00  1.0000000E+00
 21 -1  0  0 502 501  0.0000000E+00  0.0000000E+00 -5.6022985E+01  5.6022985E+01  0.0000000E+00  0.0000000E+00  1.0000000E+00
 39  2  1  2   0   0 -4.5702109E-11  4.5758952E-11  4.4863881E+03  4.5984341E+03  1.0089191E+03  0.0000000E+00  1.0000000E+00
 23  2  3  3   0   0 -2.0547869E+02  2.0566201E+02  4.0342466E+02  5.0413442E+02  8.2955975E+01  0.0000000E+00  1.0000000E+00
 23  2  3  3   0   0  2.0547869E+02 -2.0566201E+02  4.0829634E+03  4.0942997E+03  9.0448217E+01  0.0000000E+00  1.0000000E+00
-11  1  4  4   0   0 -2.5280649E+00  4.0721398E+01  5.3910878E+01  6.7609217E+01  3.4962278E-05  0.0000000E+00  1.0000000E+00
 11  1  4  4   0   0 -2.0295063E+02  1.6494061E+02  3.4951378E+02  4.3652520E+02  8.0921949E-06  0.0000000E+00  1.0000000E+00
-13  1  5  5   0   0  9.4290750E+00  9.4116336E+00  2.0419740E+02  2.0463153E+02  1.2207031E-04  0.0000000E+00  1.0000000E+00
 13  1  5  5   0   0  1.9604962E+02 -2.1507365E+02  3.8787660E+03  3.8896681E+03  7.1366451E-06  0.0000000E+00  1.0000000E+00
</event>
<event>
9 100 1.0000000E+00 1.0000000E+03 7.8125000E-03 0.0000000E+00
 21 -1  0  0 501 502  0.0000000E+00  0.0000000E+00  6.4687270E+02  6.4687270E+02  0.0000000E+00  0.0000000E+00  1.0000000E+00
 21 -1  0  0 502 501  0.0000000E+00  0.0000000E+00 -3.8111569E+02  3.8111569E+02  0.0000000E+00  0.0000000E+00  1.0000000E+00
 39  2  1  2   0   0 -1.1368684E-12 -6.5369932E-13  2.6575701E+02  1.0279884E+03  9.9304247E+02  0.0000000E+00  1.0000000E+00
 23  2  3  3   0   0  2.5208883E+02  1.4451867E+02  5.3891399E+02  6.1901500E+02  9.1196829E+01  0.0000000E+00  1.0000000E+00
 23  2  3  3   0   0 -2.5208883E+02 -1.4451867E+02 -2.7315697E+02  4.0897339E+02  9.0609505E+01  0.0000000E+00  1.0000000E+00
-11  1  4  4   0   0  1.5424907E+02  1.3221747E+02  4.0030602E+02  4.4890884E+02  2.6973983E-06  0.0000000E+00  1.0000000E+00
 11  1  4  4   0   0  9.7839755E+01  1.2301198E+01  1.3860796E+02  1.7010615E+02  0.0000000E+00  0.0000000E+00  1.0000000E+00
-13  1  5  5   0   0 -1.3237893E+02 -4.7489771E+01 -7.9721475E+01  1.6166315E+02  1.1444092E-05  0.0000000E+00  1.0000000E+00
 13  1  5  5   0   0 -1.1970990E+02 -9.7028900E+01 -1.9343550E+02  2.4731025E+02  7.3871295E-06  0.0000000E+00  1.0000000E+00
</event>
<event>
9 100 1.0000000E+00 1.0000000E+03 7.8125000E-03 0.0000000E+00
 21 -1  0  0 501 502  0.0000000E+00  0.0000000E+00  1.5588966E+02  1.5588966E+02  0.0000000E+00  0.0000000E+00  1.0000000E+00
 21 -1  0  0 502 501  0.0000000E+00  0.0000000E+00 -1.6501901E+03  1.6501901E+03  0.0000000E+00  0.0000000E+00  1.0000000E+00
 39  2  1  2   0   0 -2.2168933E-12 -3.2116532E-12 -1.4943004E+03  1.8060797E+03  1.0143916E+03  0.0000000E+00  1.0000000E+00
 23  2  3  3   0   0  1.7602987E+02  2.5254187E+02 -4.5119510E+01  3.2402207E+02  9.0502057E+01  0.0000000E+00  1.0000000E+00
 23  2  3  3   0   0 -1.7602987E+02 -2.5254187E+02 -1.4491809E+03  1.4820577E+03  4.0071595E+01  0.0000000E+00  1.0000000E+00
-11  1  4  4   0   0  8.3202961E+01  6.0433907E+01  1.0955635E+01  1.0341671E+02  1.1680077E-05  0.0000000E+00  1.0000000E+00
 11  1  4  4   0   0  9.2826905E+01  1.9210796E+02 -5.6075145E+01  2.2060536E+02  6.5489205E-06  0.0000000E+00  1.0000000E+00
-13  1  5  5   0   0 -1.4779008E+02 -1.9251690E+02 -1.0766396E+03  1.1036564E+03  9.3440618E-06  0.0000000E+00  1.0000000E+00
 13  1  5  5   0   0 -2.8239788E+01 -6.0024970E+01 -3.7254131E+02  3.7840125E+02  2.6428998E-05  0.0000000E+00  1.0000000E+00
</event>
<event>
9 100 1.0000000E+00 1.0000000E+03 7.8125000E-03 0.0000000E+00
 21 -1  0  0 501 502  0.0000000E+00  0.0000000E+00  1.4213097E+03  1.4213097E+03  0.0000000E+00  0.0000000E+00  1.0000000E+00
 21 -1  0  0 502 501  0.0000000E+00  0.0000000E+00 -1.7732731E+02  1.7732731E+02  0.0000000E+00  0.0000000E+00  1.0000000E+00
 39  2  1  2   0   0  4.5474735E-13 -5.6843419E-14  1.2439824E+03  1.5986370E+03  1.0040658E+03  0.0000000E+00  1.0000000E+00
 23  2  3  3   0   0 -4.7624693E+02  6.2031150E+01  4.4615968E+02  6.6305031E+02  9.9590397E+01  0.0000000E+00  1.0000000E+00
 23  2  3  3   0   0  4.7624693E+02 -6.2031150E+01  7.9782271E+02  9.3558670E+02  9.0235160E+01  0.0000000E+00  1.0000000E+00
-11  1  4  4   0   0 -2.9870013E+02  3.3316305E+01  3.4165834E+02  4.5504083E+02  3.8146973E-06  0.0000000E+00  1.0000000E+00
 11  1  4  4   0   0 -1.7754680E+02  2.8714845E+01  1.0450134E+02  2.0800947E+02  6.6072495E-06  0.0000000E+00  1.0000000E+00
-13  1  5  5   0   0  9.8776958E+01 -6.7650209E+00  1.0265987E+02  1.4262434E+02  2.6428998E-05  0.0000000E+00  1.0000000E+00
 13  1  5  5   0   0  3.7746998E+02 -5.5266129E+01  6.9516284E+02  7.9296236E+02  4.4731290E-06  0.0000000E+00  1.0000000E+00
</event>
<event>
9 100 1.0000000E+00 1.0000000E+03 7.8125000E-03 0.0000000E+00
 21 -1  0  0 501 502  0.0000000E+00  0.0000000E+00  1.2009677E+02  1.2009677E+02  0.0000000E+00  0.0000000E+00  1.0000000E+00
 21 -1  0  0 502 501  0.0000000E+00  0.0000000E+00 -2.0280660E+03  2.0280660E+03  0.0000000E+00  0.0000000E+00  1.0000000E+00
 39  2  1  2   0   0  2.2737368E-13 -5.6843419E-14 -1.9079693E+03  2.1481628E+03  9.8704445E+02  0.0000000E+00  1.0000000E+00
 23  2  3  3   0   0 -3.4856540E+02  3.1536577E+02 -1.2147679E+03  1.3056114E+03  8.9479639E+01  0.0000000E+00  1.0000000E+00
 23  2  3  3   0   0  3.4856540E+02 -3.1536577E+02 -6.9320138E+02  8.4255145E+02  9.1713572E+01  0.0000000E+00  1.0000000E+00
-11  1  4  4   0   0 -6.0214898E+01  7.0266402E+01 -3.4258417E+02  3.5486211E+02  2.4126264E-05  0.0000000E+00  1.0000000E+00
 11  1  4  4   0   0 -2.8835051E+02  2.4509937E+02 -8.7218371E+02  9.5074925E+02  1.0789593E-05  0.0000000E+00  1.0000000E+00
-13  1  5  5   0   0  2.1271188E+02 -2.4972525E+02 -4.7368322E+02  5.7618125E+02  4.6720309E-06  0.0000000E+00  1.0000000E+00
 13  1  5  5   0   0  1.3585352E+02 -6.5640523E+01 -2.1951816E+02  2.6637020E+02  1.2063132E-05  0.0000000E+00  1.0000000E+00
</event>
<event>
9 100 1.0000000E+00 1.0000000E+03 7.8125000E-03 0.0000000E+00
 21 -1  0  0 501 502  0.0000000E+00  0.0000000E+00  5.1787140E+02  5.1787140E+02  0.0000000E+00  0.0000000E+00  1.0000000E+00
 21 -1  0  0 502 501  0.0000000E+00  0.0000000E+00 -4.8232893E+02  4.8232893E+02  0.0000000E+00  0.0000000E+00  1.0000000E+00
 39  2  1  2   0   0 -2.8421709E-13 -1.1368684E-13  3.5542473E+01  1.0002003E+03  9.9956863E+02  0.0000000E+00  1.0000000E+00
 23  2  3  3   0   0  4.3541770E+02  2.2610045E+02  4.7756993E+01  5.0112890E+02  9.0218898E+01  0.0000000E+00  1.0000000E+00
 23  2  3  3   0   0 -4.3541770E+02 -2.2610045E+02 -1.2214520E+01  4.9907144E+02  9.0626236E+01  0.0000000E+00  1.0000000E+00
-11  1  4  4   0   0  8.3088603E+01  1.7563566E+01  3.4004718E+01  9.1479591E+01  1.6622751E-05  0.0000000E+00  1.0000000E+00
 11  1  4  4   0   0  3.5232910E+02  2.0853689E+02  1.3752275E+01  4.0964930E+02  4.9783261E-06  0.0000000E+00  1.0000000E+00
-13  1  5  5   0   0 -1.1814590E+02 -7.3367288E+01 -4.3102332E+01  1.4559884E+02  1.3512256E-05  0.0000000E+00  1.0000000E+00
 13  1  5  5   0   0 -3.1727181E+02 -1.5273316E+02  3.0887812E+01  3.5347260E+02  7.5394575E-06  0.0000000E+00  1.0000000E+00
</event>
<event>
9 100 1.0000000E+00 1.0000000E+03 7.8125000E-03 0.0000000E+00
 21 -1  0  0 501 502  0.0000000E+00  0.0000000E+00  1.8184639E+02  1.8184639E+02  0.0000000E+00  0.0000000E+00  1.0000000E+00
 21 -1  0  0 502 501  0.0000000E+00  0.0000000E+00 -1.3388275E+03  1.3388275E+03  0.0000000E+00  0.0000000E+00  1.0000000E+00
 39  2  1  2   0   0  2.8705927E-12  1.3500312E-12 -1.1569811E+03  1.5206739E+03  9.8683523E+02  0.0000000E+00  1.0000000E+00
 23  2  3  3   0   0  1.5490496E+02  7.4411758E+01  1.1978234E+02  2.2908967E+02  9.2744882E+01  0.0000000E+00  1.0000000E+00
 23  2  3  3   0   0 -1.5490496E+02 -7.4411758E+01 -1.2767634E+03  1.2915842E+03  9.2370135E+01  0.0000000E+00  1.0000000E+00
-11  1  4  4   0   0  1.0277050E+02  6.3764440E+01  1.2701860E+02  1.7538930E+02  9.3486232E-07  0.0000000E+00  1.0000000E+00
 11  1  4  4   0   0  5.2134457E+01  1.0647318E+01 -7.2362614E+00  5.3700377E+01  3.3036247E-06  0.0000000E+00  1.0000000E+00
-13  1  5  5   0   0 -1.6220665E+02 -7.7183650E+01 -1.2633946E+03  1.2761012E+03  2.3841858E-07  0.0000000E+00  1.0000000E+00
 13  1  5  5   0   0  7.3016973E+00  2.7718922E+00 -1.3368800E+01  1.5482990E+01  1.5258789E-05  0.0000000E+00  1.0000000E+00
</event>
<event>
9 100 1.0000000E+00 1.0000000E+03 7.8125000E-03 0.0000000E+00
 21 -1  0  0 501 502  0.0000000E+00  0.0000000E+00  9.5462097E+02  9.5462097E+02  0.0000000E+00  0.0000000E+00  1.0000000E+00
 21 -1  0  0 502 501  0.0000000E+00  0.0000000E+00 -2.4677053E+02  2.4677053E+02  0.0000000E+00  0.0000000E+00  1.0000000E+00
 39  2  1  2   0   0  2.5011104E-12 -1.3926638E-12  7.0785044E+02  1.2013915E+03  9.7071585E+02  0.0000000E+00  1.0000000E+00
 23  2  3  3   0   0  3.8348778E+02 -2.1098760E+02  5.8718105E+02  7.3810160E+02  9.1835395E+01  0.0000000E+00  1.0000000E+00
 23  2  3  3   0   0 -3.8348778E+02  2.1098760E+02  1.2066939E+02  4.6328989E+02  9.2183388E+01  0.0000000E+00  1.0000000E+00
-11  1  4  4   0   0  2.9688681E+02 -1.1645408E+02  4.1122548E+02  5.2039382E+02  2.6973983E-06  0.0000000E+00  1.0000000E+00
 11  1  4  4   0   0  8.6600969E+01 -9.4533528E+01  1.7595557E+02  2.1770778E+02  5.3947966E-06  0.0000000E+00  1.0000000E+00
-13  1  5  5   0   0 -2.4743102E+02  8.7724571E+01  5.4350610E+01  2.6808898E+02  2.5231851E-06  0.0000000E+00  1.0000000E+00
 13  1  5  5   0   0 -1.3605676E+02  1.2326303E+02  6.6318784E+01  1.9520092E+02  1.7841613E-06  0.0000000E+00  1.0000000E+00
</event>
<event>
9 100 1.0000000E+00 1.0000000E+03 7.8125000E-03 0.0000000E+00
 21 -1  0  0 501 502  0.0000000E+00  0.0000000E+00  8.9301578E+02  8.9301578E+02  0.0000000E+00  0.0000000E+00  1.0000000E+00
 21 -1  0  0 502 501  0.0000000E+00  0.0000000E+00 -2.7755098E+02  2.7755098E+02  0.0000000E+00  0.0000000E+00  1.0000000E+00
 39  2  1  2   0   0  1.1368684E-13  7.1054274E-15  6.1546480E+02  1.1705668E+03  9.9570558E+02  0.0000000E+00  1.0000000E+00
 23  2  3  3   0   0  4.6399050E+02  4.8916515E+01  1.4010272E+02  4.9590203E+02  9.2790337E+01  0.0000000E+00  1.0000000E+00
 23  2  3  3   0   0 -4.6399050E+02 -4.8916515E+01  4.7536208E+02  6.7466472E+02  1.0734700E+02  0.0000000E+00  1.0000000E+00
-11  1  4  4   0   0  1.0827790E+02 -1.0661549E+01 -4.8520986E-01  1.0880261E+02  1.5139110E-05  0.0000000E+00  1.0000000E+00
 11  1  4  4   0   0  3.5571260E+02  5.9578064E+01  1.4058793E+02  3.8709943E+02  3.5437635E-06  0.0000000E+00  1.0000000E+00
-13  1  5  5   0   0 -3.2741629E+02 -9.6804087E+00  3.8833353E+02  5.0803353E+02  5.4784419E-06  0.0000000E+00  1.0000000E+00
 13  1  5  5   0   0 -1.3657421E+02 -3.9236106E+01  8.7028543E+01  1.6663119E+02  1.4273290E-05  0.0000000E+00  1.0000000E+00
</event>
<event>
9 100 1.0000000E+00 1.0000000E+03 7.8125000E-03 0.0000000E+00
 21 -1  0  0 501 502  0.0000000E+00  0.0000000E+00  2.2227810E+02  2.2227810E+02  0.0000000E+00  0.0000000E+00  1.0000000E+00
 21 -1  0  0 502 501  0.0000000E+00  0.0000000E+00 -1.1222413E+03  1.1222413E+03  0.0000000E+00  0.0000000E+00  1.0000000E+00
 39  2  1  2   0   0 -3.1832315E-12 -3.9790393E-13 -8.9996315E+02  1.3445194E+03  9.9889871E+02  0.0000000E+00  1.0000000E+00
 23  2  3  3   0   0 -4.1825620E+02 -5.2822022E+01 -7.9015397E+02  9.0039791E+02  9.2976766E+01  0.0000000E+00  1.0000000E+00
 23  2  3  3   0   0  4.1825620E+02  5.2822022E+01 -1.0980918E+02  4.4412145E+02  8.6356189E+01  0.0000000E+00  1.0000000E+00
-11  1  4  4   0   0 -2.4349398E+02  1.0681745E+01 -4.9101985E+02  5.4818237E+02  8.5299224E-06  0.0000000E+00  1.0000000E+00
 11  1  4  4   0   0 -1.7476223E+02 -6.3503767E+01 -2.9913412E+02  3.5221554E+02  1.4273290E-05  0.0000000E+00  1.0000000E+00
-13  1  5  5   0   0  4.0036477E+02  6.7852385E+01 -1.1016430E+02  4.2075179E+02  3.7215631E-07  0.0000000E+00  1.0000000E+00
 13  1  5  5   0   0  1.7891435E+01 -1.5030363E+01  3.5511181E-01  2.3369668E+01  7.1366451E-06  0.0000000E+00  1.0000000E+00
</event>
<event>
9 100 1.0000000E+00 1.0000000E+03 7.8125000E-03 0.0000000E+00
 21 -1  0  0 501 502  0.0000000E+00  0.0000000E+00  1.4419269E+03  1.4419269E+03  0.0000000E+00  0.0000000E+00  1.0000000E+00
 21 -1  0  0 502 501  0.0000000E+00  0.0000000E+00 -1.9319379E+02  1.9319379E+02  0.0000000E+00  0.0000000E+00  1.0000000E+00
 39  2  1  2   0   0  1.7053026E-13 -2.2737368E-13  1.2487331E+03  1.6351207E+03  1.0555971E+03  0.0000000E+00  1.0000000E+00
 23  2  3  3   0   0 -3.8843797E+02  3.4529309E+02  6.3503652E+02  8.2585199E+02  9.2998730E+01  0.0000000E+00  1.0000000E+00
 23  2  3  3   0   0  3.8843797E+02 -3.4529309E+02  6.1369661E+02  8.0926872E+02  9.0448638E+01  0.0000000E+00  1.0000000E+00
-11  1  4  4   0   0 -2.0529716E+02  2.4285116E+02  3.9161783E+02  5.0446817E+02  7.6293945E-06  0.0000000E+00  1.0000000E+00
 11  1  4  4   0   0 -1.8314080E+02  1.0244193E+02  2.4341869E+02  3.2138382E+02  1.0789593E-05  0.0000000E+00  1.0000000E+00
-13  1  5  5   0   0  6.3479696E+01 -1.0621164E+02  1.3149880E+02  1.8056167E+02  2.3515373E-05  0.0000000E+00  1.0000000E+00
 13  1  5  5   0   0  3.2495827E+02 -2.3908145E+02  4.8219782E+02  6.2870705E+02  5.7220459E-06  0.0000000E+00  1.0000000E+00
</event>
<event>
9 100 1.0000000E+00 1.0000000E+03 7.8125000E-03 0.0000000E+00
 21 -1  0  0 501 502  0.0000000E+00  0.0000000E+00  6.8592645E+02  6.8592645E+02  0.0000000E+00  0.0000000E+00  1.0000000E+00
 21 -1  0  0 502 501  0.0000000E+00  0.0000000E+00 -3.6216652E+02  3.6216652E+02  0.0000000E+00  0.0000000E+00  1.0000000E+00
 39  2  1  2   0   0 -1.7621460E-12  1.5347723E-12  3.2375993E+02  1.0480930E+03  9.9683418E+02  0.0000000E+00  1.0000000E+00
 23  2  3  3   0   0  3.5373950E+02 -3.2243631E+02  2.7143961E+02  5.5807819E+02  9.3139679E+01  0.0000000E+00  1.0000000E+00
 23  2  3  3   0   0 -3.5373950E+02  3.2243631E+02  5.2320320E+01  4.9001478E+02  9.0995954E+01  0.0000000E+00  1.0000000E+00
-11  1  4  4   0   0  1.7492513E+02 -9.8379028E+01  1.2081739E+02  2.3425216E+02  6.3259598E-06  0.0000000E+00  1.0000000E+00
 11  1  4  4   0   0  1.7881437E+02 -2.2405728E+02  1.5062222E+02  3.2382603E+02  1.9073486E-06  0.0000000E+00  1.0000000E+00
-13  1  5  5   0   0 -3.5663452E+02  3.1036184E+02  5.8083350E+01  4.7632586E+02  1.0990553E-06  0.0000000E+00  1.0000000E+00
 13  1  5  5   0   0  2.8950223E+00  1.2074466E+01 -5.7630298E+00  1.3688915E+01  9.7256079E-06  0.0000000E+00  1.0000000E+00
</event>
<event>
9 100 1.0000000E+00 1.0000000E+03 7.8125000E-03 0.0000000E+00
 21 -1  0  0 501 502  0.0000000E+00  0.0000000E+00  1.7254273E+03  1.7254273E+03  0.0000000E+00  0.0000000E+00  1.0000000E+00
 21 -1  0  0 502 501  0.0000000E+00  0.0000000E+00 -1.6720932E+02  1.6720932E+02  0.0000000E+00  0.0000000E+00  1.0000000E+00
 39  2  1  2   0   0  9.9475983E-13  1.4210855E-14  1.5582179E+03  1.8926366E+03  1.0742579E+03  0.0000000E+00  1.0000000E+00
 23  2  3  3   0   0  2.0053776E+02  3.1464026E+00  1.6407639E+03  1.6554131E+03  8.9782975E+01  0.0000000E+00  1.0000000E+00
 23  2  3  3   0   0 -2.0053776E+02 -3.1464026E+00 -8.2545945E+01  2.3722353E+02  9.6103459E+01  0.0000000E+00  1.0000000E+00
-11  1  4  4   0   0  3.3949303E+01  2.8202984E+01  1.9870833E+02  2.0355089E+02  2.6428998E-05  0.0000000E+00  1.0000000E+00
 11  1  4  4   0   0  1.6658846E+02 -2.5056581E+01  1.4420555E+03  1.4518622E+03  7.6293945E-06  0.0000000E+00  1.0000000E+00
-13  1  5  5   0   0 -7.7866076E+01 -1.3760389E+01 -8.2248249E+01  1.1409316E+02  1.1765346E-05  0.0000000E+00  1.0000000E+00
 13  1  5  5   0   0 -1.2267169E+02  1.0613986E+01 -2.9769614E-01  1.2313037E+02  1.1039578E-05  0.0000000E+00  1.0000000E+00
</event>
<event>
9 100 1.0000000E+00 1.0000000E+03 7.8125000E-03 0.0000000E+00
 21 -1  0  0 501 502  0.0000000E+00  0.0000000E+00  5.1140383E+02  5.1140383E+02  0.0000000E+00  0.0000000E+00  1.0000000E+00
 21 -1  0  0 502 501  0.0000000E+00  0.0000000E+00 -4.8696663E+02  4.8696663E+02  0.0000000E+00  0.0000000E+00  1.0000000E+00
 39  2  1  2   0   0  1.2434498E-14 -2.8421709E-14  2.4437203E+01  9.9837046E+02  9.9807134E+02  0.0000000E+00  1.0000000E+00
 23  2  3  3   0   0 -1.5145876E+01 -1.8451425E+02 -4.3434240E+02  4.8072039E+02  9.0354139E+01  0.0000000E+00  1.0000000E+00
 23  2  3  3   0   0  1.5145876E+01  1.8451425E+02  4.5877960E+02  5.1765006E+02  1.5234159E+02  0.0000000E+00  1.0000000E+00
-11  1  4  4   0   0 -1.9530262E+01  1.8175106E+00 -4.0071232E+01  4.4614326E+01  1.2063132E-05  0.0000000E+00  1.0000000E+00
 11  1  4  4   0   0  4.3843861E+00 -1.8633176E+02 -3.9427117E+02  4.3610607E+02  1.8467824E-06  0.0000000E+00  1.0000000E+00
-13  1  5  5   0   0 -3.1907962E+01  1.4928043E+02  1.9630410E+02  2.4867261E+02  1.1444092E-05  0.0000000E+00  1.0000000E+00
 13  1  5  5   0   0  4.7053838E+01  3.5233823E+01  2.6247550E+02  2.6897746E+02  1.0092740E-05  0.0000000E+00  1.0000000E+00
</event>
<event>
9 100 1.0000000E+00 1.0000000E+03 7.8125000E-03 0.0000000E+00
 21 -1  0  0 501 502  0.0000000E+00  0.0000000E+00  3.0888129E+02  3.0888129E+02  0.0000000E+00  0.0000000E+00  1.0000000E+00
 21 -1  0  0 502 501  0.0000000E+00  0.0000000E+00 -7.9107963E+02  7.9107963E+02  0.0000000E+00  0.0000000E+00  1.0000000E+00
 39  2  1  2   0   0 -3.3537617E-12 -8.6686214E-13 -4.8219834E+02  1.0999609E+03  9.8863481E+02  0.0000000E+00  1.0000000E+00
 23  2  3  3   0   0 -4.4402412E+02 -1.1544859E+02 -6.2805054E+01  4.7178860E+02  9.0300679E+01  0.0000000E+00  1.0000000E+00
 23  2  3  3   0   0  4.4402412E+02  1.1544859E+02 -4.1939329E+02  6.2817232E+02  9.0685901E+01  0.0000000E+00  1.0000000E+00
-11  1  4  4   0   0 -3.2362401E+02 -1.1529580E+02 -2.0453658E+01  3.4415690E+02  1.9660500E-06  0.0000000E+00  1.0000000E+00
 11  1  4  4   0   0 -1.2040011E+02 -1.5279243E-01 -4.2351396E+01  1.2763170E+02  6.0456859E-06  0.0000000E+00  1.0000000E+00
-13  1  5  5   0   0  3.8697739E+02  9.6166575E+01 -4.0026939E+02  5.6499123E+02  2.4546695E-06  0.0000000E+00  1.0000000E+00
 13  1  5  5   0   0  5.7046737E+01  1.9282016E+01 -1.9123900E+01  6.3181088E+01  1.4273290E-05  0.0000000E+00  1.0000000E+00
</event>
<event>
9 100 1.0000000E+00 1.0000000E+03 7.8125000E-03 0.0000000E+00
 21 -1  0  0 501 502  0.0000000E+00  0.0000000E+00  5.2237551E+02  5.2237551E+02  0.0000000E+00  0.0000000E+00  1.0000000E+00
 21 -1  0  0 502 501  0.0000000E+00  0.0000000E+00 -4.7757650E+02  4.7757650E+02  0.0000000E+00  0.0000000E+00  1.0000000E+00
 39  2  1  2   0   0  1.4210855E-13 -7.3896445E-13  4.4799006E+01  9.9995201E+02  9.9894799E+02  0.0000000E+00  1.0000000E+00
 23  2  3  3   0   0  8.4275070E+01 -4.7377372E+02  1.1897893E+02  5.0413941E+02  9.1851663E+01  0.0000000E+00  1.0000000E+00
 23  2  3  3   0   0 -8.4275070E+01  4.7377372E+02 -7.4179928E+01  4.9581261E+02  9.3614385E+01  0.0000000E+00  1.0000000E+00
-11  1  4  4   0   0  5.4707804E+01 -4.4560776E+02  1.1198455E+02  4.6270915E+02  4.4075207E-06  0.0000000E+00  1.0000000E+00
 11  1  4  4   0   0  2.9567266E+01 -2.8165959E+01  6.9943877E+00  4.1430254E+01  1.9357474E-05  0.0000000E+00  1.0000000E+00
-13  1  5  5   0   0 -4.5558505E+01  2.7897435E+02  3.1289938E+00  2.8268721E+02  1.1162472E-05  0.0000000E+00  1.0000000E+00
 13  1  5  5   0   0 -3.8716565E+01  1.9479937E+02 -7.7308922E+01  2.1312540E+02  1.5618407E-05  0.0000000E+00  1.0000000E+00
</event>
<event>
9 100 1.0000000E+00 1.0000000E+03 7.8125000E-03 0.0000000E+00
 21 -1  0  0 501 502  0.0000000E+00  0.0000000E+00  2.3269354E+03  2.3269354E+03  0.0000000E+00  0.0000000E+00  1.0000000E+00
 21 -1  0  0 502 501  0.0000000E+00  0.0000000E+00 -1.0644336E+02  1.0644336E+02  0.0000000E+00  0.0000000E+00  1.0000000E+00
 39  2  1  2   0   0 -1.0288659E-11  1.0317081E-11  2.2204920E+03  2.4333787E+03  9.9536287E+02  0.0000000E+00  1.0000000E+00
 23  2  3  3   0   0  2.1957422E+02 -2.1994808E+02  1.8643809E+02  3.7366852E+02  9.0989029E+01  0.0000000E+00  1.0000000E+00
 23  2  3  3   0   0 -2.1957422E+02  2.1994808E+02  2.0340539E+03  2.0597102E+03  9.1873724E+01  0.0000000E+00  1.0000000E+00
-11  1  4  4   0   0  2.2337065E+02 -2.2449076E+02  1.7776627E+02  3.6316855E+02  1.3799473E-06  0.0000000E+00  1.0000000E+00
 11  1  4  4   0   0 -3.7964340E+00  4.5426786E+00  8.6718180E+00  1.0499965E+01  6.0315660E-06  0.0000000E+00  1.0000000E+00
-13  1  5  5   0   0 -4.4552712E+01  3.4905135E+01  6.4652841E+02  6.4900100E+02  0.0000000E+00  0.0000000E+00  1.0000000E+00
 13  1  5  5   0   0 -1.7502151E+02  1.8504295E+02  1.3875255E+03  1.4107092E+03  0.0000000E+00  0.0000000E+00  1.0000000E+00
</event>
<event>
9 100 1.0000000E+00 1.0000000E+03 7.8125000E-03 0.0000000E+00
 21 -1  0  0 501 502  0.0000000E+00  0.0000000E+00  3.8206495E+02  3.8206495E+02  0.0000000E+00  0.0000000E+00  1.0000000E+00
 21 -1  0  0 502 501  0.0000000E+00  0.0000000E+00 -6.6141428E+02  6.6141428E+02  0.0000000E+00  0.0000000E+00  1.0000000E+00
 39  2  1  2   0   0 -5.6843419E-13 -5.6843419E-13 -2.7934933E+02  1.0434792E+03  1.0053919E+03  0.0000000E+00  1.0000000E+00
 23  2  3  3   0   0  2.4020965E+02  2.4361942E+02 -5.1010314E+02  6.2094615E+02  9.1202020E+01  0.0000000E+00  1.0000000E+00
 23  2  3  3   0   0 -2.4020965E+02 -2.4361942E+02  2.3075381E+02  4.2253308E+02  9.0751206E+01  0.0000000E+00  1.0000000E+00
-11  1  4  4   0   0  1.8451305E+02  2.0898737E+02 -4.6205340E+02  5.3964260E+02  2.4314020E-06  0.0000000E+00  1.0000000E+00
 11  1  4  4   0   0  5.5696603E+01  3.4632047E+01 -4.8049740E+01  8.1303553E+01  9.3440618E-06  0.0000000E+00  1.0000000E+00
-13  1  5  5   0   0 -2.2815597E+02 -2.1584917E+02  1.7616361E+02  3.6011058E+02  4.1569700E-06  0.0000000E+00  1.0000000E+00
 13  1  5  5   0   0 -1.2053678E+01 -2.7770253E+01  5.4590206E+01  6.2422501E+01  1.0619668E-05  0.0000000E+00  1.0000000E+00
</event>
<event>
9 100 1.0000000E+00 1.0000000E+03 7.8125000E-03 0.0000000E+00
 21 -1  0  0 501 502  0.0000000E+00  0.0000000E+00  1.5859775E+03  1.5859775E+03  0.0000000E+00  0.0000000E+00  1.0000000E+00
 21 -1  0  0 502 501  0.0000000E+00  0.0000000E+00 -1.6306969E+02  1.6306969E+02  0.0000000E+00  0.0000000E+00  1.0000000E+00
 39  2  1  2   0   0  5.1159077E-13  1.6484591E-12  1.4229078E+03  1.7490472E+03  1.0171035E+03  0.0000000E+00  1.0000000E+00
 23  2  3  3   0   0  1.5608575E+02  4.7567149E+02  6.8660681E+02  8.5401527E+02  8.5364223E+01  0.0000000E+00  1.0000000E+00
 23  2  3  3   0   0 -1.5608575E+02 -4.7567149E+02  7.3630099E+02  8.9503191E+02  9.1196710E+01  0.0000000E+00  1.0000000E+00
-11  1  4  4   0   0  9.8346587E+01  1.9978225E+02  3.5188059E+02  4.1641920E+02  1.7481139E-05  0.0000000E+00  1.0000000E+00
 11  1  4  4   0   0  5.7739159E+01  2.7588924E+02  3.3472622E+02  4.3759607E+02  1.1444092E-05  0.0000000E+00  1.0000000E+00
-13  1  5  5   0   0 -6.3643853E+01 -3.2872995E+02  4.6727093E+02  5.7485306E+02  9.3440618E-06  0.0000000E+00  1.0000000E+00
 13  1  5  5   0   0 -9.2441894E+01 -1.4694154E+02  2.6903007E+02  3.2017885E+02  2.2888184E-05  0.0000000E+00  1.0000000E+00
</event>
<event>
9 100 1.0000000E+00 1.0000000E+03 7.8125000E-03 0.0000000E+00
 21 -1  0  0 501 502  0.0000000E+00  0.0000000E+00  4.0788897E+02  4.0788897E+02  0.0000000E+00  0.0000000E+00  1.0000000E+00
 21 -1  0  0 502 501  0.0000000E+00  0.0000000E+00 -6.2180089E+02  6.2180089E+02  0.0000000E+00  0.0000000E+00  1.0000000E+00
 39  2  1  2   0   0 -1.7053026E-13  6.2527761E-13 -2.1391192E+02  1.0296899E+03  1.0072253E+03  0.0000000E+00  1.0000000E+00
 23  2  3  3   0   0  9.0740679E+01 -3.0035350E+02  2.8495720E+02  4.3310083E+02  8.9048451E+01  0.0000000E+00  1.0000000E+00
 23  2  3  3   0   0 -9.0740679E+01  3.0035350E+02 -4.9886913E+02  5.9658902E+02  9.2746721E+01  0.0000000E+00  1.0000000E+00
-11  1  4  4   0   0  4.0578928E+01 -5.1667998E+01  2.6212193E+01  7.0734083E+01  1.7059845E-05  0.0000000E+00  1.0000000E+00
 11  1  4  4   0   0  5.0161751E+01 -2.4868551E+02  2.5874501E+02  3.6236675E+02  3.6314836E-06  0.0000000E+00  1.0000000E+00
-13  1  5  5   0   0 -4.4108905E+01  7.6101803E+01 -2.1180611E+02  2.2934452E+02  7.6293945E-06  0.0000000E+00  1.0000000E+00
 13  1  5  5   0   0 -4.6631774E+01  2.2425170E+02 -2.8706301E+02  3.6724450E+02  6.0315660E-06  0.0000000E+00  1.0000000E+00
</event>
<event>
9 100 1.0000000E+00 1.0000000E+03 7.8125000E-03 0.0000000E+00
 21 -1  0  0 501 502  0.0000000E+00  0.0000000E+00  2.5358473E+02  2.5358473E+02  0.0000000E+00  0.0000000E+00  1.0000000E+00
 21 -1  0  0 502 501  0.0000000E+00  0.0000000E+00 -9.8278449E+02  9.8278449E+02  0.0000000E+00  0.0000000E+00  1.0000000E+00
 39  2  1  2   0   0 -4.2064130E-12 -4.9737992E-13 -7.2919976E+02  1.2363692E+03  9.9843705E+02  0.0000000E+00  1.0000000E+00
 23  2  3  3   0   0 -3.7251941E+02 -4.3116155E+01 -7.5563407E+02  8.4902653E+02  9.6091049E+01  0.0000000E+00  1.0000000E+00
 23  2  3  3   0   0  3.7251941E+02  4.3116155E+01  2.6434310E+01  3.8734268E+02  9.3305246E+01  0.0000000E+00  1.0000000E+00
-11  1  4  4   0   0 -2.6413585E+02 -7.3942421E+01 -5.4618856E+02  6.1119324E+02  1.2063132E-05  0.0000000E+00  1.0000000E+00
 11  1  4  4   0   0 -1.0838356E+02  3.0826266E+01 -2.0944551E+02  2.3783330E+02  2.5303839E-05  0.0000000E+00  1.0000000E+00
-13  1  5  5   0   0  1.7485213E+02  6.5374415E+01 -2.7828274E-02  1.8667373E+02  3.4877631E-06  0.0000000E+00  1.0000000E+00
 13  1  5  5   0   0  1.9766728E+02 -2.2258260E+01  2.6462138E+01  2.0066895E+02  4.4948484E-06  0.0000000E+00  1.0000000E+00
</event>
<event>
9 100 1.0000000E+00 1.0000000E+03 7.8125000E-03 0.0000000E+00
 21 -1  0  0 501 502  0.0000000E+00  0.0000000E+00  7.7430075E+02  7.7430075E+02  0.0000000E+00  0.0000000E+00  1.0000000E+00
 21 -1  0  0 502 501  0.0000000E+00  0.0000000E+00 -3.2773713E+02  3.2773713E+02  0.0000000E+00  0.0000000E+00  1.0000000E+00
 39  2  1  2   0   0  8.5265128E-14 -1.7053026E-13  4.4656362E+02  1.1020379E+03  1.0075060E+03  0.0000000E+00  1.0000000E+00
 23  2  3  3   0   0  1.4480654E+02 -4.5372131E+02  3.7202540E+02  6.1140467E+02  9.2632665E+01  0.0000000E+00  1.0000000E+00
 23  2  3  3   0   0 -1.4480654E+02  4.5372131E+02  7.4538213E+01  4.9063322E+02  9.1285532E+01  0.0000000E+00  1.0000000E+00
-11  1  4  4   0   0  7.7843176E+01 -1.1943925E+02  1.3359271E+02  1.9537735E+02  1.5258789E-05  0.0000000E+00  1.0000000E+00
 11  1  4  4   0   0  6.6963365E+01 -3.3428206E+02  2.3843269E+02  4.1602732E+02  5.7220459E-06  0.0000000E+00  1.0000000E+00
-13  1  5  5   0   0 -1.1059985E+02  3.5394871E+02  9.5882850E+01  3.8302159E+02  2.1191107E-06  0.0000000E+00  1.0000000E+00
 13  1  5  5   0   0 -3.4206687E+01  9.9772599E+01 -2.1344637E+01  1.0761163E+02  1.0873560E-05  0.0000000E+00  1.0000000E+00
</event>
<event>
9 100 1.0000000E+00 1.0000000E+03 7.8125000E-03 0.0000000E+00
 21 -1  0  0 501 502  0.0000000E+00  0.0000000E+00  1.1527710E+02  1.1527710E+02  0.0000000E+00  0.0000000E+00  1.0000000E+00
 21 -1  0  0 502 501  0.0000000E+00  0.0000000E+00 -2.1605760E+03  2.1605760E+03  0.0000000E+00  0.0000000E+00  1.0000000E+00
 39  2  1  2   0   0 -1.1652901E-12 -2.1600499E-12 -2.0452989E+03  2.2758531E+03  9.9812813E+02  0.0000000E+00  1.0000000E+00
 23  2  3  3   0   0  2.1427475E+02  3.8593805E+02 -5.3371233E+02  6.9849015E+02  9.0431121E+01  0.0000000E+00  1.0000000E+00
 23  2  3  3   0   0 -2.1427475E+02 -3.8593805E+02 -1.5115866E+03  1.5773629E+03  9.1203501E+01  0.0000000E+00  1.0000000E+00
-11  1  4  4   0   0  1.5474782E+02  3.3595413E+02 -4.0815470E+02  5.5081969E+02  9.8186780E-06  0.0000000E+00  1.0000000E+00
 11  1  4  4   0   0  5.9526927E+01  4.9983922E+01 -1.2555762E+02  1.4767046E+02  2.9548518E-05  0.0000000E+00  1.0000000E+00
-13  1  5  5   0   0 -1.7374427E+02 -2.2215261E+02 -9.4841920E+02  9.8946341E+02  2.5303839E-05  0.0000000E+00  1.0000000E+00
 13  1  5  5   0   0 -4.0530482E+01 -1.6378544E+02 -5.6316736E+02  5.8789954E+02  3.7376247E-05  0.0000000E+00  1.0000000E+00
</event>
<event>
9 100 1.0000000E+00 1.0000000E+03 7.8125000E-03 0.0000000E+00
 21 -1  0  0 501 502  0.0000000E+00  0.0000000E+00  1.1067213E+03  1.1067213E+03  0.0000000E+00  0.0000000E+00  1.0000000E+00
 21 -1  0  0 502 501  0.0000000E+00  0.0000000E+00 -2.2604476E+02  2.2604476E+02  0.0000000E+00  0.0000000E+00  1.0000000E+00
 39  2  1  2   0   0  4.4764192E-13 -3.7516656E-12  8.8067654E+02  1.3327661E+03  1.0003370E+03  0.0000000E+00  1.0000000E+00
 23  2  3  3   0   0  4.2032927E+01 -3.5038478E+02  8.9671695E+02  9.6794120E+02  9.0953928E+01  0.0000000E+00  1.0000000E+00
 23  2  3  3   0   0 -4.2032927E+01  3.5038478E+02 -1.6040411E+01  3.6482485E+02  9.1124199E+01  0.0000000E+00  1.0000000E+00
-11  1  4  4   0   0  9.8795691E+00 -2.3445874E+02  6.8943157E+02  7.2827494E+02  1.0092740E-05  0.0000000E+00  1.0000000E+00
 11  1  4  4   0   0  3.2153358E+01 -1.1592604E+02  2.0728539E+02  2.3966626E+02  3.5785032E-05  0.0000000E+00  1.0000000E+00
-13  1  5  5   0   0 -7.0576262E+01  2.5976214E+02 -5.5535238E+00  2.6923637E+02  5.5275074E-06  0.0000000E+00  1.0000000E+00
 13  1  5  5   0   0  2.8543336E+01  9.0622636E+01 -1.0486887E+01  9.5588488E+01  1.0910418E-05  0.0000000E+00  1.0000000E+00
</event>
<event>
9 100 1.0000000E+00 1.0000000E+03 7.8125000E-03 0.0000000E+00
 21 -1  0  0 501 502  0.0000000E+00  0.0000000E+00  2.0243846E+03  2.0243846E+03  0.0000000E+00  0.0000000E+00  1.0000000E+00
 21 -1  0  0 502 501  0.0000000E+00  0.0000000E+00 -1.2730992E+02  1.2730992E+02  0.0000000E+00  0.0000000E+00  1.0000000E+00
 39  2  1  2   0   0  1.0373924E-12  7.9012352E-12  1.8970747E+03  2.1516946E+03  1.0153310E+03  0.0000000E+00  1.0000000E+00
 23  2  3  3   0   0 -6.4273697E+01 -4.8024760E+02  6.8881895E+02  8.4715228E+02  9.1796330E+01  0.0000000E+00  1.0000000E+00
 23  2  3  3   0   0  6.4273697E+01  4.8024760E+02  1.2082558E+03  1.3045423E+03  8.4733066E+01  0.0000000E+00  1.0000000E+00
-11  1  4  4   0   0  2.1891251E+01 -8.1354241E+01  1.0034303E+02  1.3102085E+02  2.8546580E-05  0.0000000E+00  1.0000000E+00
 11  1  4  4   0   0 -8.6164948E+01 -3.9889336E+02  5.8847592E+02  7.1613143E+02  8.3139399E-06  0.0000000E+00  1.0000000E+00
-13  1  5  5   0   0  6.2363040E+01  3.9149404E+02  8.9327757E+02  9.7729297E+02  1.3214499E-05  0.0000000E+00  1.0000000E+00
 13  1  5  5   0   0  1.9106573E+00  8.8753558E+01  3.1497820E+02  3.2724931E+02  3.7376247E-05  0.0000000E+00  1.0000000E+00
</event>
<event>
9 100 1.0000000E+00 1.0000000E+03 7.8125000E-03 0.0000000E+00
 21 -1  0  0 501 502  0.0000000E+00  0.0000000E+00  1.5941832E+03  1.5941832E+03  0.0000000E+00  0.0000000E+00  1.0000000E+00
 21 -1  0  0 502 501  0.0000000E+00  0.0000000E+00 -1.6000841E+02  1.6000841E+02  0.0000000E+00  0.0000000E+00  1.0000000E+00
 39  2  1  2   0   0 -1.0572876E-11  7.4464879E-12  1.4341748E+03  1.7541916E+03  1.0101143E+03  0.0000000E+00  1.0000000E+00
 23  2  3  3   0   0  3.8851732E+02 -2.7327974E+02  4.6113822E+02  6.6779837E+02  8.7628016E+01  0.0000000E+00  1.0000000E+00
 23  2  3  3   0   0 -3.8851732E+02  2.7327974E+02  9.7303657E+02  1.0863933E+03  8.8445571E+01  0.0000000E+00  1.0000000E+00
-11  1  4  4   0   0  3.0857428E+02 -1.7903174E+02  3.1048134E+02  4.7293669E+02  1.9073486E-06  0.0000000E+00  1.0000000E+00
 11  1  4  4   0   0  7.9943040E+01 -9.4247996E+01  1.5065689E+02  1.9486168E+02  5.3947966E-06  0.0000000E+00  1.0000000E+00
-13  1  5  5   0   0 -2.6070796E+01  6.0658227E+00  1.0683508E+02  1.1013726E+02  3.0517578E-05  0.0000000E+00  1.0000000E+00
 13  1  5  5   0   0 -3.6244653E+02  2.6721391E+02  8.6620149E+02  9.7625600E+02  3.3036247E-06  0.0000000E+00  1.0000000E+00
</event>
<event>
9 100 1.0000000E+00 1.0000000E+03 7.8125000E-03 0.0000000E+00
 21 -1  0  0 501 502  0.0000000E+00  0.0000000E+00  9.5135007E+02  9.5135007E+02  0.0000000E+00  0.0000000E+00  1.0000000E+00
 21 -1  0  0 502 501  0.0000000E+00  0.0000000E+00 -2.6366110E+02  2.6366110E+02  0.0000000E+00  0.0000000E+00  1.0000000E+00
 39  2  1  2   0   0  3.3395509E-13 -3.6379788E-12  6.8768898E+02  1.2150112E+03  1.0016666E+03  0.0000000E+00  1.0000000E+00
 23  2  3  3   0   0  4.1628365E+01 -4.6088681E+02  5.4796986E+02  7.2299121E+02  9.1081009E+01  0.0000000E+00  1.0000000E+00
 23  2  3  3   0   0 -4.1628365E+01  4.6088681E+02  1.3971911E+02  4.9201995E+02  9.1720365E+01  0.0000000E+00  1.0000000E+00
-11  1  4  4   0   0  3.5696139E+01 -3.6992349E+02  4.8988198E+02  6.1489996E+02  5.4784419E-06  0.0000000E+00  1.0000000E+00
 11  1  4  4   0   0  5.9322267E+00 -9.0963328E+01  5.8087881E+01  1.0809126E+02  2.3515373E-05  0.0000000E+00  1.0000000E+00
-13  1  5  5   0   0  2.2619703E+01  2.4622964E+02  8.3813131E+01  2.6108491E+02  1.9073486E-06  0.0000000E+00  1.0000000E+00
 13  1  5  5   0   0 -6.4248069E+01  2.1465717E+02  5.5905982E+01  2.3093505E+02  9.6316385E-06  0.0000000E+00  1.0000000E+00
</event>
<event>
9 100 1.0000000E+00 1.0000000E+03 7.8125000E-03 0.0000000E+00
 21 -1  0  0 501 502  0.0000000E+00  0.0000000E+00  4.8811207E+02  4.8811207E+02  0.0000000E+00  0.0000000E+00  1.0000000E+00
 21 -1  0  0 502 501  0.0000000E+00  0.0000000E+00 -3.7795421E+02  3.7795421E+02  0.0000000E+00  0.0000000E+00  1.0000000E+00
 39  2  1  2   0   0  5.6843419E-14 -3.4106051E-13  1.1015786E+02  8.6606628E+02  8.5903204E+02  0.0000000E+00  1.0000000E+00
 23  2  3  3   0   0 -1.6511473E+02  3.5065759E+02 -1.0969933E+02  4.1211460E+02  8.7068273E+01  0.0000000E+00  1.0000000E+00
 23  2  3  3   0   0  1.6511473E+02 -3.5065759E+02  2.1985719E+02  4.5395167E+02  8.6667878E+01  0.0000000E+00  1.0000000E+00
-11  1  4  4   0   0 -1.3004441E+02  3.3359129E+02 -1.0278283E+02  3.7250370E+02  2.9248820E-06  0.0000000E+00  1.0000000E+00
 11  1  4  4   0   0 -3.5070317E+01  1.7066305E+01 -6.9165049E+00  3.9610907E+01  1.6407633E-05  0.0000000E+00  1.0000000E+00
-13  1  5  5   0   0  5.0249976E+01 -1.6761907E+02  5.9391610E+01  1.8479333E+02  9.1473227E-06  0.0000000E+00  1.0000000E+00
 13  1  5  5   0   0  1.1486475E+02 -1.8303852E+02  1.6046558E+02  2.6915834E+02  2.0230487E-06  0.0000000E+00  1.0000000E+00
</event>
<event>
9 100 1.0000000E+00 1.0000000E+03 7.8125000E-03 0.0000000E+00
 21 -1  0  0 501 502  0.0000000E+00  0.0000000E+00  7.5129115E+02  7.5129115E+02  0.0000000E+00  0.0000000E+00  1.0000000E+00
 21 -1  0  0 502 501  0.0000000E+00  0.0000000E+00 -3.3497823E+02  3.3497823E+02  0.0000000E+00  0.0000000E+00  1.0000000E+00
 39  2  1  2   0   0  1.6484591E-12  4.6185278E-14  4.1631292E+02  1.0862694E+03  1.0033268E+03  0.0000000E+00  1.0000000E+00
 23  2  3  3   0   0  4.0101770E+02  1.3262859E+01 -1.0156185E+02  4.2448300E+02  9.4233247E+01  0.0000000E+00  1.0000000E+00
 23  2  3  3   0   0 -4.0101770E+02 -1.3262859E+01  5.1787477E+02  6.6178637E+02  9.3679374E+01  0.0000000E+00  1.0000000E+00
-11  1  4  4   0   0  9.6832676E+01 -3.7254125E+01 -2.8475279E+01  1.0758847E+02  1.0271387E-05  0.0000000E+00  1.0000000E+00
 11  1  4  4   0   0  3.0418503E+02  5.0516984E+01 -7.3086568E+01  3.1689453E+02  3.8591418E-06  0.0000000E+00  1.0000000E+00
-13  1  5  5   0   0 -3.4091076E+02 -3.0317504E+01  3.8615166E+02  5.1599652E+02  4.2649612E-06  0.0000000E+00  1.0000000E+00
 13  1  5  5   0   0 -6.0106942E+01  1.7054646E+01  1.3172311E+02  1.4578986E+02  9.3440618E-06  0.0000000E+00  1.0000000E+00
</event>
<event>
9 100 1.0000000E+00 1.0000000E+03 7.8125000E-03 0.0000000E+00
 21 -1  0  0 501 502  0.0000000E+00  0.0000000E+00  3.9568647E+02  3.9568647E+02  0.0000000E+00  0.0000000E+00  1.0000000E+00
 21 -1  0  0 502 501  0.0000000E+00  0.0000000E+00 -6.3970888E+02  6.3970888E+02  0.0000000E+00  0.0000000E+00  1.0000000E+00
 39  2  1  2   0   0 -6.5369932E-13 -7.3896445E-13 -2.4402241E+02  1.0353953E+03  1.0062289E+03  0.0000000E+00  1.0000000E+00
 23  2  3  3   0   0  2.3105896E+02  2.9121737E+02  1.9321150E+02  4.5409084E+02  1.7513425E+02  0.0000000E+00  1.0000000E+00
 23  2  3  3   0   0 -2.3105896E+02 -2.9121737E+02 -4.3723392E+02  5.8130451E+02  9.2442588E+01  0.0000000E+00  1.0000000E+00
-11  1  4  4   0   0  1.9839597E+02  3.1244661E+02  1.6130568E+02  4.0373675E+02  4.4731290E-06  0.0000000E+00  1.0000000E+00
 11  1  4  4   0   0  3.2662999E+01 -2.1229244E+01  3.1905824E+01  5.0354085E+01  1.3486992E-05  0.0000000E+00  1.0000000E+00
-13  1  5  5   0   0 -1.7412621E+02 -2.2226995E+02 -2.6494412E+02  3.8719408E+02  7.3871295E-06  0.0000000E+00  1.0000000E+00
 13  1  5  5   0   0 -5.6932758E+01 -6.8947420E+01 -1.7228980E+02  1.9411043E+02  1.4273290E-05  0.0000000E+00  1.0000000E+00
</event>
<event>
9 100 1.0000000E+00 1.0000000E+03 7.8125000E-03 0.0000000E+00
 21 -1  0  0 501 502  0.0000000E+00  0.0000000E+00  2.0058003E+02  2.0058003E+02  0.0000000E+00  0.0000000E+00  1.0000000E+00
 21 -1  0  0 502 501  0.0000000E+00  0.0000000E+00 -1.2219947E+03  1.2219947E+03  0.0000000E+00  0.0000000E+00  1.0000000E+00
 39  2  1  2   0   0 -2.1600499E-12 -3.4816594E-13 -1.0214146E+03  1.4225747E+03  9.9016712E+02  0.0000000E+00  1.0000000E+00
 23  2  3  3   0   0  2.8826548E+02  4.4937830E+01  4.9009986E+01  3.0932207E+02  9.0342484E+01  0.0000000E+00  1.0000000E+00
 23  2  3  3   0   0 -2.8826548E+02 -4.4937830E+01 -1.0704246E+03  1.1132526E+03  9.1685151E+01  0.0000000E+00  1.0000000E+00
-11  1  4  4   0   0  2.5922067E+02  1.9693617E+01  6.4483270E+01  2.6784564E+02  2.8159647E-06  0.0000000E+00  1.0000000E+00
 11  1  4  4   0   0  2.9044815E+01  2.5244213E+01 -1.5473284E+01  4.1476428E+01  6.6072495E-06  0.0000000E+00  1.0000000E+00
-13  1  5  5   0   0 -7.0591224E+01  4.7085829E-01 -4.1944323E+02  4.2534218E+02  1.5258789E-05  0.0000000E+00  1.0000000E+00
 13  1  5  5   0   0 -2.1767426E+02 -4.5408689E+01 -6.5098139E+02  6.8791046E+02  7.6293945E-06  0.0000000E+00  1.0000000E+00
</event>
<event>
9 100 1.0000000E+00 1.0000000E+03 7.8125000E-03 0.0000000E+00
 21 -1  0  0 501 502  0.0000000E+00  0.0000000E+00  2.8486894E+02  2.8486894E+02  0.0000000E+00  0.0000000E+00  1.0000000E+00
 21 -1  0  0 502 501  0.0000000E+00  0.0000000E+00 -8.6978369E+02  8.6978369E+02  0.0000000E+00  0.0000000E+00  1.0000000E+00
 39  2  1  2   0   0  2.5579538E-13  2.4158453E-13 -5.8491475E+02  1.1546526E+03  9.9553876E+02  0.0000000E+00  1.0000000E+00
 23  2  3  3   0   0 -8.3277534E+01 -7.2611808E+01 -8.4529295E+02  8.5765927E+02  9.4083085E+01  0.0000000E+00  1.0000000E+00
 23  2  3  3   0   0  8.3277534E+01  7.2611808E+01  2.6037821E+02  2.9699336E+02  9.0557276E+01  0.0000000E+00  1.0000000E+00
-11  1  4  4   0   0 -2.2516362E+01 -8.0699693E+01 -4.7830135E+02  4.8558378E+02  1.2063132E-05  0.0000000E+00  1.0000000E+00
 11  1  4  4   0   0 -6.0761171E+01  8.0878844E+00 -3.6699160E+02  3.7207549E+02  1.7892516E-05  0.0000000E+00  1.0000000E+00
-13  1  5  5   0   0  6.4415367E+01 -1.6660759E-01  8.9152935E+01  1.0998915E+02  5.0463701E-06  0.0000000E+00  1.0000000E+00
 13  1  5  5   0   0  1.8862167E+01  7.2778416E+01  1.7122527E+02  1.8700421E+02  2.5231851E-06  0.0000000E+00  1.0000000E+00
</event>
<event>
9 100 1.0000000E+00 1.0000000E+03 7.8125000E-03 0.0000000E+00
 21 -1  0  0 501 502  0.0000000E+00  0.0000000E+00  1.2614076E+02  1.2614076E+02  0.0000000E+00  0.0000000E+00  1.0000000E+00
 21 -1  0  0 502 501  0.0000000E+00  0.0000000E+00 -1.9915007E+03  1.9915007E+03  0.0000000E+00  0.0000000E+00  1.0000000E+00
 39  2  1  2   0   0 -2.8421709E-12  3.6948222E-12 -1.8653599E+03  2.1176414E+03  1.0024159E+03  0.0000000E+00  1.0000000E+00
 23  2  3  3   0   0  2.4701696E+02 -3.2409457E+02 -3.4293525E+02  5.3905247E+02  8.3176398E+01  0.0000000E+00  1.0000000E+00
 23  2  3  3   0   0 -2.4701696E+02  3.2409457E+02 -1.5224247E+03  1.5785890E+03  9.0064272E+01  0.0000000E+00  1.0000000E+00
-11  1  4  4   0   0  2.9401837E+01 -2.3513645E+01 -6.5908960E+00  3.8220406E+01  3.2592788E-05  0.0000000E+00  1.0000000E+00
 11  1  4  4   0   0  2.1761512E+02 -3.0058092E+02 -3.3634435E+02  5.0083206E+02  4.3710976E-06  0.0000000E+00  1.0000000E+00
-13  1  5  5   0   0 -1.8877092E+02  2.4456776E+02 -9.8897069E+02  1.0361037E+03  0.0000000E+00  0.0000000E+00  1.0000000E+00
 13  1  5  5   0   0 -5.8246043E+01  7.9526810E+01 -5.3345397E+02  5.4248526E+02  2.8546580E-05  0.0000000E+00  1.0000000E+00
</event>
<event>
9 100 1.0000000E+00 1.0000000E+03 7.8125000E-03 0.0000000E+00
 21 -1  0  0 501 502  0.0000000E+00  0.0000000E+00  6.0919342E+02  6.0919342E+02  0.0000000E+00  0.0000000E+00  1.0000000E+00
 21 -1  0  0 502 501  0.0000000E+00  0.0000000E+00 -4.1111339E+02  4.1111339E+02  0.0000000E+00  0.0000000E+00  1.0000000E+00
 39  2  1  2   0   0  1.7053026E-13  9.6633812E-13  1.9808003E+02  1.0203068E+03  1.0008947E+03  0.0000000E+00  1.0000000E+00
 23  2  3  3   0   0 -7.2632662E+01 -3.9774178E+02 -1.8714352E+02  4.5460111E+02  9.0362852E+01  0.0000000E+00  1.0000000E+00
 23  2  3  3   0   0  7.2632662E+01  3.9774178E+02  3.8522356E+02  5.6570571E+02  9.0286941E+01  0.0000000E+00  1.0000000E+00
-11  1  4  4   0   0 -8.9020873E+01 -3.7912655E+02 -1.7415702E+02  4.2660558E+02  3.4918352E-06  0.0000000E+00  1.0000000E+00
 11  1  4  4   0   0  1.6388210E+01 -1.8615226E+01 -1.2986507E+01  2.7995526E+01  1.3885708E-05  0.0000000E+00  1.0000000E+00
-13  1  5  5   0   0  4.7059483E-01  1.8140808E+02  1.2844364E+02  2.2227659E+02  1.3754087E-05  0.0000000E+00  1.0000000E+00
 13  1  5  5   0   0  7.2162068E+01  2.1633370E+02  2.5677992E+02  3.4342912E+02  6.6072495E-06  0.0000000E+00  1.0000000E+00
</event>
<event>
9 100 1.0000000E+00 1.0000000E+03 7.8125000E-03 0.0000000E+00
 21 -1  0  0 501 502  0.0000000E+00  0.0000000E+00  1.4136749E+03  1.4136749E+03  0.0000000E+00  0.0000000E+00  1.0000000E+00
 21 -1  0  0 502 501  0.0000000E+00  0.0000000E+00 -1.7268353E+02  1.7268353E+02  0.0000000E+00  0.0000000E+00  1.0000000E+00
 39  2  1  2   0   0  2.4158453E-12  6.7501560E-13  1.2409914E+03  1.5863584E+03  9.8816673E+02  0.0000000E+00  1.0000000E+00
 23  2  3  3   0   0  1.7092975E+02  4.6809139E+01  1.3463254E+03  1.3610754E+03  9.2336434E+01  0.0000000E+00  1.0000000E+00
 23  2  3  3   0   0 -1.7092975E+02 -4.6809139E+01 -1.0533400E+02  2.2528308E+02  9.0824761E+01  0.0000000E+00  1.0000000E+00
-11  1  4  4   0   0  4.1763499E+01 -2.0465445E+01  5.1445164E+02  5.1654962E+02  0.0000000E+00  0.0000000E+00  1.0000000E+00
 11  1  4  4   0   0  1.2916625E+02  6.7274584E+01  8.3187375E+02  8.4452574E+02  1.3214499E-05  0.0000000E+00  1.0000000E+00
-13  1  5  5   0   0 -8.7480073E+01 -5.9861065E+01 -9.0808485E+01  1.3957898E+02  1.9660500E-06  0.0000000E+00  1.0000000E+00
 13  1  5  5   0   0 -8.3449681E+01  1.3051926E+01 -1.4525516E+01  8.5704100E+01  2.6973983E-06  0.0000000E+00  1.0000000E+00
</event>
<event>
9 100 1.0000000E+00 1.0000000E+03 7.8125000E-03 0.0000000E+00
 21 -1  0  0 501 502  0.0000000E+00  0.0000000E+00  6.9881096E+02  6.9881096E+02  0.0000000E+00  0.0000000E+00  1.0000000E+00
 21 -1  0  0 502 501  0.0000000E+00  0.0000000E+00 -3.3579928E+02  3.3579928E+02  0.0000000E+00  0.0000000E+00  1.0000000E+00
 39  2  1  2   0   0 -3.2684966E-13 -9.0949470E-13  3.6301168E+02  1.0346102E+03  9.6883480E+02  0.0000000E+00  1.0000000E+00
 23  2  3  3   0   0 -7.2803778E+01 -2.0659467E+02 -2.7219337E+02  3.5654851E+02  7.1104562E+01  0.0000000E+00  1.0000000E+00
 23  2  3  3   0   0  7.2803778E+01  2.0659467E+02  6.3520505E+02  6.7806173E+02  9.1107101E+01  0.0000000E+00  1.0000000E+00
-11  1  4  4   0   0 -2.4928760E+01 -2.2518513E+01 -7.7011307E+01  8.4019450E+01  9.7256079E-06  0.0000000E+00  1.0000000E+00
 11  1  4  4   0   0 -4.7875017E+01 -1.8407616E+02 -1.9518206E+02  2.7252906E+02  3.9320999E-06  0.0000000E+00  1.0000000E+00
-13  1  5  5   0   0  3.7838630E+01  4.9336113E+01  8.8802861E+01  1.0840554E+02  1.0789593E-05  0.0000000E+00  1.0000000E+00
 13  1  5  5   0   0  3.4965148E+01  1.5725856E+02  5.4640219E+02  5.6965619E+02  2.6973983E-06  0.0000000E+00  1.0000000E+00
</event>
<event>
9 100 1.0000000E+00 1.0000000E+03 7.8125000E-03 0.0000000E+00
 21 -1  0  0 501 502  0.0000000E+00  0.0000000E+00  5.2608403E+02  5.2608403E+02  0.0000000E+00  0.0000000E+00  1.0000000E+00
 21 -1  0  0 502 501  0.0000000E+00  0.0000000E+00 -4.8910608E+02  4.8910608E+02  0.0000000E+00  0.0000000E+00  1.0000000E+00
 39  2  1  2   0   0  5.6843419E-13 -6.3948846E-14  3.6977952E+01  1.0151901E+03  1.0145164E+03  0.0000000E+00  1.0000000E+00
 23  2  3  3   0   0 -4.2180881E+02  4.1175473E+01  2.8289606E+02  5.1649580E+02  8.4377955E+01  0.0000000E+00  1.0000000E+00
 23  2  3  3   0   0  4.2180881E+02 -4.1175473E+01 -2.4591811E+02  4.9869431E+02  9.2748075E+01  0.0000000E+00  1.0000000E+00
-11  1  4  4   0   0 -4.1630240E+02  2.8879785E+01  2.8049469E+02  5.0281110E+02  1.4098735E-06  0.0000000E+00  1.0000000E+00
 11  1  4  4   0   0 -5.5064085E+00  1.2295688E+01  2.4013728E+00  1.3684702E+01  1.3214499E-05  0.0000000E+00  1.0000000E+00
-13  1  5  5   0   0  4.1721771E+02 -5.3099925E+01 -2.3439739E+02  4.8148972E+02  1.5993604E-06  0.0000000E+00  1.0000000E+00
 13  1  5  5   0   0  4.5911034E+00  1.1924452E+01 -1.1520720E+01  1.7204586E+01  8.0921949E-06  0.0000000E+00  1.0000000E+00
</event>
<event>
9 100 1.0000000E+00 1.0000000E+03 7.8125000E-03 0.0000000E+00
 21 -1  0  0 501 502  0.0000000E+00  0.0000000E+00  4.4981607E+02  4.4981607E+02  0.0000000E+00  0.0000000E+00  1.0000000E+00
 21 -1  0  0 502 501  0.0000000E+00  0.0000000E+00 -5.8250899E+02  5.8250899E+02  0.0000000E+00  0.0000000E+00  1.0000000E+00
 39  2  1  2   0   0 -2.8421709E-13 -3.9790393E-13 -1.3269293E+02  1.0323251E+03  1.0237615E+03  0.0000000E+00  1.0000000E+00
 23  2  3  3   0   0 -2.5802241E+02 -4.3007559E+02 -1.4241824E+01  5.0945767E+02  8.8338637E+01  0.0000000E+00  1.0000000E+00
 23  2  3  3   0   0  2.5802241E+02  4.3007559E+02 -1.1845110E+02  5.2286739E+02  8.8425490E+01  0.0000000E+00  1.0000000E+00
-11  1  4  4   0   0 -1.0662556E+02 -1.5479333E+02 -4.6526625E+01  1.9363552E+02  6.8770433E-06  0.0000000E+00  1.0000000E+00
 11  1  4  4   0   0 -1.5139684E+02 -2.7528226E+02  3.2284801E+01  3.1582216E+02  5.5197892E-06  0.0000000E+00  1.0000000E+00
-13  1  5  5   0   0  1.9211856E+02  3.0929885E+02 -1.2541713E+02  3.8510359E+02  3.7697287E-07  0.0000000E+00  1.0000000E+00
 13  1  5  5   0   0  6.5903849E+01  1.2077674E+02  6.9660316E+00  1.3776380E+02  8.2038167E-06  0.0000000E+00  1.0000000E+00
</event>
<event>
9 100 1.0000000E+00 1.0000000E+03 7.8125000E-03 0.0000000E+00
 21 -1  0  0 501 502  0.0000000E+00  0.0000000E+00  2.8253189E+02  2.8253189E+02  0.0000000E+00  0.0000000E+00  1.0000000E+00
 21 -1  0  0 502 501  0.0000000E+00  0.0000000E+00 -8.8533752E+02  8.8533752E+02  0.0000000E+00  0.0000000E+00  1.0000000E+00
 39  2  1  2   0   0 -5.6843419E-14  8.5265128E-14 -6.0280564E+02  1.1678694E+03  1.0002721E+03  0.0000000E+00  1.0000000E+00
 23  2  3  3   0   0  1.5562736E+02 -1.7107589E+02  2.0558989E+02  3.2278420E+02  9.1845514E+01  0.0000000E+00  1.0000000E+00
 23  2  3  3   0   0 -1.5562736E+02  1.7107589E+02 -8.0839553E+02  8.4508521E+02  8.4728100E+01  0.0000000E+00  1.0000000E+00
-11  1  4  4   0   0 -6.4947448E+00 -3.3414213E+00 -4.7233382E+00  8.6980877E+00  3.8146973E-06  0.0000000E+00  1.0000000E+00
 11  1  4  4   0   0  1.6212211E+02 -1.6773446E+02  2.1031323E+02  3.1408611E+02  7.4684406E-07  0.0000000E+00  1.0000000E+00
-13  1  5  5   0   0 -1.1851415E+02  9.6467635E+01 -3.9827572E+02  4.2658546E+02  9.3440618E-06  0.0000000E+00  1.0000000E+00
 13  1  5  5   0   0 -3.7113206E+01  7.4608250E+01 -4.1011981E+02  4.1849975E+02  7.6293945E-06  0.0000000E+00  1.0000000E+00
</event>
<event>
9 100 1.0000000E+00 1.0000000E+03 7.8125000E-03 0.0000000E+00
 21 -1  0  0 501 502  0.0000000E+00  0.0000000E+00  2.1624358E+02  2.1624358E+02  0.0000000E+00  0.0000000E+00  1.0000000E+00
 21 -1  0  0 502 501  0.0000000E+00  0.0000000E+00 -1.1718120E+03  1.1718120E+03  0.0000000E+00  0.0000000E+00  1.0000000E+00
 39  2  1  2   0   0 -3.4106051E-13  3.9790393E-13 -9.5556841E+02  1.3880556E+03  1.0067707E+03  0.0000000E+00  1.0000000E+00
 23  2  3  3   0   0  2.6248689E+02 -2.8069976E+02 -9.1185843E+02  9.9380111E+02  9.1995233E+01  0.0000000E+00  1.0000000E+00
 23  2  3  3   0   0 -2.6248689E+02  2.8069976E+02 -4.3709979E+01  3.9425447E+02  7.6382567E+01  0.0000000E+00  1.0000000E+00
-11  1  4  4   0   0  1.2132469E+02 -1.9054046E+02 -4.7641795E+02  5.2725650E+02  2.2888184E-05  0.0000000E+00  1.0000000E+00
 11  1  4  4   0   0  1.4116220E+02 -9.0159305E+01 -4.3544047E+02  4.6654461E+02  2.4722064E-05  0.0000000E+00  1.0000000E+00
-13  1  5  5   0   0 -8.1847236E+01  4.9927306E+01  9.7011149E+00  9.6362947E+01  2.1705259E-05  0.0000000E+00  1.0000000E+00
 13  1  5  5   0   0 -1.8063965E+02  2.3077246E+02 -5.3411094E+01  2.9789152E+02  8.5623478E-06  0.0000000E+00  1.0000000E+00
</event>
<event>
9 100 1.0000000E+00 1.0000000E+03 7.8125000E-03 0.0000000E+00
 21 -1  0  0 501 502  0.0000000E+00  0.0000000E+00  5.0855413E+02  5.0855413E+02  0.0000000E+00  0.0000000E+00  1.0000000E+00
 21 -1  0  0 502 501  0.0000000E+00  0.0000000E+00 -4.8966485E+02  4.8966485E+02  0.0000000E+00  0.0000000E+00  1.0000000E+00
 39  2  1  2   0   0  1.2221335E-12  1.1368684E-12  1.8889282E+01  9.9821897E+02  9.9804024E+02  0.0000000E+00  1.0000000E+00
 23  2  3  3   0   0  2.3450047E+02  2.1083818E+02  3.8644747E+02  5.0728895E+02  9.2505245E+01  0.0000000E+00  1.0000000E+00
 23  2  3  3   0   0 -2.3450047E+02 -2.1083818E+02 -3.6755819E+02  4.9093003E+02  8.0436678E+01  0.0000000E+00  1.0000000E+00
-11  1  4  4   0   0  8.5943540E+01  4.2568631E+01  6.7523392E+01  1.1729360E+02  1.0789593E-05  0.0000000E+00  1.0000000E+00
 11  1  4  4   0   0  1.4855693E+02  1.6826955E+02  3.1892408E+02  3.8999535E+02  4.4731290E-06  0.0000000E+00  1.0000000E+00
-13  1  5  5   0   0 -7.6074068E+01 -8.9823779E+01 -8.5297037E+01  1.4536561E+02  6.6072495E-06  0.0000000E+00  1.0000000E+00
 13  1  5  5   0   0 -1.5842640E+02 -1.2101441E+02 -2.8226115E+02  3.4556442E+02  2.8610229E-06  0.0000000E+00  1.0000000E+00
</event>
<event>
9 100 1.0000000E+00 1.0000000E+03 7.8125000E-03 0.0000000E+00
 21 -1  0  0 501 502  0.0000000E+00  0.0000000E+00  1.5184238E+03  1.5184238E+03  0.0000000E+00  0.0000000E+00  1.0000000E+00
 21 -1  0  0 502 501  0.0000000E+00  0.0000000E+00 -1.6656197E+02  1.6656197E+02  0.0000000E+00  0.0000000E+00  1.0000000E+00
 39  2  1  2   0   0  3.4461323E-13  6.8780537E-12  1.3518618E+03  1.6849858E+03  1.0058065E+03  0.0000000E+00  1.0000000E+00
 23  2  3  3   0   0  2.0250195E+01  4.0101907E+02  1.1599462E+03  1.2308493E+03  9.1041736E+01  0.0000000E+00  1.0000000E+00
 23  2  3  3   0   0 -2.0250195E+01 -4.0101907E+02  1.9191569E+02  4.5413647E+02  9.0454063E+01  0.0000000E+00  1.0000000E+00
-11  1  4  4   0   0  5.6358098E+00  3.9235271E+02  1.1326772E+03  1.1987202E+03  2.3841858E-06  0.0000000E+00  1.0000000E+00
 11  1  4  4   0   0  1.4614386E+01  8.6663608E+00  2.7268939E+01  3.2129132E+01  0.0000000E+00  0.0000000E+00  1.0000000E+00
-13  1  5  5   0   0  4.7499043E+00 -3.2455118E+02  1.1947069E+02  3.4587465E+02  4.0460975E-06  0.0000000E+00  1.0000000E+00
 13  1  5  5   0   0 -2.5000100E+01 -7.6467895E+01  7.2445004E+01  1.0826182E+02  9.5367432E-06  0.0000000E+00  1.0000000E+00
</event>
<event>
9 100 1.0000000E+00 1.0000000E+03 7.8125000E-03 0.0000000E+00
 21 -1  0  0 501 502  0.0000000E+00  0.0000000E+00  5.5902067E+02  5.5902067E+02  0.0000000E+00  0.0000000E+00  1.0000000E+00
 21 -1  0  0 502 501  0.0000000E+00  0.0000000E+00 -4.7416142E+02  4.7416142E+02  0.0000000E+00  0.0000000E+00  1.0000000E+00
 39  2  1  2   0   0  1.7053026E-13 -1.7053026E-13  8.4859255E+01  1.0331821E+03  1.0296913E+03  0.0000000E+00  1.0000000E+00
 23  2  3  3   0   0  2.9187420E+02 -3.0091062E+02  3.2740702E+02  5.4015451E+02  9.3988243E+01  0.0000000E+00  1.0000000E+00
 23  2  3  3   0   0 -2.9187420E+02  3.0091062E+02 -2.4254776E+02  4.9302758E+02  9.2244379E+01  0.0000000E+00  1.0000000E+00
-11  1  4  4   0   0  2.0828033E+02 -2.0063432E+02  2.7625973E+02  3.9994283E+02  1.3486992E-06  0.0000000E+00  1.0000000E+00
 11  1  4  4   0   0  8.3593873E+01 -1.0027629E+02  5.1147288E+01  1.4021168E+02  6.6072495E-06  0.0000000E+00  1.0000000E+00
-13  1  5  5   0   0 -1.8683380E+02  2.1011487E+02 -2.0858891E+02  3.5009207E+02  4.7683716E-07  0.0000000E+00  1.0000000E+00
 13  1  5  5   0   0 -1.0504040E+02  9.0795752E+01 -3.3958848E+01  1.4293550E+02  7.6293945E-06  0.0000000E+00  1.0000000E+00
</event>
<event>
9 100 1.0000000E+00 1.0000000E+03 7.8125000E-03 0.0000000E+00
 21 -1  0  0 501 502  0.0000000E+00  0.0000000E+00  4.4774269E+02  4.4774269E+02  0.0000000E+00  0.0000000E+00  1.0000000E+00
 21 -1  0  0 502 501  0.0000000E+00  0.0000000E+00 -5.5670332E+02  5.5670332E+02  0.0000000E+00  0.0000000E+00  1.0000000E+00
 39  2  1  2   0   0  1.0231815E-12 -3.1263880E-13 -1.0896062E+02  1.0044460E+03  9.9851859E+02  0.0000000E+00  1.0000000E+00
 23  2  3  3   0   0  4.4699944E+02 -1.2717816E+02  9.3119030E+01  4.8906038E+02  1.2052437E+02  0.0000000E+00  1.0000000E+00
 23  2  3  3   0   0 -4.4699944E+02  1.2717816E+02 -2.0207965E+02  5.1538563E+02  9.3826323E+01  0.0000000E+00  1.0000000E+00
-11  1  4  4   0   0  3.5446235E+02 -8.7276200E+01  1.2086441E+02  3.8453725E+02  6.1805160E-06  0.0000000E+00  1.0000000E+00
 11  1  4  4   0   0  9.2537089E+01 -3.9901956E+01 -2.7745380E+01  1.0452313E+02  1.2212990E-05  0.0000000E+00  1.0000000E+00
-13  1  5  5   0   0 -2.9403952E+02  9.0038176E+01 -1.8031893E+02  3.5648426E+02  2.0509542E-06  0.0000000E+00  1.0000000E+00
 13  1  5  5   0   0 -1.5295992E+02  3.7139980E+01 -2.1760719E+01  1.5890137E+02  9.1473227E-06  0.0000000E+00  1.0000000E+00
</event>
<event>
9 100 1.0000000E+00 1.0000000E+03 7.8125000E-03 0.0000000E+00
 21 -1  0  0 501 502  0.0000000E+00  0.0000000E+00  4.2727139E+02  4.2727139E+02  0.0000000E+00  0.0000000E+00  1.0000000E+00
 21 -1  0  0 502 501  0.0000000E+00  0.0000000E+00 -5.8604832E+02  5.8604832E+02  0.0000000E+00  0.0000000E+00  1.0000000E+00
 39  2  1  2   0   0 -1.7763568E-13 -3.1263880E-12 -1.5877693E+02  1.0133197E+03  1.0008030E+03  0.0000000E+00  1.0000000E+00
 23  2  3  3   0   0 -1.8624915E+01 -3.3311642E+02  2.8625768E+02  4.4972509E+02  9.4846016E+01  0.0000000E+00  1.0000000E+00
 23  2  3  3   0   0  1.8624915E+01  3.3311642E+02 -4.4503461E+02  5.6359461E+02  9.0937575E+01  0.0000000E+00  1.0000000E+00
-11  1  4  4   0   0 -2.5749792E+01 -2.5259440E+02  2.6310521E+02  3.6563826E+02  1.8773098E-06  0.0000000E+00  1.0000000E+00
 11  1  4  4   0   0  7.1248765E+00 -8.0522020E+01  2.3152464E+01  8.4086837E+01  1.0789593E-05  0.0000000E+00  1.0000000E+00
-13  1  5  5   0   0  2.4341646E+01  1.4737136E+02 -2.6864468E+02  3.0737729E+02  2.6973983E-06  0.0000000E+00  1.0000000E+00
 13  1  5  5   0   0 -5.7167305E+00  1.8574505E+02 -1.7638993E+02  2.5621732E+02  0.0000000E+00  0.0000000E+00  1.0000000E+00
</event>
<event>
9 100 1.0000000E+00 1.0000000E+03 7.8125000E-03 0.0000000E+00
 21 -1  0  0 501 502  0.0000000E+00  0.0000000E+00  9.3446034E+01  9.3446034E+01  0.0000000E+00  0.0000000E+00  1.0000000E+00
 21 -1  0  0 502 501  0.0000000E+00  0.0000000E+00 -2.6750599E+03  2.6750599E+03  0.0000000E+00  0.0000000E+00  1.0000000E+00
 39  2  1  2   0   0  5.2864380E-12  4.9453774E-12 -2.5816139E+03  2.7685059E+03  9.9994748E+02  0.0000000E+00  1.0000000E+00
 23  2  3  3   0   0  2.9652777E+02  2.8342534E+02 -2.0587130E+03  2.1014291E+03  9.7191959E+01  0.0000000E+00  1.0000000E+00
 23  2  3  3   0   0 -2.9652777E+02 -2.8342534E+02 -5.2290087E+02  6.6707687E+02  5.7511635E+01  0.0000000E+00  1.0000000E+00
-11  1  4  4   0   0  2.3603041E+02  1.7338336E+02 -1.5517161E+03  1.5791121E+03  9.3440618E-06  0.0000000E+00  1.0000000E+00
 11  1  4  4   0   0  6.0497355E+01  1.1004198E+02 -5.0699690E+02  5.2231698E+02  3.0517578E-05  0.0000000E+00  1.0000000E+00
-13  1  5  5   0   0 -3.6298382E+01 -5.2992852E+01 -5.7560680E+01  8.6249909E+01  5.3947966E-06  0.0000000E+00  1.0000000E+00
 13  1  5  5   0   0 -2.6022939E+02 -2.3043249E+02 -4.6534019E+02  5.8082696E+02  1.1680077E-06  0.0000000E+00  1.0000000E+00
</event>
<event>
9 100 1.0000000E+00 1.0000000E+03 7.8125000E-03 0.0000000E+00
 21 -1  0  0 501 502  0.0000000E+00  0.0000000E+00  3.4541240E+02  3.4541240E+02  0.0000000E+00  0.0000000E+00  1.0000000E+00
 21 -1  0  0 502 501  0.0000000E+00  0.0000000E+00 -7.2683152E+02  7.2683152E+02  0.0000000E+00  0.0000000E+00  1.0000000E+00
 39  2  1  2   0   0 -4.5474735E-13  4.5474735E-13 -3.8141912E+02  1.0722439E+03  1.0021110E+03  0.0000000E+00  1.0000000E+00
 23  2  3  3   0   0  1.8950468E+02 -2.0708263E+02  2.4255987E+02  3.8204916E+02  9.1274480E+01  0.0000000E+00  1.0000000E+00
 23  2  3  3   0   0 -1.8950468E+02  2.0708263E+02 -6.2397900E+02  6.9019476E+02  9.0685086E+01  0.0000000E+00  1.0000000E+00
-11  1  4  4   0   0  4.0159279E+01 -6.1618462E+01  1.8177754E+01  7.5763007E+01  6.0315660E-06  0.0000000E+00  1.0000000E+00
 11  1  4  4   0   0  1.4934540E+02 -1.4546417E+02  2.2438212E+02  3.0628615E+02  3.8072394E-06  0.0000000E+00  1.0000000E+00
-13  1  5  5   0   0 -1.4818582E+02  1.5469989E+02 -3.6942888E+02  4.2704659E+02  5.3947966E-06  0.0000000E+00  1.0000000E+00
 13  1  5  5   0   0 -4.1318863E+01  5.2382737E+01 -2.5455011E+02  2.6314817E+02  5.3947966E-06  0.0000000E+00  1.0000000E+00
</event>
<event>
9 100 1.0000000E+00 1.0000000E+03 7.8125000E-03 0.0000000E+00
 21 -1  0  0 501 502  0.0000000E+00  0.0000000E+00  5.4258554E+02  5.4258554E+02  0.0000000E+00  0.0000000E+00  1.0000000E+00
 21 -1  0  0 502 501  0.0000000E+00  0.0000000E+00 -4.4843896E+02  4.4843896E+02  0.0000000E+00  0.0000000E+00  1.0000000E+00
 39  2  1  2   0   0  4.5474735E-13 -1.2789769E-13  9.4146580E+01  9.9102451E+02  9.8654245E+02  0.0000000E+00  1.0000000E+00
 23  2  3  3   0   0  4.1523735E+02 -1.0623278E+02  2.6841261E+02  5.1399340E+02  9.1850001E+01  0.0000000E+00  1.0000000E+00
 23  2  3  3   0   0 -4.1523735E+02  1.0623278E+02 -1.7426603E+02  4.7703110E+02  1.1611442E+02  0.0000000E+00  1.0000000E+00
-11  1  4  4   0   0  3.3648660E+02 -7.8348106E+01  2.5495186E+02  4.2937409E+02  3.3927559E-06  0.0000000E+00  1.0000000E+00
 11  1  4  4   0   0  7.8750750E+01 -2.7884678E+01  1.3460754E+01  8.4619311E+01  1.2063132E-05  0.0000000E+00  1.0000000E+00
-13  1  5  5   0   0 -3.3126878E+02  6.9721666E+01 -8.4734744E+01  3.4897005E+02  6.1805160E-06  0.0000000E+00  1.0000000E+00
 13  1  5  5   0   0 -8.3968574E+01  3.6511117E+01 -8.9531289E+01  1.2806106E+02  1.3687801E-05  0.0000000E+00  1.0000000E+00
</event>
<event>
9 100 1.0000000E+00 1.0000000E+03 7.8125000E-03 0.0000000E+00
 21 -1  0  0 501 502  0.0000000E+00  0.0000000E+00  3.8263796E+03  3.8263796E+03  0.0000000E+00  0.0000000E+00  1.0000000E+00
 21 -1  0  0 502 501  0.0000000E+00  0.0000000E+00 -6.5825880E+01  6.5825880E+01  0.0000000E+00  0.0000000E+00  1.0000000E+00
 39  2  1  2   0   0  7.7307050E-12 -2.1316282E-12  3.7605537E+03  3.8922054E+03  1.0037426E+03  0.0000000E+00  1.0000000E+00
 23  2  3  3   0   0  3.6020404E+02 -1.0069075E+02  6.3236742E+02  7.4031416E+02  9.1054465E+01  0.0000000E+00  1.0000000E+00
 23  2  3  3   0   0 -3.6020404E+02  1.0069075E+02  3.1281863E+03  3.1518913E+03  9.4782953E+01  0.0000000E+00  1.0000000E+00
-11  1  4  4   0   0  2.3462038E+02 -1.0815375E+02  4.0267374E+02  4.7842460E+02  1.5018478E-05  0.0000000E+00  1.0000000E+00
 11  1  4  4   0   0  1.2558366E+02  7.4630007E+00  2.2969368E+02  2.6188956E+02  2.4722064E-05  0.0000000E+00  1.0000000E+00
-13  1  5  5   0   0 -8.3691076E+01 -7.6316723E+00  9.1886938E+02  9.2270438E+02  6.1035156E-05  0.0000000E+00  1.0000000E+00
 13  1  5  5   0   0 -2.7651297E+02  1.0832243E+02  2.2093169E+03  2.2291869E+03  2.6428998E-05  0.0000000E+00  1.0000000E+00
</event>
<event>
9 100 1.0000000E+00 1.0000000E+03 7.8125000E-03 0.0000000E+00
 21 -1  0  0 501 502  0.0000000E+00  0.0000000E+00  1.7479197E+03  1.7479197E+03  0.0000000E+00  0.0000000E+00  1.0000000E+00
 21 -1  0  0 502 501  0.0000000E+00  0.0000000E+00 -1.2939239E+02  1.2939239E+02  0.0000000E+00  0.0000000E+00  1.0000000E+00
 39  2  1  2   0   0  7.3896445E-13 -8.5265128E-13  1.6185273E+03  1.8773121E+03  9.5114142E+02  0.0000000E+00  1.0000000E+00
 23  2  3  3   0   0  2.3865022E+02 -2.8156472E+02  1.3740535E+03  1.4256327E+03  9.0403337E+01  0.0000000E+00  1.0000000E+00
 23  2  3  3   0   0 -2.3865022E+02  2.8156472E+02  2.4447376E+02  4.5167940E+02  8.9522314E+01  0.0000000E+00  1.0000000E+00
-11  1  4  4   0   0 -6.9672517E-01 -9.4146632E-02 -1.3202855E+00  1.4958086E+00  4.0370961E-05  0.0000000E+00  1.0000000E+00
 11  1  4  4   0   0  2.3934695E+02 -2.8147057E+02  1.3753738E+03  1.4241368E+03  8.4910472E-07  0.0000000E+00  1.0000000E+00
-13  1  5  5   0   0 -4.9361396E+01  5.1214779E+01  9.3518430E+01  1.1749552E+02  1.4774259E-05  0.0000000E+00  1.0000000E+00
 13  1  5  5   0   0 -1.8928883E+02  2.3034994E+02  1.5095533E+02  3.3418388E+02  7.6293945E-06  0.0000000E+00  1.0000000E+00
</event>
<event>
9 100 1.0000000E+00 1.0000000E+03 7.8125000E-03 0.0000000E+00
 21 -1  0  0 501 502  0.0000000E+00  0.0000000E+00  1.0829948E+03  1.0829948E+03  0.0000000E+00  0.0000000E+00  1.0000000E+00
 21 -1  0  0 502 501  0.0000000E+00  0.0000000E+00 -2.2783286E+02  2.2783286E+02  0.0000000E+00  0.0000000E+00  1.0000000E+00
 39  2  1  2   0   0  7.8159701E-14  8.5265128E-14  8.5516194E+02  1.3108277E+03  9.9346222E+02  0.0000000E+00  1.0000000E+00
 23  2  3  3   0   0  4.2562012E+01  4.4080439E+01  1.0668489E+03  1.0725470E+03  9.1846706E+01  0.0000000E+00  1.0000000E+00
 23  2  3  3   0   0 -4.2562012E+01 -4.4080439E+01 -2.1168697E+02  2.3828067E+02  9.0618410E+01  0.0000000E+00  1.0000000E+00
-11  1  4  4   0   0  4.6551378E+01  6.9227936E+01  7.3400281E+02  7.3872841E+02  8.5299224E-06  0.0000000E+00  1.0000000E+00
 11  1  4  4   0   0 -3.9893663E+00 -2.5147497E+01  3.3284609E+02  3.3381856E+02  2.1579186E-05  0.0000000E+00  1.0000000E+00
-13  1  5  5   0   0  3.0044487E+00  2.3526478E+01 -7.9600567E+01  8.3058847E+01  9.5367432E-06  0.0000000E+00  1.0000000E+00
 13  1  5  5   0   0 -4.5566460E+01 -6.7606917E+01 -1.3208640E+02  1.5522183E+02  6.1064951E-06  0.0000000E+00  1.0000000E+00
</event>
<event>
9 100 1.0000000E+00 1.0000000E+03 7.8125000E-03 0.0000000E+00
 21 -1  0  0 501 502  0.0000000E+00  0.0000000E+00  2.1783227E+02  2.1783227E+02  0.0000000E+00  0.0000000E+00  1.0000000E+00
 21 -1  0  0 502 501  0.0000000E+00  0.0000000E+00 -1.2541447E+03  1.2541447E+03  0.0000000E+00  0.0000000E+00  1.0000000E+00
 39  2  1  2   0   0 -6.3948846E-14 -1.1937118E-12 -1.0363124E+03  1.4719770E+03  1.0453577E+03  0.0000000E+00  1.0000000E+00
 23  2  3  3   0   0 -2.6119509E+01 -4.2954942E+02 -9.1435155E+02  1.0151686E+03  9.6610074E+01  0.0000000E+00  1.0000000E+00
 23  2  3  3   0   0  2.6119509E+01  4.2954942E+02 -1.2196090E+02  4.5680843E+02  9.2760716E+01  0.0000000E+00  1.0000000E+00
-11  1  4  4   0   0 -5.4780098E+01 -1.4401334E+02 -3.1772505E+02  3.5311459E+02  1.8688124E-05  0.0000000E+00  1.0000000E+00
 11  1  4  4   0   0  2.8660590E+01 -2.8553608E+02 -5.9662650E+02  6.6205397E+02  1.0092740E-05  0.0000000E+00  1.0000000E+00
-13  1  5  5   0   0 -1.2137173E+01  7.5437833E+01  9.8255126E+00  7.7037123E+01  7.8641999E-06  0.0000000E+00  1.0000000E+00
 13  1  5  5   0   0  3.8256681E+01  3.5411159E+02 -1.3178641E+02  3.7977131E+02  1.3696105E-06  0.0000000E+00  1.0000000E+00
</event>
<event>
9 100 1.0000000E+00 1.0000000E+03 7.8125000E-03 0.0000000E+00
 21 -1  0  0 501 502  0.0000000E+00  0.0000000E+00  6.9694213E+02  6.9694213E+02  0.0000000E+00  0.0000000E+00  1.0000000E+00
 21 -1  0  0 502 501  0.0000000E+00  0.0000000E+00 -3.6019582E+02  3.6019582E+02  0.0000000E+00  0.0000000E+00  1.0000000E+00
 39  2  1  2   0   0 -2.8421709E-14 -2.2737368E-13  3.3674631E+02  1.0571380E+03  1.0020691E+03  0.0000000E+00  1.0000000E+00
 23  2  3  3   0   0 -1.7276312E+01 -2.4714753E+02 -2.8083592E+02  3.8544946E+02  9.1225537E+01  0.0000000E+00  1.0000000E+00
 23  2  3  3   0   0  1.7276312E+01  2.4714753E+02  6.1758223E+02  6.7168850E+02  9.1527325E+01  0.0000000E+00  1.0000000E+00
-11  1  4  4   0   0 -4.5588927E+01 -2.0393020E+02 -2.4770524E+02  3.2407370E+02  3.3036247E-06  0.0000000E+00  1.0000000E+00
 11  1  4  4   0   0  2.8312615E+01 -4.3217323E+01 -3.3130675E+01  6.1375751E+01  1.4774259E-05  0.0000000E+00  1.0000000E+00
-13  1  5  5   0   0  4.5392878E+01  8.9272508E+01  2.9321895E+02  3.0985069E+02  1.0092740E-05  0.0000000E+00  1.0000000E+00
 13  1  5  5   0   0 -2.8116566E+01  1.5787502E+02  3.2436328E+02  3.6183781E+02  7.6293945E-06  0.0000000E+00  1.0000000E+00
</event>
<event>
9 100 1.0000000E+00 1.0000000E+03 7.8125000E-03 0.0000000E+00
 21 -1  0  0 501 502  0.0000000E+00  0.0000000E+00  1.1417807E+03  1.1417807E+03  0.0000000E+00  0.0000000E+00  1.0000000E+00
 21 -1  0  0 502 501  0.0000000E+00  0.0000000E+00 -2.9694636E+02  2.9694636E+02  0.0000000E+00  0.0000000E+00  1.0000000E+00
 39  2  1  2   0   0  1.4210855E-12  7.9580786E-13  8.4483434E+02  1.4387271E+03  1.1645559E+03  0.0000000E+00  1.0000000E+00
 23  2  3  3   0   0  4.5023036E+02  2.4394935E+02  9.9464762E+01  5.2978173E+02  9.2502863E+01  0.0000000E+00  1.0000000E+00
 23  2  3  3   0   0 -4.5023036E+02 -2.4394935E+02  7.4536958E+02  9.0894533E+02  9.1581350E+01  0.0000000E+00  1.0000000E+00
-11  1  4  4   0   0  2.5921876E+01  4.3709045E+01  3.9250014E+00  5.0968911E+01  1.8929895E-05  0.0000000E+00  1.0000000E+00
 11  1  4  4   0   0  4.2430848E+02  2.0024031E+02  9.5539760E+01  4.7881282E+02  2.9986528E-06  0.0000000E+00  1.0000000E+00
-13  1  5  5   0   0 -5.6067350E+01 -6.9013625E+01  1.3174438E+02  1.5894342E+02  2.7508173E-05  0.0000000E+00  1.0000000E+00
 13  1  5  5   0   0 -3.9416301E+02 -1.7493572E+02  6.1362520E+02  7.5000192E+02  6.0315660E-06  0.0000000E+00  1.0000000E+00
</event>
<event>
9 100 1.0000000E+00 1.0000000E+03 7.8125000E-03 0.0000000E+00
 21 -1  0  0 501 502  0.0000000E+00  0.0000000E+00  4.4201657E+02  4.4201657E+02  0.0000000E+00  0.0000000E+00  1.0000000E+00
 21 -1  0  0 502 501  0.0000000E+00  0.0000000E+00 -5.5230248E+02  5.5230248E+02  0.0000000E+00  0.0000000E+00  1.0000000E+00
 39  2  1  2   0   0 -2.8421709E-14  2.2737368E-13 -1.1028591E+02  9.9431905E+02  9.8818388E+02  0.0000000E+00  1.0000000E+00
 23  2  3  3   0   0  5.0655144E+01 -3.1521551E+02  3.1320906E+02  4.5623130E+02  9.0112874E+01  0.0000000E+00  1.0000000E+00
 23  2  3  3   0   0 -5.0655144E+01  3.1521551E+02 -4.2349497E+02  5.3808774E+02  9.0904739E+01  0.0000000E+00  1.0000000E+00
-11  1  4  4   0   0  6.7079154E+01 -1.3480402E+02  1.4097490E+02  2.0626599E+02  7.1366451E-06  0.0000000E+00  1.0000000E+00
 11  1  4  4   0   0 -1.6424010E+01 -1.8041149E+02  1.7223416E+02  2.4996532E+02  3.3036247E-06  0.0000000E+00  1.0000000E+00
-13  1  5  5   0   0  4.2059343E+00  4.5884688E+01 -1.2044037E+02  1.2895339E+02  3.8146973E-06  0.0000000E+00  1.0000000E+00
 13  1  5  5   0   0 -5.4861078E+01  2.6933082E+02 -3.0305460E+02  4.0913435E+02  1.3486992E-06  0.0000000E+00  1.0000000E+00
</event>
<event>
9 100 1.0000000E+00 1.0000000E+03 7.8125000E-03 0.0000000E+00
 21 -1  0  0 501 502  0.0000000E+00  0.0000000E+00  1.4504091E+03  1.4504091E+03  0.0000000E+00  0.0000000E+00  1.0000000E+00
 21 -1  0  0 502 501  0.0000000E+00  0.0000000E+00 -1.7325047E+02  1.7325047E+02  0.0000000E+00  0.0000000E+00  1.0000000E+00
 39  2  1  2   0   0 -2.3092639E-13 -1.1368684E-13  1.2771586E+03  1.6236595E+03  1.0025648E+03  0.0000000E+00  1.0000000E+00
 23  2  3  3   0   0 -3.0581418E+01 -1.5730235E+01 -1.5882112E+02  1.8433795E+02  8.7026825E+01  0.0000000E+00  1.0000000E+00
 23  2  3  3   0   0  3.0581418E+01  1.5730235E+01  1.4359797E+03  1.4393216E+03  9.1794524E+01  0.0000000E+00  1.0000000E+00
-11  1  4  4   0   0  1.8495726E+00  2.9032128E+01 -2.1098186E+01  3.5936317E+01  1.9073486E-06  0.0000000E+00  1.0000000E+00
 11  1  4  4   0   0 -3.2430990E+01 -4.4762363E+01 -1.3772293E+02  1.4840163E+02  5.3312015E-07  0.0000000E+00  1.0000000E+00
-13  1  5  5   0   0 -1.6109844E+01  3.0852313E+01  2.6013584E+02  2.6245390E+02  0.0000000E+00  0.0000000E+00  1.0000000E+00
 13  1  5  5   0   0  4.6691261E+01 -1.5122079E+01  1.1758439E+03  1.1768677E+03  3.8146973E-06  0.0000000E+00  1.0000000E+00
</event>
<event>
9 100 1.0000000E+00 1.0000000E+03 7.8125000E-03 0.0000000E+00
 21 -1  0  0 501 502  0.0000000E+00  0.0000000E+00  7.3974906E+02  7.3974906E+02  0.0000000E+00  0.0000000E+00  1.0000000E+00
 21 -1  0  0 502 501  0.0000000E+00  0.0000000E+00 -3.2983299E+02  3.2983299E+02  0.0000000E+00  0.0000000E+00  1.0000000E+00
 39  2  1  2   0   0  2.4868996E-14  9.0949470E-13  4.0991607E+02  1.0695820E+03  9.8791425E+02  0.0000000E+00  1.0000000E+00
 23  2  3  3   0   0  9.5360894E+00  4.4322493E+02  4.1861633E+02  6.1680780E+02  9.3128684E+01  0.0000000E+00  1.0000000E+00
 23  2  3  3   0   0 -9.5360894E+00 -4.4322493E+02 -8.7002617E+00  4.5277424E+02  9.1594425E+01  0.0000000E+00  1.0000000E+00
-11  1  4  4   0   0 -1.5328932E+01  4.0104903E+02  3.9228861E+02  5.6121801E+02  1.9660500E-06  0.0000000E+00  1.0000000E+00
 11  1  4  4   0   0  2.4865021E+01  4.2175901E+01  2.6327725E+01  5.5589793E+01  1.0789593E-05  0.0000000E+00  1.0000000E+00
-13  1  5  5   0   0  1.4968285E+01 -1.2302885E+02 -3.9724425E+01  1.3014676E+02  1.6166819E-05  0.0000000E+00  1.0000000E+00
 13  1  5  5   0   0 -2.4504374E+01 -3.2019608E+02  3.1024163E+01  3.2262748E+02  6.8604920E-06  0.0000000E+00  1.0000000E+00
</event>
<event>
9 100 1.0000000E+00 1.0000000E+03 7.8125000E-03 0.0000000E+00
 21 -1  0  0 501 502  0.0000000E+00  0.0000000E+00  9.8873647E+02  9.8873647E+02  0.0000000E+00  0.0000000E+00  1.0000000E+00
 21 -1  0  0 502 501  0.0000000E+00  0.0000000E+00 -2.3678448E+02  2.3678448E+02  0.0000000E+00  0.0000000E+00  1.0000000E+00
 39  2  1  2   0   0  1.9539925E-14  3.4106051E-13  7.5195199E+02  1.2255210E+03  9.6771370E+02  0.0000000E+00  1.0000000E+00
 23  2  3  3   0   0  8.0849923E+00  1.2543332E+02 -2.0425206E+02  2.5668913E+02  9.1496003E+01  0.0000000E+00  1.0000000E+00
 23  2  3  3   0   0 -8.0849923E+00 -1.2543332E+02  9.5620405E+02  9.6883182E+02  9.2249828E+01  0.0000000E+00  1.0000000E+00
-11  1  4  4   0   0  1.1985502E+01  1.2096234E+02 -1.1530172E+02  1.6754112E+02  4.5736613E-06  0.0000000E+00  1.0000000E+00
 11  1  4  4   0   0 -3.9005096E+00  4.4709739E+00 -8.8950340E+01  8.9148003E+01  7.1366451E-06  0.0000000E+00  1.0000000E+00
-13  1  5  5   0   0 -3.4654555E+01 -5.5209684E+01  2.3971919E+02  2.4842371E+02  0.0000000E+00  0.0000000E+00  1.0000000E+00
 13  1  5  5   0   0  2.6569563E+01 -7.0223633E+01  7.1648486E+02  7.2040812E+02  5.3947966E-06  0.0000000E+00  1.0000000E+00
</event>
<event>
9 100 1.0000000E+00 1.0000000E+03 7.8125000E-03 0.0000000E+00
 21 -1  0  0 501 502  0.0000000E+00  0.0000000E+00  4.7566050E+02  4.7566050E+02  0.0000000E+00  0.0000000E+00  1.0000000E+00
 21 -1  0  0 502 501  0.0000000E+00  0.0000000E+00 -5.1985957E+02  5.1985957E+02  0.0000000E+00  0.0000000E+00  1.0000000E+00
 39  2  1  2   0   0  1.5916157E-12  1.4210855E-13 -4.4199078E+01  9.9552007E+02  9.9453841E+02  0.0000000E+00  1.0000000E+00
 23  2  3  3   0   0  3.3682044E+02  2.7250497E+01 -3.7565110E+02  5.1338259E+02  9.0869901E+01  0.0000000E+00  1.0000000E+00
 23  2  3  3   0   0 -3.3682044E+02 -2.7250497E+01  3.3145202E+02  4.8213748E+02  9.1681528E+01  0.0000000E+00  1.0000000E+00
-11  1  4  4   0   0  1.7873350E+02  3.8494260E+01 -2.5701819E+02  3.1541373E+02  6.0315660E-06  0.0000000E+00  1.0000000E+00
 11  1  4  4   0   0  1.5808694E+02 -1.1243763E+01 -1.1863291E+02  1.9796886E+02  8.5299224E-06  0.0000000E+00  1.0000000E+00
-13  1  5  5   0   0 -9.4196145E+01  1.6171023E+01  4.9475553E+01  1.0762084E+02  1.2651920E-05  0.0000000E+00  1.0000000E+00
 13  1  5  5   0   0 -2.4262430E+02 -4.3421521E+01  2.8197647E+02  3.7451663E+02  5.4367801E-06  0.0000000E+00  1.0000000E+00
</event>
<event>
9 100 1.0000000E+00 1.0000000E+03 7.8125000E-03 0.0000000E+00
 21 -1  0  0 501 502  0.0000000E+00  0.0000000E+00  3.1897843E+02  3.1897843E+02  0.0000000E+00  0.0000000E+00  1.0000000E+00
 21 -1  0  0 502 501  0.0000000E+00  0.0000000E+00 -7.8731325E+02  7.8731325E+02  0.0000000E+00  0.0000000E+00  1.0000000E+00
 39  2  1  2   0   0  4.2632564E-14 -3.9790393E-13 -4.6833482E+02  1.1062917E+03  1.0022693E+03  0.0000000E+00  1.0000000E+00
 23  2  3  3   0   0 -7.5273217E+01  4.8455215E+02 -2.0051144E+02  5.3830376E+02  9.5442408E+01  0.0000000E+00  1.0000000E+00
 23  2  3  3   0   0  7.5273217E+01 -4.8455215E+02 -2.6782338E+02  5.6798792E+02  1.0209834E+02  0.0000000E+00  1.0000000E+00
-11  1  4  4   0   0 -3.0360180E+01  2.3006236E+02 -1.4609029E+02  2.7421306E+02  9.5367432E-07  0.0000000E+00  1.0000000E+00
 11  1  4  4   0   0 -4.4913038E+01  2.5448979E+02 -5.4421153E+01  2.6409070E+02  2.6973983E-06  0.0000000E+00  1.0000000E+00
-13  1  5  5   0   0 -1.2667561E+01 -1.1056493E+01 -2.0772534E+01  2.6724732E+01  1.1121658E-05  0.0000000E+00  1.0000000E+00
 13  1  5  5   0   0  8.7940778E+01 -4.7349566E+02 -2.4705085E+02  5.4126319E+02  1.5993604E-06  0.0000000E+00  1.0000000E+00
</event>
<event>
9 100 1.0000000E+00 1.0000000E+03 7.8125000E-03 0.0000000E+00
 21 -1  0  0 501 502  0.0000000E+00  0.0000000E+00  8.4825684E+02  8.4825684E+02  0.0000000E+00  0.0000000E+00  1.0000000E+00
 21 -1  0  0 502 501  0.0000000E+00  0.0000000E+00 -2.9639793E+02  2.9639793E+02  0.0000000E+00  0.0000000E+00  1.0000000E+00
 39  2  1  2   0   0 -3.3537617E-12 -2.7711167E-13  5.5185891E+02  1.1446548E+03  1.0028391E+03  0.0000000E+00  1.0000000E+00
 23  2  3  3   0   0  4.7930229E+02  4.0115145E+01  1.4838521E+02  5.1141386E+02  9.0476829E+01  0.0000000E+00  1.0000000E+00
 23  2  3  3   0   0 -4.7930229E+02 -4.0115145E+01  4.0347370E+02  6.3324091E+02  8.2843901E+01  0.0000000E+00  1.0000000E+00
-11  1  4  4   0   0  3.9562775E+02  5.4336215E+01  1.4983838E+02  4.2652700E+02  4.2959818E-06  0.0000000E+00  1.0000000E+00
 11  1  4  4   0   0  8.3674544E+01 -1.4221070E+01 -1.4531716E+00  8.4886865E+01  1.0619668E-05  0.0000000E+00  1.0000000E+00
-13  1  5  5   0   0 -9.7816374E+01 -3.8448924E+01  6.7604111E+01  1.2496671E+02  1.0789593E-05  0.0000000E+00  1.0000000E+00
 13  1  5  5   0   0 -3.8148592E+02 -1.6662208E+00  3.3586959E+02  5.0827420E+02  4.0460975E-06  0.0000000E+00  1.0000000E+00
</event>
<event>
9 100 1.0000000E+00 1.0000000E+03 7.8125000E-03 0.0000000E+00
 21 -1  0  0 501 502  0.0000000E+00  0.0000000E+00  4.8875286E+02  4.8875286E+02  0.0000000E+00  0.0000000E+00  1.0000000E+00
 21 -1  0  0 502 501  0.0000000E+00  0.0000000E+00 -5.1115041E+02  5.1115041E+02  0.0000000E+00  0.0000000E+00  1.0000000E+00
 39  2  1  2   0   0 -8.5265128E-14  2.8421709E-13 -2.2397551E+01  9.9990327E+02  9.9965239E+02  0.0000000E+00  1.0000000E+00
 23  2  3  3   0   0 -1.7045306E+02  3.1357612E+02 -3.4821273E+02  5.0686409E+02  9.0966364E+01  0.0000000E+00  1.0000000E+00
 23  2  3  3   0   0  1.7045306E+02 -3.1357612E+02  3.2581518E+02  4.9303917E+02  9.7713209E+01  0.0000000E+00  1.0000000E+00
-11  1  4  4   0   0 -1.6861520E+02  2.3449320E+02 -2.6351310E+02  3.9096969E+02  6.1064951E-06  0.0000000E+00  1.0000000E+00
 11  1  4  4   0   0 -1.8378611E+00  7.9082915E+01 -8.4699633E+01  1.1589441E+02  1.5258789E-05  0.0000000E+00  1.0000000E+00
-13  1  5  5   0   0  7.2198336E+00 -9.1152854E+01  1.0812254E+02  1.4160315E+02  7.6293945E-06  0.0000000E+00  1.0000000E+00
 13  1  5  5   0   0  1.6323323E+02 -2.2242326E+02  2.1769264E+02  3.5143602E+02  7.1366451E-06  0.0000000E+00  1.0000000E+00
</event>
<event>
9 100 1.0000000E+00 1.0000000E+03 7.8125000E-03 0.0000000E+00
 21 -1  0  0 501 502  0.0000000E+00  0.0000000E+00  1.2422666E+03  1.2422666E+03  0.0000000E+00  0.0000000E+00  1.0000000E+00
 21 -1  0  0 502 501  0.0000000E+00  0.0000000E+00 -2.0332562E+02  2.0332562E+02  0.0000000E+00  0.0000000E+00  1.0000000E+00
 39  2  1  2   0   0  3.2400749E-12 -4.9027449E-13  1.0389410E+03  1.4455922E+03  1.0051560E+03  0.0000000E+00  1.0000000E+00
 23  2  3  3   0   0  3.5724564E+02 -5.5471491E+01  1.0034074E+03  1.0704165E+03  9.0903935E+01  0.0000000E+00  1.0000000E+00
 23  2  3  3   0   0 -3.5724564E+02  5.5471491E+01  3.5533558E+01  3.7517571E+02  9.3769113E+01  0.0000000E+00  1.0000000E+00
-11  1  4  4   0   0  1.2705900E+02  1.1647522E+01  4.3960607E+02  4.5774791E+02  0.0000000E+00  0.0000000E+00  1.0000000E+00
 11  1  4  4   0   0  2.3018665E+02 -6.7119013E+01  5.6380137E+02  6.1266862E+02  1.3214499E-05  0.0000000E+00  1.0000000E+00
-13  1  5  5   0   0 -8.1815907E+01  4.1666039E+01 -1.9747277E+01  9.3914090E+01  1.0425191E-05  0.0000000E+00  1.0000000E+00
 13  1  5  5   0   0 -2.7542973E+02  1.3805452E+01  5.5280835E+01  2.8126162E+02  4.7564357E-06  0.0000000E+00  1.0000000E+00
</event>
<event>
9 100 1.0000000E+00 1.0000000E+03 7.8125000E-03 0.0000000E+00
 21 -1  0  0 501 502  0.0000000E+00  0.0000000E+00  1.0274229E+03  1.0274229E+03  0.0000000E+00  0.0000000E+00  1.0000000E+00
 21 -1  0  0 502 501  0.0000000E+00  0.0000000E+00 -2.4094862E+02  2.4094862E+02  0.0000000E+00  0.0000000E+00  1.0000000E+00
 39  2  1  2   0   0  5.1727511E-12 -5.1869620E-13  7.8647424E+02  1.2683715E+03  9.9510023E+02  0.0000000E+00  1.0000000E+00
 23  2  3  3   0   0 -4.0664722E+02  4.2651603E+01  5.0564480E+01  4.2208494E+02  9.1748616E+01  0.0000000E+00  1.0000000E+00
 23  2  3  3   0   0  4.0664722E+02 -4.2651603E+01  7.3590976E+02  8.4628653E+02  8.6351613E+01  0.0000000E+00  1.0000000E+00
-11  1  4  4   0   0 -6.4537959E+01  2.0124663E+01 -2.3043239E+01  7.1422273E+01  7.5092391E-06  0.0000000E+00  1.0000000E+00
 11  1  4  4   0   0 -3.4210926E+02  2.2526941E+01  7.3607719E+01  3.5066267E+02  2.2618372E-06  0.0000000E+00  1.0000000E+00
-13  1  5  5   0   0  2.7492607E+02  8.9646733E+00  4.5299092E+02  5.2996744E+02  9.3440618E-06  0.0000000E+00  1.0000000E+00
 13  1  5  5   0   0  1.3172115E+02 -5.1616277E+01  2.8291884E+02  3.1631909E+02  1.8688124E-05  0.0000000E+00  1.0000000E+00
</event>
<event>
9 100 1.0000000E+00 1.0000000E+03 7.8125000E-03 0.0000000E+00
 21 -1  0  0 501 502  0.0000000E+00  0.0000000E+00  5.2486659E+02  5.2486659E+02  0.0000000E+00  0.0000000E+00  1.0000000E+00
 21 -1  0  0 502 501  0.0000000E+00  0.0000000E+00 -4.8312660E+02  4.8312660E+02  0.0000000E+00  0.0000000E+00  1.0000000E+00
 39  2  1  2   0   0 -1.8758328E-12 -2.8776981E-13  4.1739993E+01  1.0079932E+03  1.0071286E+03  0.0000000E+00  1.0000000E+00
 23  2  3  3   0   0 -1.7752867E+02 -3.1945869E+01  1.5054013E+02  7.7847638E+02  7.4217665E+02  0.0000000E+00  1.0000000E+00
 23  2  3  3   0   0  1.7752867E+02  3.1945869E+01 -1.0880014E+02  2.2951681E+02  9.1123687E+01  0.0000000E+00  1.0000000E+00
-11  1  4  4   0   0 -2.4778872E+02 -3.4090102E+01  4.2610254E+02  4.9408983E+02  2.6428998E-05  0.0000000E+00  1.0000000E+00
 11  1  4  4   0   0  7.0260049E+01  2.1442333E+00 -2.7556241E+02  2.8438655E+02  3.5376047E-05  0.0000000E+00  1.0000000E+00
-13  1  5  5   0   0  5.3756095E+01 -3.1999354E+01 -3.8667792E+01  7.3545052E+01  3.4385216E-06  0.0000000E+00  1.0000000E+00
 13  1  5  5   0   0  1.2377258E+02  6.3945223E+01 -7.0132347E+01  1.5597176E+02  3.5683226E-06  0.0000000E+00  1.0000000E+00
</event>
<event>
9 100 1.0000000E+00 1.0000000E+03 7.8125000E-03 0.0000000E+00
 21 -1  0  0 501 502  0.0000000E+00  0.0000000E+00  3.5505701E+02  3.5505701E+02  0.0000000E+00  0.0000000E+00  1.0000000E+00
 21 -1  0  0 502 501  0.0000000E+00  0.0000000E+00 -7.0094564E+02  7.0094564E+02  0.0000000E+00  0.0000000E+00  1.0000000E+00
 39  2  1  2   0   0 -5.1159077E-13  1.2789769E-13 -3.4588863E+02  1.0560027E+03  9.9774880E+02  0.0000000E+00  1.0000000E+00
 23  2  3  3   0   0  8.3655427E+01 -2.1761101E+01 -6.8320850E+02  6.9591273E+02  1.0024421E+02  0.0000000E+00  1.0000000E+00
 23  2  3  3   0   0 -8.3655427E+01  2.1761101E+01  3.3731987E+02  3.6008992E+02  9.1696679E+01  0.0000000E+00  1.0000000E+00
-11  1  4  4   0   0  8.7022170E+01  1.6960366E+01 -5.5178072E+02  5.5885819E+02  3.8146973E-06  0.0000000E+00  1.0000000E+00
 11  1  4  4   0   0 -3.3667430E+00 -3.8721467E+01 -1.3142778E+02  1.3705455E+02  1.5258789E-05  0.0000000E+00  1.0000000E+00
-13  1  5  5   0   0 -8.5577369E+01  4.7541335E+01  2.9124901E+02  3.0726154E+02  2.2365645E-06  0.0000000E+00  1.0000000E+00
 13  1  5  5   0   0  1.9219422E+00 -2.5780234E+01  4.6070860E+01  5.2828387E+01  8.5299224E-06  0.0000000E+00  1.0000000E+00
</event>
<event>
9 100 1.0000000E+00 1.0000000E+03 7.8125000E-03 0.0000000E+00
 21 -1  0  0 501 502  0.0000000E+00  0.0000000E+00  1.1206910E+03  1.1206910E+03  0.0000000E+00  0.0000000E+00  1.0000000E+00
 21 -1  0  0 502 501  0.0000000E+00  0.0000000E+00 -2.2319938E+02  2.2319938E+02  0.0000000E+00  0.0000000E+00  1.0000000E+00
 39  2  1  2   0   0  1.9895197E-13  3.4106051E-13  8.9749163E+02  1.3438904E+03  1.0002750E+03  0.0000000E+00  1.0000000E+00
 23  2  3  3   0   0 -1.4674333E+02 -2.0180109E+02  1.0189457E+03  1.0530485E+03  9.1671138E+01  0.0000000E+00  1.0000000E+00
 23  2  3  3   0   0  1.4674333E+02  2.0180109E+02 -1.2145407E+02  2.9084185E+02  8.7066707E+01  0.0000000E+00  1.0000000E+00
-11  1  4  4   0   0 -1.5272176E+02 -1.8102021E+02  9.8274927E+02  1.0108849E+03  2.2868307E-06  0.0000000E+00  1.0000000E+00
 11  1  4  4   0   0  5.9784373E+00 -2.0780876E+01  3.6196435E+01  4.2163591E+01  0.0000000E+00  0.0000000E+00  1.0000000E+00
-13  1  5  5   0   0  4.7277398E+01  1.9399928E+01 -1.8955067E+00  5.1138073E+01  1.3621194E-05  0.0000000E+00  1.0000000E+00
 13  1  5  5   0   0  9.9465928E+01  1.8240116E+02 -1.1955856E+02  2.3970378E+02  3.8896883E-06  0.0000000E+00  1.0000000E+00
</event>
<event>
9 100 1.0000000E+00 1.0000000E+03 7.8125000E-03 0.0000000E+00
 21 -1  0  0 501 502  0.0000000E+00  0.0000000E+00  1.2449621E+03  1.2449621E+03  0.0000000E+00  0.0000000E+00  1.0000000E+00
 21 -1  0  0 502 501  0.0000000E+00  0.0000000E+00 -1.9741548E+02  1.9741548E+02  0.0000000E+00  0.0000000E+00  1.0000000E+00
 39  2  1  2   0   0  5.6843419E-13 -6.2172489E-15  1.0475466E+03  1.4423776E+03  9.9151358E+02  0.0000000E+00  1.0000000E+00
 23  2  3  3   0   0  4.0705616E+02 -7.9789621E+00  9.1292973E+02  1.0036304E+03  8.9860847E+01  0.0000000E+00  1.0000000E+00
 23  2  3  3   0   0 -4.0705616E+02  7.9789621E+00  1.3461692E+02  4.3874718E+02  9.2838530E+01  0.0000000E+00  1.0000000E+00
-11  1  4  4   0   0  5.9478033E+01 -3.2046806E+01  1.7486077E+02  1.8745913E+02  1.0789593E-05  0.0000000E+00  1.0000000E+00
 11  1  4  4   0   0  3.4757812E+02  2.4067844E+01  7.3806896E+02  8.1617131E+02  4.6720309E-06  0.0000000E+00  1.0000000E+00
-13  1  5  5   0   0 -8.3459323E+00 -5.2319951E+00 -1.0356296E+01  1.4292698E+01  1.2063132E-05  0.0000000E+00  1.0000000E+00
 13  1  5  5   0   0 -3.9871022E+02  1.3210957E+01  1.4497321E+02  4.2445448E+02  1.3747886E-06  0.0000000E+00  1.0000000E+00
</event>
<event>
9 100 1.0000000E+00 1.0000000E+03 7.8125000E-03 0.0000000E+00
 21 -1  0  0 501 502  0.0000000E+00  0.0000000E+00  1.9625167E+02  1.9625167E+02  0.0000000E+00  0.0000000E+00  1.0000000E+00
 21 -1  0  0 502 501  0.0000000E+00  0.0000000E+00 -1.2707044E+03  1.2707044E+03  0.0000000E+00  0.0000000E+00  1.0000000E+00
 39  2  1  2   0   0  1.9895197E-13  5.6843419E-13 -1.0744528E+03  1.4669561E+03  9.9875495E+02  0.0000000E+00  1.0000000E+00
 23  2  3  3   0   0  1.5348613E+02  4.2072717E+02 -8.3304743E+02  9.5029328E+02  9.2303634E+01  0.0000000E+00  1.0000000E+00
 23  2  3  3   0   0 -1.5348613E+02 -4.2072717E+02 -2.4140532E+02  5.1666281E+02  8.9969884E+01  0.0000000E+00  1.0000000E+00
-11  1  4  4   0   0  6.4905753E+01  1.7704008E+02 -4.4818397E+02  4.8623535E+02  1.6184390E-05  0.0000000E+00  1.0000000E+00
 11  1  4  4   0   0  8.8580382E+01  2.4368709E+02 -3.8486346E+02  4.6405793E+02  1.0789593E-05  0.0000000E+00  1.0000000E+00
-13  1  5  5   0   0 -9.1194833E+01 -3.5367303E+02 -1.9052750E+02  4.1194883E+02  3.8146973E-06  0.0000000E+00  1.0000000E+00
 13  1  5  5   0   0 -6.2291302E+01 -6.7054138E+01 -5.0877822E+01  1.0471397E+02  1.2651920E-05  0.0000000E+00  1.0000000E+00
</event>
<event>
9 100 1.0000000E+00 1.0000000E+03 7.8125000E-03 0.0000000E+00
 21 -1  0  0 501 502  0.0000000E+00  0.0000000E+00  2.8992823E+03  2.8992823E+03  0.0000000E+00  0.0000000E+00  1.0000000E+00
 21 -1  0  0 502 501  0.0000000E+00  0.0000000E+00 -8.6907287E+01  8.6907287E+01  0.0000000E+00  0.0000000E+00  1.0000000E+00
 39  2  1  2   0   0  1.5916157E-12 -1.1937118E-12  2.8123750E+03  2.9861896E+03  1.0039298E+03  0.0000000E+00  1.0000000E+00
 23  2  3  3   0   0 -3.6892311E+02  2.7269681E+02  1.9475259E+03  2.0029889E+03  9.2948363E+01  0.0000000E+00  1.0000000E+00
 23  2  3  3   0   0  3.6892311E+02 -2.7269681E+02  8.6484907E+02  9.8320070E+02  9.0839863E+01  0.0000000E+00  1.0000000E+00
-11  1  4  4   0   0 -6.1656311E+01  7.9599032E+01  3.1876497E+02  3.3428822E+02  6.1035156E-05  0.0000000E+00  1.0000000E+00
 11  1  4  4   0   0 -3.0726680E+02  1.9309777E+02  1.6287610E+03  1.6687007E+03  1.0789593E-05  0.0000000E+00  1.0000000E+00
-13  1  5  5   0   0  1.6059096E+02 -6.7513798E+01  2.9135303E+02  3.3946157E+02  2.6428998E-05  0.0000000E+00  1.0000000E+00
 13  1  5  5   0   0  2.0833215E+02 -2.0518301E+02  5.7349604E+02  6.4373913E+02  1.4273290E-05  0.0000000E+00  1.0000000E+00
</event>
<event>
9 100 1.0000000E+00 1.0000000E+03 7.8125000E-03 0.0000000E+00
 21 -1  0  0 501 502  0.0000000E+00  0.0000000E+00  3.6931017E+02  3.6931017E+02  0.0000000E+00  0.0000000E+00  1.0000000E+00
 21 -1  0  0 502 501  0.0000000E+00  0.0000000E+00 -7.0998214E+02  7.0998214E+02  0.0000000E+00  0.0000000E+00  1.0000000E+00
 39  2  1  2   0   0  2.2737368E-12 -1.4210855E-12 -3.4067197E+02  1.0792923E+03  1.0241165E+03  0.0000000E+00  1.0000000E+00
 23  2  3  3   0   0 -3.2084849E+02  1.9949929E+02 -5.2180864E+02  6.5079381E+02  9.2220415E+01  0.0000000E+00  1.0000000E+00
 23  2  3  3   0   0  3.2084849E+02 -1.9949929E+02  1.8113667E+02  4.2849850E+02  8.9759404E+01  0.0000000E+00  1.0000000E+00
-11  1  4  4   0   0 -2.8027677E+02  1.3146705E+02 -4.2183257E+02  5.2324122E+02  4.0460975E-06  0.0000000E+00  1.0000000E+00
 11  1  4  4   0   0 -4.0571726E+01  6.8032233E+01 -9.9976068E+01  1.2755259E+02  1.6184390E-05  0.0000000E+00  1.0000000E+00
-13  1  5  5   0   0  8.1389244E+01 -1.4938346E+01  6.2604675E+01  1.0376275E+02  1.0789593E-05  0.0000000E+00  1.0000000E+00
 13  1  5  5   0   0  2.3945925E+02 -1.8456094E+02  1.1853200E+02  3.2473575E+02  4.7683716E-06  0.0000000E+00  1.0000000E+00
</event>
<event>
9 100 1.0000000E+00 1.0000000E+03 7.8125000E-03 0.0000000E+00
 21 -1  0  0 501 502  0.0000000E+00  0.0000000E+00  8.6159525E+02  8.6159525E+02  0.0000000E+00  0.0000000E+00  1.0000000E+00
 21 -1  0  0 502 501  0.0000000E+00  0.0000000E+00 -2.9159652E+02  2.9159652E+02  0.0000000E+00  0.0000000E+00  1.0000000E+00
 39  2  1  2   0   0  3.8369308E-13  1.1084467E-12  5.6999873E+02  1.1531918E+03  1.0024733E+03  0.0000000E+00  1.0000000E+00
 23  2  3  3   0   0  3.6925693E+01  1.0983063E+02  8.3376182E+02  8.5402627E+02  1.4413820E+02  0.0000000E+00  1.0000000E+00
 23  2  3  3   0   0 -3.6925693E+01 -1.0983063E+02 -2.6376309E+02  2.9916550E+02  8.0639654E+01  0.0000000E+00  1.0000000E+00
-11  1  4  4   0   0 -6.0291484E+00 -1.8298015E+01  1.5629565E+01  2.4808291E+01  2.1579186E-05  0.0000000E+00  1.0000000E+00
 11  1  4  4   0   0  4.2954841E+01  1.2812864E+02  8.1813225E+02  8.2921798E+02  2.1258062E-06  0.0000000E+00  1.0000000E+00
-13  1  5  5   0   0 -1.4409060E+01 -8.2385172E+01 -2.4526959E+02  2.5913724E+02  3.0251926E-06  0.0000000E+00  1.0000000E+00
 13  1  5  5   0   0 -2.2516633E+01 -2.7445455E+01 -1.8493499E+01  4.0028256E+01  1.2361032E-05  0.0000000E+00  1.0000000E+00
</event>
<event>
9 100 1.0000000E+00 1.0000000E+03 7.8125000E-03 0.0000000E+00
 21 -1  0  0 501 502  0.0000000E+00  0.0000000E+00  5.7766757E+02  5.7766757E+02  0.0000000E+00  0.0000000E+00  1.0000000E+00
 21 -1  0  0 502 501  0.0000000E+00  0.0000000E+00 -4.3751567E+02  4.3751567E+02  0.0000000E+00  0.0000000E+00  1.0000000E+00
 39  2  1  2   0   0  4.2632564E-14  1.4210855E-14  1.4015190E+02  1.0151832E+03  1.0054623E+03  0.0000000E+00  1.0000000E+00
 23  2  3  3   0   0 -1.0397804E+02 -7.0390912E+01  5.5285523E+02  5.7416365E+02  9.0822242E+01  0.0000000E+00  1.0000000E+00
 23  2  3  3   0   0  1.0397804E+02  7.0390912E+01 -4.1270333E+02  4.4101959E+02  9.1694731E+01  0.0000000E+00  1.0000000E+00
-11  1  4  4   0   0 -2.3760811E+01 -6.1487276E+00  2.0498266E+01  3.1977522E+01  1.3214499E-05  0.0000000E+00  1.0000000E+00
 11  1  4  4   0   0 -8.0217227E+01 -6.4242184E+01  5.3235696E+02  5.4218613E+02  2.5231851E-06  0.0000000E+00  1.0000000E+00
-13  1  5  5   0   0  5.8088896E+00 -1.1648608E+01 -5.3933755E+00  1.4089775E+01  2.0893957E-05  0.0000000E+00  1.0000000E+00
 13  1  5  5   0   0  9.8169148E+01  8.2039519E+01 -4.0730996E+02  4.2692981E+02  2.5372263E-06  0.0000000E+00  1.0000000E+00
</event>
<event>
9 100 1.0000000E+00 1.0000000E+03 7.8125000E-03 0.0000000E+00
 21 -1  0  0 501 502  0.0000000E+00  0.0000000E+00  4.4844021E+02  4.4844021E+02  0.0000000E+00  0.0000000E+00  1.0000000E+00
 21 -1  0  0 502 501  0.0000000E+00  0.0000000E+00 -5.8876361E+02  5.8876361E+02  0.0000000E+00  0.0000000E+00  1.0000000E+00
 39  2  1  2   0   0  1.3073986E-12  8.5265128E-13 -1.4032340E+02  1.0372038E+03  1.0276678E+03  0.0000000E+00  1.0000000E+00
 23  2  3  3   0   0  3.7216134E+02  2.7595899E+02  1.4367520E+02  4.9357835E+02  9.1211798E+01  0.0000000E+00  1.0000000E+00
 23  2  3  3   0   0 -3.7216134E+02 -2.7595899E+02 -2.8399860E+02  5.4362547E+02  1.4697385E+01  0.0000000E+00  1.0000000E+00
-11  1  4  4   0   0  3.8158217E+01  3.5335984E+00 -2.6239504E+00  3.8411208E+01  6.6072495E-06  0.0000000E+00  1.0000000E+00
 11  1  4  4   0   0  3.3400313E+02  2.7242540E+02  1.4629915E+02  4.5516714E+02  1.6900834E-06  0.0000000E+00  1.0000000E+00
-13  1  5  5   0   0 -3.4447190E+02 -2.5866549E+02 -2.6074220E+02  5.0354267E+02  1.1182823E-06  0.0000000E+00  1.0000000E+00
 13  1  5  5   0   0 -2.7689439E+01 -1.7293504E+01 -2.3256406E+01  4.0082799E+01  7.6293945E-06  0.0000000E+00  1.0000000E+00
</event>
<event>
9 100 1.0000000E+00 1.0000000E+03 7.8125000E-03 0.0000000E+00
 21 -1  0  0 501 502  0.0000000E+00  0.0000000E+00  9.9206835E+02  9.9206835E+02  0.0000000E+00  0.0000000E+00  1.0000000E+00
 21 -1  0  0 502 501  0.0000000E+00  0.0000000E+00 -2.5212812E+02  2.5212812E+02  0.0000000E+00  0.0000000E+00  1.0000000E+00
 39  2  1  2   0   0 -2.8421709E-13  0.0000000E+00  7.3994023E+02  1.2441965E+03  1.0002566E+03  0.0000000E+00  1.0000000E+00
 23  2  3  3   0   0  4.5544010E+02 -1.6705604E+02  4.7019208E+02  6.8156838E+02  9.0119116E+01  0.0000000E+00  1.0000000E+00
 23  2  3  3   0   0 -4.5544010E+02  1.6705604E+02  2.6974815E+02  5.6262809E+02  9.1939680E+01  0.0000000E+00  1.0000000E+00
-11  1  4  4   0   0  2.7035146E+02 -1.4564299E+02  2.9162407E+02  4.2349309E+02  3.3036247E-06  0.0000000E+00  1.0000000E+00
 11  1  4  4   0   0  1.8508863E+02 -2.1413048E+01  1.7856801E+02  2.5807529E+02  9.3440618E-06  0.0000000E+00  1.0000000E+00
-13  1  5  5   0   0 -4.2814811E+01  2.7475419E+01  1.1632528E+00  5.0885753E+01  2.5303839E-05  0.0000000E+00  1.0000000E+00
 13  1  5  5   0   0 -4.1262528E+02  1.3958062E+02  2.6858490E+02  5.1174234E+02  4.9513355E-06  0.0000000E+00  1.0000000E+00
</event>
<event>
9 100 1.0000000E+00 1.0000000E+03 7.8125000E-03 0.0000000E+00
 21 -1  0  0 501 502  0.0000000E+00  0.0000000E+00  4.7778924E+02  4.7778924E+02  0.0000000E+00  0.0000000E+00  1.0000000E+00
 21 -1  0  0 502 501  0.0000000E+00  0.0000000E+00 -5.2631396E+02  5.2631396E+02  0.0000000E+00  0.0000000E+00  1.0000000E+00
 39  2  1  2   0   0  2.8421709E-13 -4.5474735E-13 -4.8524722E+01  1.0041032E+03  1.0029300E+03  0.0000000E+00  1.0000000E+00
 23  2  3  3   0   0  2.8346259E+02 -3.8869259E+02  8.4417010E+01  4.9677252E+02  9.0684803E+01  0.0000000E+00  1.0000000E+00
 23  2  3  3   0   0 -2.8346259E+02  3.8869259E+02 -1.3294173E+02  5.0733067E+02  9.0983141E+01  0.0000000E+00  1.0000000E+00
-11  1  4  4   0   0  1.0944921E+01 -1.0925738E+01 -1.3799043E+01  2.0726231E+01  2.1452373E-05  0.0000000E+00  1.0000000E+00
 11  1  4  4   0   0  2.7251767E+02 -3.7776685E+02  9.8216053E+01  4.7604629E+02  2.3176935E-06  0.0000000E+00  1.0000000E+00
-13  1  5  5   0   0 -2.4195916E+02  2.8110174E+02 -7.5510732E+01  3.7850270E+02  3.0157830E-06  0.0000000E+00  1.0000000E+00
 13  1  5  5   0   0 -4.1503435E+01  1.0759085E+02 -5.7431000E+01  1.2882797E+02  1.0576760E-05  0.0000000E+00  1.0000000E+00
</event>
<event>
9 100 1.0000000E+00 1.0000000E+03 7.8125000E-03 0.0000000E+00
 21 -1  0  0 501 502  0.0000000E+00  0.0000000E+00  1.0695213E+03  1.0695213E+03  0.0000000E+00  0.0000000E+00  1.0000000E+00
 21 -1  0  0 502 501  0.0000000E+00  0.0000000E+00 -2.2430644E+02  2.2430644E+02  0.0000000E+00  0.0000000E+00  1.0000000E+00
 39  2  1  2   0   0  2.8990144E-12 -5.2224891E-13  8.4521488E+02  1.2938278E+03  9.7959281E+02  0.0000000E+00  1.0000000E+00
 23  2  3  3   0   0 -1.6886126E+02  3.0454296E+01 -1.7373296E+02  2.5634730E+02  7.8033397E+01  0.0000000E+00  1.0000000E+00
 23  2  3  3   0   0  1.6886126E+02 -3.0454296E+01  1.0189478E+03  1.0374805E+03  9.3109699E+01  0.0000000E+00  1.0000000E+00
-11  1  4  4   0   0 -1.2650060E+02 -1.0702101E+01 -9.8401107E+01  1.6062290E+02  2.5231851E-06  0.0000000E+00  1.0000000E+00
 11  1  4  4   0   0 -4.2360654E+01  4.1156397E+01 -7.5331851E+01  9.5724406E+01  3.8146973E-06  0.0000000E+00  1.0000000E+00
-13  1  5  5   0   0  1.5422816E+02 -7.2189792E+00  6.7476066E+02  6.9219967E+02  9.3440618E-06  0.0000000E+00  1.0000000E+00
 13  1  5  5   0   0  1.4633100E+01 -2.3235317E+01  3.4418717E+02  3.4528078E+02  2.7508173E-05  0.0000000E+00  1.0000000E+00
</event>
<event>
9 100 1.0000000E+00 1.0000000E+03 7.8125000E-03 0.0000000E+00
 21 -1  0  0 501 502  0.0000000E+00  0.0000000E+00  5.7768265E+02  5.7768265E+02  0.0000000E+00  0.0000000E+00  1.0000000E+00
 21 -1  0  0 502 501  0.0000000E+00  0.0000000E+00 -4.3016775E+02  4.3016775E+02  0.0000000E+00  0.0000000E+00  1.0000000E+00
 39  2  1  2   0   0  1.1368684E-13  2.8421709E-14  1.4751490E+02  1.0078504E+03  9.9699638E+02  0.0000000E+00  1.0000000E+00
 23  2  3  3   0   0  4.1392331E+02  9.2790420E+01 -1.7378316E+02  4.6763376E+02  9.2402296E+01  0.0000000E+00  1.0000000E+00
 23  2  3  3   0   0 -4.1392331E+02 -9.2790420E+01  3.2129806E+02  5.4021663E+02  9.3053741E+01  0.0000000E+00  1.0000000E+00
-11  1  4  4   0   0  3.2556455E+02  1.1083223E+02 -1.4051689E+02  3.7151185E+02  3.1987209E-06  0.0000000E+00  1.0000000E+00
 11  1  4  4   0   0  8.8358759E+01 -1.8041815E+01 -3.3266274E+01  9.6121915E+01  8.3139399E-06  0.0000000E+00  1.0000000E+00
-13  1  5  5   0   0 -1.6778523E+02 -4.6994717E+01  1.8894728E+02  2.5702424E+02  8.7405695E-06  0.0000000E+00  1.0000000E+00
 13  1  5  5   0   0 -2.4613808E+02 -4.5795703E+01  1.3235078E+02  2.8319239E+02  1.0092740E-05  0.0000000E+00  1.0000000E+00
</event>
<event>
9 100 1.0000000E+00 1.0000000E+03 7.8125000E-03 0.0000000E+00
 21 -1  0  0 501 502  0.0000000E+00  0.0000000E+00  5.2753318E+02  5.2753318E+02  0.0000000E+00  0.0000000E+00  1.0000000E+00
 21 -1  0  0 502 501  0.0000000E+00  0.0000000E+00 -4.5219120E+02  4.5219120E+02  0.0000000E+00  0.0000000E+00  1.0000000E+00
 39  2  1  2   0   0 -1.4210855E-12 -5.6843419E-13  7.5341985E+01  9.7972438E+02  9.7682314E+02  0.0000000E+00  1.0000000E+00
 23  2  3  3   0   0  4.4202717E+02  1.8430145E+02  1.1370999E+01  4.8767484E+02  9.1336779E+01  0.0000000E+00  1.0000000E+00
 23  2  3  3   0   0 -4.4202717E+02 -1.8430145E+02  6.3970986E+01  4.9204954E+02  9.3088274E+01  0.0000000E+00  1.0000000E+00
-11  1  4  4   0   0  6.3251923E+01  6.2207310E+01 -9.1008291E+00  8.9181726E+01  1.7063176E-05  0.0000000E+00  1.0000000E+00
 11  1  4  4   0   0  3.7877524E+02  1.2209414E+02  2.0471828E+01  3.9849311E+02  4.8962957E-06  0.0000000E+00  1.0000000E+00
-13  1  5  5   0   0 -3.5150056E+02 -1.0488515E+02  3.7298781E+01  3.6870685E+02  5.4367801E-06  0.0000000E+00  1.0000000E+00
 13  1  5  5   0   0 -9.0526605E+01 -7.9416297E+01  2.6672206E+01  1.2334270E+02  3.8146973E-06  0.0000000E+00  1.0000000E+00
</event>
<event>
9 100 1.0000000E+00 1.0000000E+03 7.8125000E-03 0.0000000E+00
 21 -1  0  0 501 502  0.0000000E+00  0.0000000E+00  5.5667452E+02  5.5667452E+02  0.0000000E+00  0.0000000E+00  1.0000000E+00
 21 -1  0  0 502 501  0.0000000E+00  0.0000000E+00 -4.4325123E+02  4.4325123E+02  0.0000000E+00  0.0000000E+00  1.0000000E+00
 39  2  1  2   0   0  9.0949470E-13 -6.8212103E-13  1.1342329E+02  9.9992576E+02  9.9347203E+02  0.0000000E+00  1.0000000E+00
 23  2  3  3   0   0  3.4533990E+02 -2.7514326E+02 -1.4529628E+02  4.7395222E+02  9.2499926E+01  0.0000000E+00  1.0000000E+00
 23  2  3  3   0   0 -3.4533990E+02  2.7514326E+02  2.5871957E+02  5.2597354E+02  1.2144501E+02  0.0000000E+00  1.0000000E+00
-11  1  4  4   0   0  4.9161930E+01 -5.8074018E+01  7.0138237E+00  7.6411260E+01  1.4400166E-05  0.0000000E+00  1.0000000E+00
 11  1  4  4   0   0  2.9617797E+02 -2.1706924E+02 -1.5231011E+02  3.9754096E+02  4.2507766E-06  0.0000000E+00  1.0000000E+00
-13  1  5  5   0   0 -1.9041971E+02  2.2215834E+02  1.4446235E+02  3.2631789E+02  8.4226235E-06  0.0000000E+00  1.0000000E+00
 13  1  5  5   0   0 -1.5492019E+02  5.2984918E+01  1.1425723E+02  1.9965565E+02  1.3754087E-05  0.0000000E+00  1.0000000E+00
</event>
<event>
9 100 1.0000000E+00 1.0000000E+03 7.8125000E-03 0.0000000E+00
 21 -1  0  0 501 502  0.0000000E+00  0.0000000E+00  5.1745950E+02  5.1745950E+02  0.0000000E+00  0.0000000E+00  1.0000000E+00
 21 -1  0  0 502 501  0.0000000E+00  0.0000000E+00 -4.9314429E+02  4.9314429E+02  0.0000000E+00  0.0000000E+00  1.0000000E+00
 39  2  1  2   0   0 -3.4106051E-13 -5.4001248E-13  2.4315215E+01  1.0106038E+03  1.0103112E+03  0.0000000E+00  1.0000000E+00
 23  2  3  3   0   0  1.0334703E+02  1.8099172E+02 -4.3903025E+02  4.9476675E+02  9.2779149E+01  0.0000000E+00  1.0000000E+00
 23  2  3  3   0   0 -1.0334703E+02 -1.8099172E+02  4.6334546E+02  5.1583704E+02  8.9220097E+01  0.0000000E+00  1.0000000E+00
-11  1  4  4   0   0 -6.5459529E+00  6.5068332E+01 -9.3489074E+01  1.1409182E+02  8.5299224E-06  0.0000000E+00  1.0000000E+00
 11  1  4  4   0   0  1.0989298E+02  1.1592339E+02 -3.4554117E+02  3.8067493E+02  3.8146973E-06  0.0000000E+00  1.0000000E+00
-13  1  5  5   0   0 -1.0301529E+02 -1.8147283E+02  4.6733384E+02  5.1180607E+02  1.3506733E-06  0.0000000E+00  1.0000000E+00
 13  1  5  5   0   0 -3.3173547E-01  4.8110686E-01 -3.9883811E+00  4.0309671E+00  9.3440618E-06  0.0000000E+00  1.0000000E+00
</event>
<event>
9 100 1.0000000E+00 1.0000000E+03 7.8125000E-03 0.0000000E+00
 21 -1  0  0 501 502  0.0000000E+00  0.0000000E+00  2.6949481E+02  2.6949481E+02  0.0000000E+00  0.0000000E+00  1.0000000E+00
 21 -1  0  0 502 501  0.0000000E+00  0.0000000E+00 -9.4317913E+02  9.4317913E+02  0.0000000E+00  0.0000000E+00  1.0000000E+00
 39  2  1  2   0   0  2.5295321E-12 -2.2168933E-12 -6.7368431E+02  1.2126739E+03  1.0083291E+03  0.0000000E+00  1.0000000E+00
 23  2  3  3   0   0 -2.5591571E+02  2.2510846E+02  9.6075026E+01  3.6551313E+02  9.0569125E+01  0.0000000E+00  1.0000000E+00
 23  2  3  3   0   0  2.5591571E+02 -2.2510846E+02 -7.6975934E+02  8.4716081E+02  9.4790937E+01  0.0000000E+00  1.0000000E+00
-11  1  4  4   0   0 -1.4302434E+02  8.9669545E+01  9.4736666E+00  1.6907495E+02  6.8770433E-06  0.0000000E+00  1.0000000E+00
 11  1  4  4   0   0 -1.1289137E+02  1.3543892E+02  8.6601360E+01  1.9643818E+02  5.7332109E-06  0.0000000E+00  1.0000000E+00
-13  1  5  5   0   0  2.4792542E+02 -1.9063821E+02 -6.3506853E+02  7.0789970E+02  3.3036247E-06  0.0000000E+00  1.0000000E+00
 13  1  5  5   0   0  7.9902911E+00 -3.4470251E+01 -1.3469081E+02  1.3926111E+02  1.0789593E-05  0.0000000E+00  1.0000000E+00
</event>
<event>
9 100 1.0000000E+00 1.0000000E+03 7.8125000E-03 0.0000000E+00
 21 -1  0  0 501 502  0.0000000E+00  0.0000000E+00  3.2470832E+02  3.2470832E+02  0.0000000E+00  0.0000000E+00  1.0000000E+00
 21 -1  0  0 502 501  0.0000000E+00  0.0000000E+00 -7.7814637E+02  7.7814637E+02  0.0000000E+00  0.0000000E+00  1.0000000E+00
 39  2  1  2   0   0 -1.8189894E-12  1.5631940E-13 -4.5343806E+02  1.1028547E+03  1.0053270E+03  0.0000000E+00  1.0000000E+00
 23  2  3  3   0   0 -3.9621079E+02  3.3648608E+01 -5.4930858E+02  6.8403625E+02  8.9724369E+01  0.0000000E+00  1.0000000E+00
 23  2  3  3   0   0  3.9621079E+02 -3.3648608E+01  9.5870522E+01  4.1881844E+02  9.0013947E+01  0.0000000E+00  1.0000000E+00
-11  1  4  4   0   0 -3.6038894E+02  3.7192606E+01 -4.4586042E+02  5.7450413E+02  4.4731290E-06  0.0000000E+00  1.0000000E+00
 11  1  4  4   0   0 -3.5821844E+01 -3.5439984E+00 -1.0344816E+02  1.0953212E+02  1.6184390E-05  0.0000000E+00  1.0000000E+00
-13  1  5  5   0   0  5.6182927E+01 -3.7665218E+01  1.6776492E+01  6.9689602E+01  1.2794884E-05  0.0000000E+00  1.0000000E+00
 13  1  5  5   0   0  3.4002786E+02  4.0166105E+00  7.9094030E+01  3.4912884E+02  3.1268304E-06  0.0000000E+00  1.0000000E+00
</event>
<event>
9 100 1.0000000E+00 1.0000000E+03 7.8125000E-03 0.0000000E+00
 21 -1  0  0 501 502  0.0000000E+00  0.0000000E+00  1.5225345E+02  1.5225345E+02  0.0000000E+00  0.0000000E+00  1.0000000E+00
 21 -1  0  0 502 501  0.0000000E+00  0.0000000E+00 -1.6418821E+03  1.6418821E+03  0.0000000E+00  0.0000000E+00  1.0000000E+00
 39  2  1  2   0   0  1.5347723E-12  2.5579538E-13 -1.4896286E+03  1.7941355E+03  9.9996441E+02  0.0000000E+00  1.0000000E+00
 23  2  3  3   0   0 -4.6651454E+02 -7.9264390E+01 -5.1375474E+02  7.0608176E+02  1.0338691E+02  0.0000000E+00  1.0000000E+00
 23  2  3  3   0   0  4.6651454E+02  7.9264390E+01 -9.7587387E+02  1.0880538E+03  8.7249682E+01  0.0000000E+00  1.0000000E+00
-11  1  4  4   0   0 -3.6280568E+02 -6.7895599E+01 -4.5657370E+02  5.8710928E+02  1.7841613E-06  0.0000000E+00  1.0000000E+00
 11  1  4  4   0   0 -1.0370886E+02 -1.1368792E+01 -5.7181047E+01  1.1897247E+02  1.8688124E-05  0.0000000E+00  1.0000000E+00
-13  1  5  5   0   0  1.0618547E+01 -7.4426244E+00 -5.9221549E+01  6.0624567E+01  1.0789593E-05  0.0000000E+00  1.0000000E+00
 13  1  5  5   0   0  4.5589599E+02  8.6707015E+01 -9.1665232E+02  1.0274292E+03  1.6518124E-06  0.0000000E+00  1.0000000E+00
</event>
<event>
9 100 1.0000000E+00 1.0000000E+03 7.8125000E-03 0.0000000E+00
 21 -1  0  0 501 502  0.0000000E+00  0.0000000E+00  1.1259013E+03  1.1259013E+03  0.0000000E+00  0.0000000E+00  1.0000000E+00
 21 -1  0  0 502 501  0.0000000E+00  0.0000000E+00 -2.3941904E+02  2.3941904E+02  0.0000000E+00  0.0000000E+00  1.0000000E+00
 39  2  1  2   0   0  9.6633812E-13  5.9685590E-13  8.8648223E+02  1.3653203E+03  1.0383876E+03  0.0000000E+00  1.0000000E+00
 23  2  3  3   0   0  3.4616256E+02  1.9171375E+02  8.6350540E+02  9.5751801E+02  1.2089871E+02  0.0000000E+00  1.0000000E+00
 23  2  3  3   0   0 -3.4616256E+02 -1.9171375E+02  2.2976836E+01  4.0780229E+02  9.5875404E+01  0.0000000E+00  1.0000000E+00
-11  1  4  4   0   0  2.9255800E+02  1.7453058E+02  6.1832042E+02  7.0595414E+02  1.1121658E-05  0.0000000E+00  1.0000000E+00
 11  1  4  4   0   0  5.3604560E+01  1.7183176E+01  2.4518498E+02  2.5156388E+02  3.2368780E-05  0.0000000E+00  1.0000000E+00
-13  1  5  5   0   0 -2.4214340E+02 -1.4751648E+02 -2.5791468E+01  2.8470992E+02  7.6887681E-06  0.0000000E+00  1.0000000E+00
 13  1  5  5   0   0 -1.0401916E+02 -4.4197270E+01  4.8768305E+01  1.2309237E+02  1.3795353E-05  0.0000000E+00  1.0000000E+00
</event>
<event>
9 100 1.0000000E+00 1.0000000E+03 7.8125000E-03 0.0000000E+00
 21 -1  0  0 501 502  0.0000000E+00  0.0000000E+00  4.3323804E+02  4.3323804E+02  0.0000000E+00  0.0000000E+00  1.0000000E+00
 21 -1  0  0 502 501  0.0000000E+00  0.0000000E+00 -5.7409910E+02  5.7409910E+02  0.0000000E+00  0.0000000E+00  1.0000000E+00
 39  2  1  2   0   0  0.0000000E+00  0.0000000E+00 -1.4086106E+02  1.0073371E+03  9.9743987E+02  0.0000000E+00  1.0000000E+00
 23  2  3  3   0   0  1.1089454E+02 -4.7675565E+02 -1.0747875E+02  5.0851842E+02  8.6288798E+01  0.0000000E+00  1.0000000E+00
 23  2  3  3   0   0 -1.1089454E+02  4.7675565E+02 -3.3382305E+01  4.9881873E+02  9.0067750E+01  0.0000000E+00  1.0000000E+00
-11  1  4  4   0   0 -1.1961130E+01 -2.5796108E+01 -1.4680094E+01  3.2000203E+01  3.8146973E-06  0.0000000E+00  1.0000000E+00
 11  1  4  4   0   0  1.2285567E+02 -4.5095954E+02 -9.2798660E+01  4.7651822E+02  1.8157418E-06  0.0000000E+00  1.0000000E+00
-13  1  5  5   0   0 -6.0881603E+01  1.8664896E+02 -5.4277319E+01  2.0369200E+02  8.8664789E-06  0.0000000E+00  1.0000000E+00
 13  1  5  5   0   0 -5.0012942E+01  2.9010669E+02  2.0895014E+01  2.9512673E+02  5.0463701E-06  0.0000000E+00  1.0000000E+00
</event>
<event>
9 100 1.0000000E+00 1.0000000E+03 7.8125000E-03 0.0000000E+00
 21 -1  0  0 501 502  0.0000000E+00  0.0000000E+00  4.0821171E+02  4.0821171E+02  0.0000000E+00  0.0000000E+00  1.0000000E+00
 21 -1  0  0 502 501  0.0000000E+00  0.0000000E+00 -6.1622136E+02  6.1622136E+02  0.0000000E+00  0.0000000E+00  1.0000000E+00
 39  2  1  2   0   0  5.6843419E-14  0.0000000E+00 -2.0800966E+02  1.0244331E+03  1.0030928E+03  0.0000000E+00  1.0000000E+00
 23  2  3  3   0   0  2.7809864E+02  3.0597017E+02  1.7082608E+02  4.5687140E+02  9.2700213E+01  0.0000000E+00  1.0000000E+00
 23  2  3  3   0   0 -2.7809864E+02 -3.0597017E+02 -3.7883573E+02  5.6756167E+02  8.7482182E+01  0.0000000E+00  1.0000000E+00
-11  1  4  4   0   0  2.8231876E+02  3.0719869E+02  1.7335100E+02  4.5180249E+02  1.2601837E-06  0.0000000E+00  1.0000000E+00
 11  1  4  4   0   0 -4.2201231E+00 -1.2285161E+00 -2.5249197E+00  5.0689161E+00  8.7405695E-06  0.0000000E+00  1.0000000E+00
-13  1  5  5   0   0 -2.3773479E+02 -2.0937749E+02 -3.0227279E+02  4.3786482E+02  3.4385216E-06  0.0000000E+00  1.0000000E+00
 13  1  5  5   0   0 -4.0363856E+01 -9.6592688E+01 -7.6562939E+01  1.2969685E+02  3.8146973E-06  0.0000000E+00  1.0000000E+00
</event>
<event>
9 100 1.0000000E+00 1.0000000E+03 7.8125000E-03 0.0000000E+00
 21 -1  0  0 501 502  0.0000000E+00  0.0000000E+00  7.5632609E+02  7.5632609E+02  0.0000000E+00  0.0000000E+00  1.0000000E+00
 21 -1  0  0 502 501  0.0000000E+00  0.0000000E+00 -3.2652132E+02  3.2652132E+02  0.0000000E+00  0.0000000E+00  1.0000000E+00
 39  2  1  2   0   0 -2.8421709E-13 -1.3642421E-12  4.2980476E+02  1.0828474E+03  9.9389455E+02  0.0000000E+00  1.0000000E+00
 23  2  3  3   0   0 -6.9489268E+01 -3.5732766E+02 -1.3935930E+02  4.0113490E+02  9.4743724E+01  0.0000000E+00  1.0000000E+00
 23  2  3  3   0   0  6.9489268E+01  3.5732766E+02  5.6916407E+02  6.8171251E+02  9.0952700E+01  0.0000000E+00  1.0000000E+00
-11  1  4  4   0   0 -9.2150236E+01 -3.0435781E+02 -1.1014087E+02  3.3653581E+02  3.4877631E-06  0.0000000E+00  1.0000000E+00
 11  1  4  4   0   0  2.2660968E+01 -5.2969855E+01 -2.9218433E+01  6.4599086E+01  7.3871295E-06  0.0000000E+00  1.0000000E+00
-13  1  5  5   0   0 -6.4260414E+00  5.2292395E+00  4.4782163E+01  4.5542080E+01  7.6293945E-06  0.0000000E+00  1.0000000E+00
 13  1  5  5   0   0  7.5915309E+01  3.5209843E+02  5.2438190E+02  6.3617043E+02  1.5814899E-06  0.0000000E+00  1.0000000E+00
</event>
<event>
9 100 1.0000000E+00 1.0000000E+03 7.8125000E-03 0.0000000E+00
 21 -1  0  0 501 502  0.0000000E+00  0.0000000E+00  5.5412895E+02  5.5412895E+02  0.0000000E+00  0.0000000E+00  1.0000000E+00
 21 -1  0  0 502 501  0.0000000E+00  0.0000000E+00 -4.4778093E+02  4.4778093E+02  0.0000000E+00  0.0000000E+00  1.0000000E+00
 39  2  1  2   0   0 -1.1368684E-13  2.2737368E-13  1.0634802E+02  1.0019099E+03  9.9624972E+02  0.0000000E+00  1.0000000E+00
 23  2  3  3   0   0 -3.1092563E+02  3.5151047E+02  1.9366246E+02  5.1601369E+02  9.2361342E+01  0.0000000E+00  1.0000000E+00
 23  2  3  3   0   0  3.1092563E+02 -3.5151047E+02 -8.7314432E+01  4.8589619E+02  9.0757583E+01  0.0000000E+00  1.0000000E+00
-11  1  4  4   0   0 -2.9933479E+02  2.9531431E+02  1.7735391E+02  4.5636199E+02  2.6549169E-06  0.0000000E+00  1.0000000E+00
 11  1  4  4   0   0 -1.1590846E+01  5.6196164E+01  1.6308550E+01  5.9651700E+01  1.7166138E-05  0.0000000E+00  1.0000000E+00
-13  1  5  5   0   0  3.0849311E+02 -3.4283076E+02 -9.8433244E+01  4.7158248E+02  1.4697108E-06  0.0000000E+00  1.0000000E+00
 13  1  5  5   0   0  2.4325289E+00 -8.6797074E+00  1.1118811E+01  1.4313717E+01  1.7324354E-05  0.0000000E+00  1.0000000E+00
</event>
<event>
9 100 1.0000000E+00 1.0000000E+03 7.8125000E-03 0.0000000E+00
 21 -1  0  0 501 502  0.0000000E+00  0.0000000E+00  1.6344421E+02  1.6344421E+02  0.0000000E+00  0.0000000E+00  1.0000000E+00
 21 -1  0  0 502 501  0.0000000E+00  0.0000000E+00 -1.5342580E+03  1.5342580E+03  0.0000000E+00  0.0000000E+00  1.0000000E+00
 39  2  1  2   0   0  2.8421709E-12  1.7621460E-12 -1.3708138E+03  1.6977022E+03  1.0015300E+03  0.0000000E+00  1.0000000E+00
 23  2  3  3   0   0  3.9015773E+02  2.3805610E+02 -9.9808905E+02  1.1015709E+03  9.1558216E+01  0.0000000E+00  1.0000000E+00
 23  2  3  3   0   0 -3.9015773E+02 -2.3805610E+02 -3.7272471E+02  5.9613129E+02  8.6919770E+01  0.0000000E+00  1.0000000E+00
-11  1  4  4   0   0  6.0966519E+01  5.5875276E+00 -1.0077801E+02  1.1791668E+02  3.4119690E-05  0.0000000E+00  1.0000000E+00
 11  1  4  4   0   0  3.2919121E+02  2.3246857E+02 -8.9731104E+02  9.8365420E+02  1.9073486E-06  0.0000000E+00  1.0000000E+00
-13  1  5  5   0   0 -1.8376265E+02 -6.5045502E+01 -1.7580280E+02  2.6250001E+02  5.3947966E-06  0.0000000E+00  1.0000000E+00
 13  1  5  5   0   0 -2.0639508E+02 -1.7301060E+02 -1.9692191E+02  3.3363129E+02  4.6720309E-06  0.0000000E+00  1.0000000E+00
</event>
<event>
9 100 1.0000000E+00 1.0000000E+03 7.8125000E-03 0.0000000E+00
 21 -1  0  0 501 502  0.0000000E+00  0.0000000E+00  4.8744506E+02  4.8744506E+02  0.0000000E+00  0.0000000E+00  1.0000000E+00
 21 -1  0  0 502 501  0.0000000E+00  0.0000000E+00 -4.9912101E+02  4.9912101E+02  0.0000000E+00  0.0000000E+00  1.0000000E+00
 39  2  1  2   0   0 -3.1263880E-13  1.4210855E-12 -1.1675946E+01  9.8656607E+02  9.8649698E+02  0.0000000E+00  1.0000000E+00
 23  2  3  3   0   0  6.6481854E+01 -2.8789752E+02  3.7797123E+02  4.8936319E+02  9.6484498E+01  0.0000000E+00  1.0000000E+00
 23  2  3  3   0   0 -6.6481854E+01  2.8789752E+02 -3.8964717E+02  4.9720289E+02  8.9894213E+01  0.0000000E+00  1.0000000E+00
-11  1  4  4   0   0  3.9941338E+00 -1.5838200E+02  1.4056029E+02  2.1179709E+02  1.0446979E-05  0.0000000E+00  1.0000000E+00
 11  1  4  4   0   0  6.2487720E+01 -1.2951552E+02  2.3741093E+02  2.7756609E+02  8.0921949E-06  0.0000000E+00  1.0000000E+00
-13  1  5  5   0   0 -7.2355403E+01  2.9177044E+02 -3.8609773E+02  4.8932275E+02  1.3207507E-06  0.0000000E+00  1.0000000E+00
 13  1  5  5   0   0  5.8735492E+00 -3.8729151E+00 -3.5494429E+00  7.8801393E+00  1.0789593E-05  0.0000000E+00  1.0000000E+00
</event>
<event>
9 100 1.0000000E+00 1.0000000E+03 7.8125000E-03 0.0000000E+00
 21 -1  0  0 501 502  0.0000000E+00  0.0000000E+00  4.6451561E+02  4.6451561E+02  0.0000000E+00  0.0000000E+00  1.0000000E+00
 21 -1  0  0 502 501  0.0000000E+00  0.0000000E+00 -5.2608912E+02  5.2608912E+02  0.0000000E+00  0.0000000E+00  1.0000000E+00
 39  2  1  2   0   0  1.9895197E-13 -1.5631940E-13 -6.1573506E+01  9.9060474E+02  9.8868926E+02  0.0000000E+00  1.0000000E+00
 23  2  3  3   0   0 -1.5236289E+02  1.2532191E+02  4.1370980E+02  4.6815150E+02  9.5341458E+01  0.0000000E+00  1.0000000E+00
 23  2  3  3   0   0  1.5236289E+02 -1.2532191E+02 -4.7528331E+02  5.2245324E+02  9.0239310E+01  0.0000000E+00  1.0000000E+00
-11  1  4  4   0   0 -1.0890314E+02  9.4426041E+01  1.9179195E+02  2.3991733E+02  1.1444092E-05  0.0000000E+00  1.0000000E+00
 11  1  4  4   0   0 -4.3459751E+01  3.0895865E+01  2.2191785E+02  2.2823417E+02  9.7256079E-06  0.0000000E+00  1.0000000E+00
-13  1  5  5   0   0  2.5021096E+01 -4.3783869E+00 -1.4301540E+01  2.9150635E+01  1.9451216E-05  0.0000000E+00  1.0000000E+00
 13  1  5  5   0   0  1.2734179E+02 -1.2094352E+02 -4.6098177E+02  4.9330260E+02  2.4138041E-06  0.0000000E+00  1.0000000E+00
</event>
<event>
9 100 1.0000000E+00 1.0000000E+03 7.8125000E-03 0.0000000E+00
 21 -1  0  0 501 502  0.0000000E+00  0.0000000E+00  1.8108428E+02  1.8108428E+02  0.0000000E+00  0.0000000E+00  1.0000000E+00
 21 -1  0  0 502 501  0.0000000E+00  0.0000000E+00 -1.3873111E+03  1.3873111E+03  0.0000000E+00  0.0000000E+00  1.0000000E+00
 39  2  1  2   0   0 -1.8474111E-13 -1.0231815E-12 -1.2062268E+03  1.5683954E+03  1.0024375E+03  0.0000000E+00  1.0000000E+00
 23  2  3  3   0   0 -7.1756139E+01 -4.6180255E+02 -3.5696284E+02  5.9503592E+02  9.0745475E+01  0.0000000E+00  1.0000000E+00
 23  2  3  3   0   0  7.1756139E+01  4.6180255E+02 -8.4926400E+02  9.7335948E+02  8.8140835E+01  0.0000000E+00  1.0000000E+00
-11  1  4  4   0   0 -5.7555175E+01 -2.5965346E+02 -1.4981333E+02  3.0524834E+02  9.3440618E-06  0.0000000E+00  1.0000000E+00
 11  1  4  4   0   0 -1.4200963E+01 -2.0214909E+02 -2.0714951E+02  2.8978758E+02  6.3259598E-06  0.0000000E+00  1.0000000E+00
-13  1  5  5   0   0  2.5404708E+01  3.1318916E+02 -6.3526921E+02  7.0873113E+02  8.0921949E-06  0.0000000E+00  1.0000000E+00
 13  1  5  5   0   0  4.6351431E+01  1.4861339E+02 -2.1399479E+02  2.6462835E+02  1.8688124E-05  0.0000000E+00  1.0000000E+00
</event>
<event>
9 100 1.0000000E+00 1.0000000E+03 7.8125000E-03 0.0000000E+00
 21 -1  0  0 501 502  0.0000000E+00  0.0000000E+00  3.6577012E+02  3.6577012E+02  0.0000000E+00  0.0000000E+00  1.0000000E+00
 21 -1  0  0 502 501  0.0000000E+00  0.0000000E+00 -6.9514213E+02  6.9514213E+02  0.0000000E+00  0.0000000E+00  1.0000000E+00
 39  2  1  2   0   0 -1.0231815E-12  7.6738615E-13 -3.2937201E+02  1.0609122E+03  1.0084884E+03  0.0000000E+00  1.0000000E+00
 23  2  3  3   0   0  2.6676267E+02 -1.8960622E+02  2.2765161E+02  4.0751320E+02  8.4432925E+01  0.0000000E+00  1.0000000E+00
 23  2  3  3   0   0 -2.6676267E+02  1.8960622E+02 -5.5702361E+02  6.5339905E+02  9.7684048E+01  0.0000000E+00  1.0000000E+00
-11  1  4  4   0   0  2.1333599E+02 -1.0741072E+02  1.7611502E+02  2.9675884E+02  4.1019083E-06  0.0000000E+00  1.0000000E+00
 11  1  4  4   0   0  5.3426674E+01 -8.2195498E+01  5.1536589E+01  1.1075437E+02  8.5299224E-06  0.0000000E+00  1.0000000E+00
-13  1  5  5   0   0 -1.8655391E+02  1.6456522E+02 -4.7378809E+02  5.3512543E+02  2.8610229E-06  0.0000000E+00  1.0000000E+00
 13  1  5  5   0   0 -8.0208757E+01  2.5040997E+01 -8.3235521E+01  1.1827362E+02  1.4273290E-05  0.0000000E+00  1.0000000E+00
</event>
<event>
9 100 1.0000000E+00 1.0000000E+03 7.8125000E-03 0.0000000E+00
 21 -1  0  0 501 502  0.0000000E+00  0.0000000E+00  2.6790616E+02  2.6790616E+02  0.0000000E+00  0.0000000E+00  1.0000000E+00
 21 -1  0  0 502 501  0.0000000E+00  0.0000000E+00 -9.5061070E+02  9.5061070E+02  0.0000000E+00  0.0000000E+00  1.0000000E+00
 39  2  1  2   0   0  1.7621460E-12 -1.7053026E-12 -6.8270453E+02  1.2185169E+03  1.0093056E+03  0.0000000E+00  1.0000000E+00
 23  2  3  3   0   0  3.3875948E+02 -3.5687139E+02 -4.1029586E+02  6.4870034E+02  1.0175588E+02  0.0000000E+00  1.0000000E+00
 23  2  3  3   0   0 -3.3875948E+02  3.5687139E+02 -2.7240868E+02  5.6981652E+02  9.1483345E+01  0.0000000E+00  1.0000000E+00
-11  1  4  4   0   0  6.2347621E+01 -2.1240985E+01 -7.3660192E+01  9.8814114E+01  1.4273290E-05  0.0000000E+00  1.0000000E+00
 11  1  4  4   0   0  2.7641186E+02 -3.3563041E+02 -3.3663567E+02  5.4988622E+02  2.1324806E-06  0.0000000E+00  1.0000000E+00
-13  1  5  5   0   0 -3.2890243E+02  3.5835128E+02 -2.7595750E+02  5.5923608E+02  1.1611438E-06  0.0000000E+00  1.0000000E+00
 13  1  5  5   0   0 -9.8570512E+00 -1.4798896E+00  3.5488266E+00  1.0580440E+01  1.7892516E-05  0.0000000E+00  1.0000000E+00
</event>
<event>
9 100 1.0000000E+00 1.0000000E+03 7.8125000E-03 0.0000000E+00
 21 -1  0  0 501 502  0.0000000E+00  0.0000000E+00  8.8913028E+02  8.8913028E+02  0.0000000E+00  0.0000000E+00  1.0000000E+00
 21 -1  0  0 502 501  0.0000000E+00  0.0000000E+00 -2.8312325E+02  2.8312325E+02  0.0000000E+00  0.0000000E+00  1.0000000E+00
 39  2  1  2   0   0 -6.2527761E-13 -1.0231815E-12  6.0600703E+02  1.1722535E+03  1.0034609E+03  0.0000000E+00  1.0000000E+00
 23  2  3  3   0   0 -1.8667573E+02 -2.8693239E+02  7.1759049E+02  8.0005832E+02  8.9326299E+01  0.0000000E+00  1.0000000E+00
 23  2  3  3   0   0  1.8667573E+02  2.8693239E+02 -1.1158345E+02  3.7219522E+02  9.4341865E+01  0.0000000E+00  1.0000000E+00
-11  1  4  4   0   0 -7.0546909E+01 -9.8854965E+01  3.5720346E+02  3.7728435E+02  6.6072495E-06  0.0000000E+00  1.0000000E+00
 11  1  4  4   0   0 -1.1612882E+02 -1.8807742E+02  3.6038703E+02  4.2277397E+02  3.8146973E-06  0.0000000E+00  1.0000000E+00
-13  1  5  5   0   0  1.6444981E+02  2.6125955E+02 -6.6559024E+01  3.1580120E+02  1.2615925E-06  0.0000000E+00  1.0000000E+00
 13  1  5  5   0   0  2.2225917E+01  2.5672843E+01 -4.5024430E+01  5.6394020E+01  3.9320999E-06  0.0000000E+00  1.0000000E+00
</event>
<event>
9 100 1.0000000E+00 1.0000000E+03 7.8125000E-03 0.0000000E+00
 21 -1  0  0 501 502  0.0000000E+00  0.0000000E+00  2.4536369E+02  2.4536369E+02  0.0000000E+00  0.0000000E+00  1.0000000E+00
 21 -1  0  0 502 501  0.0000000E+00  0.0000000E+00 -1.0135564E+03  1.0135564E+03  0.0000000E+00  0.0000000E+00  1.0000000E+00
 39  2  1  2   0   0 -1.4210855E-12 -7.6738615E-13 -7.6819270E+02  1.2589201E+03  9.9737644E+02  0.0000000E+00  1.0000000E+00
 23  2  3  3   0   0  1.4534104E+02  7.6592058E+01  1.9446135E+02  2.7799120E+02  1.1168495E+02  0.0000000E+00  1.0000000E+00
 23  2  3  3   0   0 -1.4534104E+02 -7.6592058E+01 -9.6265406E+02  9.8092889E+02  9.2348768E+01  0.0000000E+00  1.0000000E+00
-11  1  4  4   0   0  1.1956068E+02  8.0757738E+01  2.0427818E+02  2.5009227E+02  4.2348670E-06  0.0000000E+00  1.0000000E+00
 11  1  4  4   0   0  2.5780367E+01 -4.1656803E+00 -9.8168284E+00  2.7898930E+01  1.7892516E-05  0.0000000E+00  1.0000000E+00
-13  1  5  5   0   0 -1.2723300E+01 -5.0865859E+01 -2.2728829E+02  2.3325776E+02  2.4126264E-05  0.0000000E+00  1.0000000E+00
 13  1  5  5   0   0 -1.3261774E+02 -2.5726199E+01 -7.3536577E+02  7.4767113E+02  6.6072495E-06  0.0000000E+00  1.0000000E+00
</event>
<event>
9 100 1.0000000E+00 1.0000000E+03 7.8125000E-03 0.0000000E+00
 21 -1  0  0 501 502  0.0000000E+00  0.0000000E+00  3.5445158E+02  3.5445158E+02  0.0000000E+00  0.0000000E+00  1.0000000E+00
 21 -1  0  0 502 501  0.0000000E+00  0.0000000E+00 -7.1641397E+02  7.1641397E+02  0.0000000E+00  0.0000000E+00  1.0000000E+00
 39  2  1  2   0   0 -1.2079227E-13  1.2505552E-12 -3.6196239E+02  1.0708655E+03  1.0078374E+03  0.0000000E+00  1.0000000E+00
 23  2  3  3   0   0  3.9188544E+01 -4.3017961E+02  7.7040865E+01  4.4867952E+02  9.3743114E+01  0.0000000E+00  1.0000000E+00
 23  2  3  3   0   0 -3.9188544E+01  4.3017961E+02 -4.3900326E+02  6.2218603E+02  8.8325298E+01  0.0000000E+00  1.0000000E+00
-11  1  4  4   0   0  2.0360736E+01 -2.8057283E+02  9.4790278E+01  2.9685159E+02  2.3841858E-06  0.0000000E+00  1.0000000E+00
 11  1  4  4   0   0  1.8827808E+01 -1.4960679E+02 -1.7749413E+01  1.5182792E+02  5.5608291E-06  0.0000000E+00  1.0000000E+00
-13  1  5  5   0   0 -3.9881190E+01  3.7322384E+02 -4.1719589E+02  5.6119422E+02  1.0662403E-06  0.0000000E+00  1.0000000E+00
 13  1  5  5   0   0  6.9264597E-01  5.6955774E+01 -2.1807370E+01  6.0991814E+01  0.0000000E+00  0.0000000E+00  1.0000000E+00
</event>
<event>
9 100 1.0000000E+00 1.0000000E+03 7.8125000E-03 0.0000000E+00
 21 -1  0  0 501 502  0.0000000E+00  0.0000000E+00  2.2912533E+02  2.2912533E+02  0.0000000E+00  0.0000000E+00  1.0000000E+00
 21 -1  0  0 502 501  0.0000000E+00  0.0000000E+00 -1.0866055E+03  1.0866055E+03  0.0000000E+00  0.0000000E+00  1.0000000E+00
 39  2  1  2   0   0  2.9558578E-12 -7.1054274E-13 -8.5748014E+02  1.3157308E+03  9.9793555E+02  0.0000000E+00  1.0000000E+00
 23  2  3  3   0   0 -2.4813623E+02  6.0297404E+01  1.2298508E+02  2.9827974E+02  9.2941420E+01  0.0000000E+00  1.0000000E+00
 23  2  3  3   0   0  2.4813623E+02 -6.0297404E+01 -9.8046522E+02  1.0174511E+03  9.3205413E+01  0.0000000E+00  1.0000000E+00
-11  1  4  4   0   0 -1.5455147E+02  5.7699016E+01  1.2108701E+02  2.0463967E+02  5.2533726E-06  0.0000000E+00  1.0000000E+00
 11  1  4  4   0   0 -9.3584763E+01  2.5983871E+00  1.8980727E+00  9.3640067E+01  1.1601949E-05  0.0000000E+00  1.0000000E+00
-13  1  5  5   0   0  1.7214175E+02 -7.1609071E+01 -7.9759777E+02  8.1909880E+02  7.1366451E-06  0.0000000E+00  1.0000000E+00
 13  1  5  5   0   0  7.5994488E+01  1.1311668E+01 -1.8286745E+02  1.9835226E+02  1.8688124E-05  0.0000000E+00  1.0000000E+00
</event>
<event>
9 100 1.0000000E+00 1.0000000E+03 7.8125000E-03 0.0000000E+00
 21 -1  0  0 501 502  0.0000000E+00  0.0000000E+00  5.7956149E+02  5.7956149E+02  0.0000000E+00  0.0000000E+00  1.0000000E+00
 21 -1  0  0 502 501  0.0000000E+00  0.0000000E+00 -4.3650577E+02  4.3650577E+02  0.0000000E+00  0.0000000E+00  1.0000000E+00
 39  2  1  2   0   0  4.3200998E-12  7.5317530E-13  1.4305572E+02  1.0160673E+03  1.0059462E+03  0.0000000E+00  1.0000000E+00
 23  2  3  3   0   0  4.4199695E+02  7.6229117E+01  2.8230474E+02  5.3773643E+02  9.1062130E+01  0.0000000E+00  1.0000000E+00
 23  2  3  3   0   0 -4.4199695E+02 -7.6229117E+01 -1.3924902E+02  4.7833083E+02  9.0762915E+01  0.0000000E+00  1.0000000E+00
-11  1  4  4   0   0  4.3068975E+02  6.3648521E+01  2.8535284E+02  5.2054878E+02  2.0955081E-06  0.0000000E+00  1.0000000E+00
 11  1  4  4   0   0  1.1307208E+01  1.2580596E+01 -3.0480927E+00  1.7187647E+01  2.0893957E-05  0.0000000E+00  1.0000000E+00
-13  1  5  5   0   0 -1.6077421E+02  1.0542208E+01 -7.1810698E+01  1.7639802E+02  1.7113074E-05  0.0000000E+00  1.0000000E+00
 13  1  5  5   0   0 -2.8122274E+02 -8.6771325E+01 -6.7438323E+01  3.0193281E+02  1.0490417E-05  0.0000000E+00  1.0000000E+00
</event>
<event>
9 100 1.0000000E+00 1.0000000E+03 7.8125000E-03 0.0000000E+00
 21 -1  0  0 501 502  0.0000000E+00  0.0000000E+00  2.6821188E+02  2.6821188E+02  0.0000000E+00  0.0000000E+00  1.0000000E+00
 21 -1  0  0 502 501  0.0000000E+00  0.0000000E+00 -9.2652679E+02  9.2652679E+02  0.0000000E+00  0.0000000E+00  1.0000000E+00
 39  2  1  2   0   0 -3.9790393E-13  1.7053026E-13 -6.5831490E+02  1.1947387E+03  9.9700651E+02  0.0000000E+00  1.0000000E+00
 23  2  3  3   0   0  2.5927455E+02 -1.6280835E+02 -7.8756000E+02  8.4978071E+02  9.0258833E+01  0.0000000E+00  1.0000000E+00
 23  2  3  3   0   0 -2.5927455E+02  1.6280835E+02  1.2924510E+02  3.4495796E+02  9.2530245E+01  0.0000000E+00  1.0000000E+00
-11  1  4  4   0   0  1.2009849E+02 -2.7160289E+01 -2.6365404E+02  2.9098932E+02  1.3214499E-05  0.0000000E+00  1.0000000E+00
 11  1  4  4   0   0  1.3917606E+02 -1.3564807E+02 -5.2390596E+02  5.5879140E+02  3.8146973E-06  0.0000000E+00  1.0000000E+00
-13  1  5  5   0   0 -1.4507995E+02  1.4264710E+02  7.3892149E+01  2.1646348E+02  3.9320999E-06  0.0000000E+00  1.0000000E+00
 13  1  5  5   0   0 -1.1419460E+02  2.0161251E+01  5.5352947E+01  1.2849448E+02  7.3253114E-06  0.0000000E+00  1.0000000E+00
</event>
<event>
9 100 1.0000000E+00 1.0000000E+03 7.8125000E-03 0.0000000E+00
 21 -1  0  0 501 502  0.0000000E+00  0.0000000E+00  1.4359641E+03  1.4359641E+03  0.0000000E+00  0.0000000E+00  1.0000000E+00
 21 -1  0  0 502 501  0.0000000E+00  0.0000000E+00 -1.7178431E+02  1.7178431E+02  0.0000000E+00  0.0000000E+00  1.0000000E+00
 39  2  1  2   0   0  1.4210855E-12  2.4158453E-12  1.2641798E+03  1.6077484E+03  9.9332997E+02  0.0000000E+00  1.0000000E+00
 23  2  3  3   0   0  1.1319102E+02  1.9168883E+02  1.3430009E+03  1.3632302E+03  7.2030283E+01  0.0000000E+00  1.0000000E+00
 23  2  3  3   0   0 -1.1319102E+02 -1.9168883E+02 -7.8821079E+01  2.4451824E+02  6.3400250E+01  0.0000000E+00  1.0000000E+00
-11  1  4  4   0   0  6.6444883E+01  1.5646680E+02  8.5525799E+02  8.7198796E+02  1.2063132E-05  0.0000000E+00  1.0000000E+00
 11  1  4  4   0   0  4.6746141E+01  3.5222031E+01  4.8774288E+02  4.9124221E+02  1.5258789E-05  0.0000000E+00  1.0000000E+00
-13  1  5  5   0   0 -4.2112169E+01 -1.2176806E+02 -2.5117552E+01  1.3126990E+02  6.1805160E-06  0.0000000E+00  1.0000000E+00
 13  1  5  5   0   0 -7.1078855E+01 -6.9920772E+01 -5.3703527E+01  1.1324834E+02  6.9100269E-06  0.0000000E+00  1.0000000E+00
</event>
<event>
9 100 1.0000000E+00 1.0000000E+03 7.8125000E-03 0.0000000E+00
 21 -1  0  0 501 502  0.0000000E+00  0.0000000E+00  2.1942178E+03  2.1942178E+03  0.0000000E+00  0.0000000E+00  1.0000000E+00
 21 -1  0  0 502 501  0.0000000E+00  0.0000000E+00 -1.1491974E+02  1.1491974E+02  0.0000000E+00  0.0000000E+00  1.0000000E+00
 39  2  1  2   0   0 -1.3642421E-12  6.5369932E-13  2.0792980E+03  2.3091375E+03  1.0043086E+03  0.0000000E+00  1.0000000E+00
 23  2  3  3   0   0  2.4828597E+02 -1.1800194E+02  1.9822143E+03  2.0034564E+03  9.5360601E+01  0.0000000E+00  1.0000000E+00
 23  2  3  3   0   0 -2.4828597E+02  1.1800194E+02  9.7083680E+01  3.0568106E+02  9.1898243E+01  0.0000000E+00  1.0000000E+00
-11  1  4  4   0   0  3.2684618E+01 -4.4478256E+01  2.3173581E+02  2.3821857E+02  4.3158373E-05  0.0000000E+00  1.0000000E+00
 11  1  4  4   0   0  2.1560135E+02 -7.3523684E+01  1.7504785E+03  1.7652379E+03  1.1121658E-05  0.0000000E+00  1.0000000E+00
-13  1  5  5   0   0 -1.1952669E+02  5.5276352E+01  9.5107188E+01  1.6244224E+02  6.4703992E-06  0.0000000E+00  1.0000000E+00
 13  1  5  5   0   0 -1.2875929E+02  6.2725588E+01  1.9764925E+00  1.4323882E+02  7.5092391E-06  0.0000000E+00  1.0000000E+00
</event>
<event>
9 100 1.0000000E+00 1.0000000E+03 7.8125000E-03 0.0000000E+00
 21 -1  0  0 501 502  0.0000000E+00  0.0000000E+00  3.1449158E+02  3.1449158E+02  0.0000000E+00  0.0000000E+00  1.0000000E+00
 21 -1  0  0 502 501  0.0000000E+00  0.0000000E+00 -8.0637963E+02  8.0637963E+02  0.0000000E+00  0.0000000E+00  1.0000000E+00
 39  2  1  2   0   0  1.4210855E-12 -7.9580786E-13 -4.9188804E+02  1.1208712E+03  1.0071735E+03  0.0000000E+00  1.0000000E+00
 23  2  3  3   0   0  3.9579220E+02 -2.0161221E+02 -2.2144875E+00  4.5342619E+02  9.1057448E+01  0.0000000E+00  1.0000000E+00
 23  2  3  3   0   0 -3.9579220E+02  2.0161221E+02 -4.8967356E+02  6.6744502E+02  9.1671752E+01  0.0000000E+00  1.0000000E+00
-11  1  4  4   0   0  3.6683445E+02 -1.6056193E+02  1.3879982E+01  4.0067481E+02  3.0345731E-06  0.0000000E+00  1.0000000E+00
 11  1  4  4   0   0  2.8957750E+01 -4.1050278E+01 -1.6094470E+01  5.2751385E+01  1.3498577E-05  0.0000000E+00  1.0000000E+00
-13  1  5  5   0   0 -1.0901163E+02  1.0186208E+02 -1.7921463E+02  2.3318941E+02  3.8146973E-06  0.0000000E+00  1.0000000E+00
 13  1  5  5   0   0 -2.8678057E+02  9.9750130E+01 -3.1045893E+02  4.3425560E+02  4.2649612E-06  0.0000000E+00  1.0000000E+00
</event>
<event>
9 100 1.0000000E+00 1.0000000E+03 7.8125000E-03 0.0000000E+00
 21 -1  0  0 501 502  0.0000000E+00  0.0000000E+00  3.2758703E+02  3.2758703E+02  0.0000000E+00  0.0000000E+00  1.0000000E+00
 21 -1  0  0 502 501  0.0000000E+00  0.0000000E+00 -7.6301925E+02  7.6301925E+02  0.0000000E+00  0.0000000E+00  1.0000000E+00
 39  2  1  2   0   0 -3.0695446E-12  6.3948846E-13 -4.3543222E+02  1.0906063E+03  9.9991043E+02  0.0000000E+00  1.0000000E+00
 23  2  3  3   0   0  3.9032353E+02 -8.3149047E+01 -5.2874909E+02  6.7063852E+02  1.0447105E+02  0.0000000E+00  1.0000000E+00
 23  2  3  3   0   0 -3.9032353E+02  8.3149047E+01  9.3316874E+01  4.1996777E+02  9.1644222E+01  0.0000000E+00  1.0000000E+00
-11  1  4  4   0   0  3.1102083E+02 -9.4886738E+01 -3.6850661E+02  4.9146167E+02  6.8770433E-06  0.0000000E+00  1.0000000E+00
 11  1  4  4   0   0  7.9302704E+01  1.1737690E+01 -1.6024248E+02  1.7917686E+02  1.7059845E-05  0.0000000E+00  1.0000000E+00
-13  1  5  5   0   0 -1.8725476E+02  6.2973496E+01  5.0413155E+00  1.9762445E+02  9.4408941E-06  0.0000000E+00  1.0000000E+00
 13  1  5  5   0   0 -2.0306877E+02  2.0175551E+01  8.8275558E+01  2.2234332E+02  8.6949265E-06  0.0000000E+00  1.0000000E+00
</event>
<event>
9 100 1.0000000E+00 1.0000000E+03 7.8125000E-03 0.0000000E+00
 21 -1  0  0 501 502  0.0000000E+00  0.0000000E+00  3.0848061E+02  3.0848061E+02  0.0000000E+00  0.0000000E+00  1.0000000E+00
 21 -1  0  0 502 501  0.0000000E+00  0.0000000E+00 -8.2802292E+02  8.2802292E+02  0.0000000E+00  0.0000000E+00  1.0000000E+00
 39  2  1  2   0   0 -2.1316282E-14  4.5474735E-13 -5.1954231E+02  1.1365035E+03  1.0107997E+03  0.0000000E+00  1.0000000E+00
 23  2  3  3   0   0 -8.4338652E+00  1.8077914E+02  2.6119037E+02  3.3026058E+02  8.9996742E+01  0.0000000E+00  1.0000000E+00
 23  2  3  3   0   0  8.4338652E+00 -1.8077914E+02 -7.8073268E+02  8.0624295E+02  8.7931513E+01  0.0000000E+00  1.0000000E+00
-11  1  4  4   0   0 -2.4036613E+00  1.7403513E+02  2.6756438E+02  3.1919383E+02  1.0827721E-06  0.0000000E+00  1.0000000E+00
 11  1  4  4   0   0 -6.0302039E+00  6.7440099E+00 -6.3740067E+00  1.1066752E+01  6.6072495E-06  0.0000000E+00  1.0000000E+00
-13  1  5  5   0   0 -1.4954383E+01 -6.9368825E+00 -1.7065471E+02  1.7144907E+02  1.7059845E-05  0.0000000E+00  1.0000000E+00
 13  1  5  5   0   0  2.3388249E+01 -1.7384226E+02 -6.1007797E+02  6.3479388E+02  2.6973983E-06  0.0000000E+00  1.0000000E+00
</event>
<event>
9 100 1.0000000E+00 1.0000000E+03 7.8125000E-03 0.0000000E+00
 21 -1  0  0 501 502  0.0000000E+00  0.0000000E+00  1.7586076E+02  1.7586076E+02  0.0000000E+00  0.0000000E+00  1.0000000E+00
 21 -1  0  0 502 501  0.0000000E+00  0.0000000E+00 -1.4257657E+03  1.4257657E+03  0.0000000E+00  0.0000000E+00  1.0000000E+00
 39  2  1  2   0   0  2.4442670E-12  1.3073986E-12 -1.2499049E+03  1.6016264E+03  1.0014714E+03  0.0000000E+00  1.0000000E+00
 23  2  3  3   0   0 -2.6917635E+02 -1.3826309E+02 -1.2467845E+03  1.2863509E+03  9.3028176E+01  0.0000000E+00  1.0000000E+00
 23  2  3  3   0   0  2.6917635E+02  1.3826309E+02 -3.1203749E+00  3.1527557E+02  8.8410170E+01  0.0000000E+00  1.0000000E+00
-11  1  4  4   0   0 -2.4819723E+01 -1.9011903E-01 -3.7839103E+01  4.5253204E+01  2.1579186E-05  0.0000000E+00  1.0000000E+00
 11  1  4  4   0   0 -2.4435663E+02 -1.3807297E+02 -1.2089454E+03  1.2410976E+03  2.1324806E-06  0.0000000E+00  1.0000000E+00
-13  1  5  5   0   0  1.8371605E+02  9.3226019E+01  3.9366906E+01  2.0974373E+02  8.5830688E-06  0.0000000E+00  1.0000000E+00
 13  1  5  5   0   0  8.5460300E+01  4.5037074E+01 -4.2487281E+01  1.0553184E+02  1.4658381E-05  0.0000000E+00  1.0000000E+00
</event>
<event>
9 100 1.0000000E+00 1.0000000E+03 7.8125000E-03 0.0000000E+00
 21 -1  0  0 501 502  0.0000000E+00  0.0000000E+00  1.4231008E+03  1.4231008E+03  0.0000000E+00  0.0000000E+00  1.0000000E+00
 21 -1  0  0 502 501  0.0000000E+00  0.0000000E+00 -1.7511635E+02  1.7511635E+02  0.0000000E+00  0.0000000E+00  1.0000000E+00
 39  2  1  2   0   0 -9.0949470E-13  1.8758328E-12  1.2479845E+03  1.5982172E+03  9.9841520E+02  0.0000000E+00  1.0000000E+00
 23  2  3  3   0   0  1.1844125E+02 -2.4537174E+02 -2.9523363E+01  2.8891759E+02  9.1466539E+01  0.0000000E+00  1.0000000E+00
 23  2  3  3   0   0 -1.1844125E+02  2.4537174E+02  1.2775079E+03  1.3092996E+03  8.9462319E+01  0.0000000E+00  1.0000000E+00
-11  1  4  4   0   0  6.1605476E+01 -4.0487964E+01 -1.8531721E+01  7.6012727E+01  6.1389891E-06  0.0000000E+00  1.0000000E+00
 11  1  4  4   0   0  5.6835769E+01 -2.0488378E+02 -1.0991641E+01  2.1290487E+02  2.8410853E-06  0.0000000E+00  1.0000000E+00
-13  1  5  5   0   0 -3.4745841E+01  7.0323683E+01  5.8101030E+02  5.8628122E+02  2.5303839E-05  0.0000000E+00  1.0000000E+00
 13  1  5  5   0   0 -8.3695404E+01  1.7504806E+02  6.9649755E+02  7.2301838E+02  0.0000000E+00  0.0000000E+00  1.0000000E+00
</event>
<event>
9 100 1.0000000E+00 1.0000000E+03 7.8125000E-03 0.0000000E+00
 21 -1  0  0 501 502  0.0000000E+00  0.0000000E+00  2.7496681E+02  2.7496681E+02  0.0000000E+00  0.0000000E+00  1.0000000E+00
 21 -1  0  0 502 501  0.0000000E+00  0.0000000E+00 -9.8585223E+02  9.8585223E+02  0.0000000E+00  0.0000000E+00  1.0000000E+00
 39  2  1  2   0   0  3.5811354E-12  1.2931878E-12 -7.1088541E+02  1.2608190E+03  1.0413004E+03  0.0000000E+00  1.0000000E+00
 23  2  3  3   0   0 -3.5778037E+02 -1.2795516E+02  6.0650015E+01  3.9554297E+02  9.1632427E+01  0.0000000E+00  1.0000000E+00
 23  2  3  3   0   0  3.5778037E+02  1.2795516E+02 -7.7153543E+02  8.6527607E+02  9.5165369E+01  0.0000000E+00  1.0000000E+00
-11  1  4  4   0   0 -1.0701423E+02 -1.4484358E+01  5.2751725E+01  1.2018563E+02  8.7803125E-06  0.0000000E+00  1.0000000E+00
 11  1  4  4   0   0 -2.5076614E+02 -1.1347081E+02  7.8982890E+00  2.7535734E+02  5.2234894E-06  0.0000000E+00  1.0000000E+00
-13  1  5  5   0   0  2.7792102E+02  1.0471509E+02 -6.7749166E+02  7.3972988E+02  5.8788433E-06  0.0000000E+00  1.0000000E+00
 13  1  5  5   0   0  7.9859343E+01  2.3240076E+01 -9.4043765E+01  1.2554619E+02  2.2888184E-05  0.0000000E+00  1.0000000E+00
</event>
<event>
9 100 1.0000000E+00 1.0000000E+03 7.8125000E-03 0.0000000E+00
 21 -1  0  0 501 502  0.0000000E+00  0.0000000E+00  1.0366269E+03  1.0366269E+03  0.0000000E+00  0.0000000E+00  1.0000000E+00
 21 -1  0  0 502 501  0.0000000E+00  0.0000000E+00 -2.4558536E+02  2.4558536E+02  0.0000000E+00  0.0000000E+00  1.0000000E+00
 39  2  1  2   0   0  4.9027449E-13 -5.4569682E-12  7.9104154E+02  1.2822123E+03  1.0091192E+03  0.0000000E+00  1.0000000E+00
 23  2  3  3   0   0  3.7467525E+01 -4.1117345E+02  7.4487001E+02  8.5662465E+02  9.2233523E+01  0.0000000E+00  1.0000000E+00
 23  2  3  3   0   0 -3.7467525E+01  4.1117345E+02  4.6171528E+01  4.2558762E+02  9.2334098E+01  0.0000000E+00  1.0000000E+00
-11  1  4  4   0   0  2.3944800E+00 -3.5986851E+02  6.1268492E+02  7.1055886E+02  6.0315660E-06  0.0000000E+00  1.0000000E+00
 11  1  4  4   0   0  3.5073045E+01 -5.1304941E+01  1.3218509E+02  1.4606579E+02  7.6293945E-06  0.0000000E+00  1.0000000E+00
-13  1  5  5   0   0  1.0528015E+01  2.9404358E+01  2.5393515E+01  4.0252776E+01  4.6720309E-06  0.0000000E+00  1.0000000E+00
 13  1  5  5   0   0 -4.7995540E+01  3.8176910E+02  2.0778013E+01  3.8533484E+02  1.0115244E-06  0.0000000E+00  1.0000000E+00
</event>
<event>
9 100 1.0000000E+00 1.0000000E+03 7.8125000E-03 0.0000000E+00
 21 -1  0  0 501 502  0.0000000E+00  0.0000000E+00  4.8326600E+02  4.8326600E+02  0.0000000E+00  0.0000000E+00  1.0000000E+00
 21 -1  0  0 502 501  0.0000000E+00  0.0000000E+00 -5.1824855E+02  5.1824855E+02  0.0000000E+00  0.0000000E+00  1.0000000E+00
 39  2  1  2   0   0  1.6342483E-13 -3.2684966E-13 -3.4982547E+01  1.0015146E+03  1.0009034E+03  0.0000000E+00  1.0000000E+00
 23  2  3  3   0   0  3.6928613E+01 -7.1035363E+01  4.6812929E+02  4.8368271E+02  9.1619791E+01  0.0000000E+00  1.0000000E+00
 23  2  3  3   0   0 -3.6928613E+01  7.1035363E+01 -5.0311184E+02  5.1783184E+02  9.2836132E+01  0.0000000E+00  1.0000000E+00
-11  1  4  4   0   0  2.7599329E+01 -2.0928678E+01  4.1658610E+01  5.4177231E+01  5.3947966E-06  0.0000000E+00  1.0000000E+00
 11  1  4  4   0   0  9.3292835E+00 -5.0106685E+01  4.2647068E+02  4.2950548E+02  3.0157830E-06  0.0000000E+00  1.0000000E+00
-13  1  5  5   0   0 -1.5746601E+01 -1.8781188E+01 -5.3487184E+01  5.8835086E+01  1.0789593E-05  0.0000000E+00  1.0000000E+00
 13  1  5  5   0   0 -2.1182012E+01  8.9816551E+01 -4.4962466E+02  4.5899676E+02  2.1324806E-06  0.0000000E+00  1.0000000E+00
</event>
<event>
9 100 1.0000000E+00 1.0000000E+03 7.8125000E-03 0.0000000E+00
 21 -1  0  0 501 502  0.0000000E+00  0.0000000E+00  8.9265499E+02  8.9265499E+02  0.0000000E+00  0.0000000E+00  1.0000000E+00
 21 -1  0  0 502 501  0.0000000E+00  0.0000000E+00 -2.8753837E+02  2.8753837E+02  0.0000000E+00  0.0000000E+00  1.0000000E+00
 39  2  1  2   0   0 -2.1600499E-12 -5.8264504E-13  6.0511662E+02  1.1801934E+03  1.0132572E+03  0.0000000E+00  1.0000000E+00
 23  2  3  3   0   0  4.3394565E+02  1.1977289E+02  5.5144896E+02  7.1766673E+02  9.1078068E+01  0.0000000E+00  1.0000000E+00
 23  2  3  3   0   0 -4.3394565E+02 -1.1977289E+02  5.3667665E+01  4.6252663E+02  9.1631264E+01  0.0000000E+00  1.0000000E+00
-11  1  4  4   0   0  3.4074719E+02  1.2946310E+02  4.5777295E+02  5.8517127E+02  5.0463701E-06  0.0000000E+00  1.0000000E+00
 11  1  4  4   0   0  9.3198465E+01 -9.6902102E+00  9.3676006E+01  1.3249546E+02  7.6293945E-06  0.0000000E+00  1.0000000E+00
-13  1  5  5   0   0 -4.0751576E+02 -1.1279228E+02  2.6005190E+01  4.2363600E+02  1.0115244E-06  0.0000000E+00  1.0000000E+00
 13  1  5  5   0   0 -2.6429893E+01 -6.9806041E+00  2.7662475E+01  3.8890624E+01  1.2365630E-05  0.0000000E+00  1.0000000E+00
</event>
<event>
9 100 1.0000000E+00 1.0000000E+03 7.8125000E-03 0.0000000E+00
 21 -1  0  0 501 502  0.0000000E+00  0.0000000E+00  1.3315166E+03  1.3315166E+03  0.0000000E+00  0.0000000E+00  1.0000000E+00
 21 -1  0  0 502 501  0.0000000E+00  0.0000000E+00 -1.8515063E+02  1.8515063E+02  0.0000000E+00  0.0000000E+00  1.0000000E+00
 39  2  1  2   0   0 -1.2789769E-13  3.1974423E-14  1.1463659E+03  1.5166672E+03  9.9303803E+02  0.0000000E+00  1.0000000E+00
 23  2  3  3   0   0  1.0037067E+02 -2.1166094E+01 -1.5365324E+02  2.0867960E+02  9.7033908E+01  0.0000000E+00  1.0000000E+00
 23  2  3  3   0   0 -1.0037067E+02  2.1166094E+01  1.3000192E+03  1.3079876E+03  1.0128877E+02  0.0000000E+00  1.0000000E+00
-11  1  4  4   0   0  4.8415448E+00 -4.2828601E+01 -4.2647065E+01  6.0634164E+01  4.6720309E-06  0.0000000E+00  1.0000000E+00
 11  1  4  4   0   0  9.5529127E+01  2.1662507E+01 -1.1100618E+02  1.4804543E+02  2.6117447E-06  0.0000000E+00  1.0000000E+00
-13  1  5  5   0   0 -1.0339520E+01 -2.5578067E+01  6.0240439E+02  6.0303581E+02  7.6293945E-06  0.0000000E+00  1.0000000E+00
 13  1  5  5   0   0 -9.0031152E+01  4.6744161E+01  6.9761480E+02  7.0495179E+02  0.0000000E+00  0.0000000E+00  1.0000000E+00
</event>
<event>
9 100 1.0000000E+00 1.0000000E+03 7.8125000E-03 0.0000000E+00
 21 -1  0  0 501 502  0.0000000E+00  0.0000000E+00  2.8427286E+02  2.8427286E+02  0.0000000E+00  0.0000000E+00  1.0000000E+00
 21 -1  0  0 502 501  0.0000000E+00  0.0000000E+00 -8.6105763E+02  8.6105763E+02  0.0000000E+00  0.0000000E+00  1.0000000E+00
 39  2  1  2   0   0 -2.4158453E-13 -4.2632564E-14 -5.7678477E+02  1.1453305E+03  9.8949546E+02  0.0000000E+00  1.0000000E+00
 23  2  3  3   0   0 -4.6961782E+01 -8.3211959E+00 -8.4839265E+02  8.5470928E+02  9.2104354E+01  0.0000000E+00  1.0000000E+00
 23  2  3  3   0   0  4.6961782E+01  8.3211959E+00  2.7160788E+02  2.9062122E+02  9.1734395E+01  0.0000000E+00  1.0000000E+00
-11  1  4  4   0   0 -1.4067911E+01 -1.9371100E+00 -7.6070637E+02  7.6083891E+02  5.6420133E-06  0.0000000E+00  1.0000000E+00
 11  1  4  4   0   0 -3.2893872E+01 -6.3840859E+00 -8.7686275E+01  9.3870369E+01  2.6428998E-05  0.0000000E+00  1.0000000E+00
-13  1  5  5   0   0 -1.8152691E+01  1.9158862E+01  2.9082669E+01  3.9273195E+01  1.4273290E-05  0.0000000E+00  1.0000000E+00
 13  1  5  5   0   0  6.5114474E+01 -1.0837666E+01  2.4252521E+02  2.5134802E+02  3.6935647E-06  0.0000000E+00  1.0000000E+00
</event>
<event>
9 100 1.0000000E+00 1.0000000E+03 7.8125000E-03 0.0000000E+00
 21 -1  0  0 501 502  0.0000000E+00  0.0000000E+00  5.0104751E+02  5.0104751E+02  0.0000000E+00  0.0000000E+00  1.0000000E+00
 21 -1  0  0 502 501  0.0000000E+00  0.0000000E+00 -4.9842548E+02  4.9842548E+02  0.0000000E+00  0.0000000E+00  1.0000000E+00
 39  2  1  2   0   0 -1.1368684E-12  1.1546319E-14  2.6220290E+00  9.9947299E+02  9.9946955E+02  0.0000000E+00  1.0000000E+00
 23  2  3  3   0   0 -3.6826466E+02  4.0618752E+00  3.2778576E+02  4.9996483E+02  8.2981700E+01  0.0000000E+00  1.0000000E+00
 23  2  3  3   0   0  3.6826466E+02 -4.0618752E+00 -3.2516373E+02  4.9950816E+02  9.0230786E+01  0.0000000E+00  1.0000000E+00
-11  1  4  4   0   0 -2.7718501E+02 -4.6547048E+00  2.8936085E+02  4.0072796E+02  2.0784850E-06  0.0000000E+00  1.0000000E+00
 11  1  4  4   0   0 -9.1079656E+01  8.7165800E+00  3.8424910E+01  9.9236869E+01  5.3947966E-06  0.0000000E+00  1.0000000E+00
-13  1  5  5   0   0  3.5661196E+02 -1.9275508E+01 -3.2032945E+02  4.7974430E+02  1.6827100E-06  0.0000000E+00  1.0000000E+00
 13  1  5  5   0   0  1.1652708E+01  1.5213633E+01 -4.8342752E+00  1.9763867E+01  1.9821748E-05  0.0000000E+00  1.0000000E+00
</event>
<event>
9 100 1.0000000E+00 1.0000000E+03 7.8125000E-03 0.0000000E+00
 21 -1  0  0 501 502  0.0000000E+00  0.0000000E+00  2.1359639E+02  2.1359639E+02  0.0000000E+00  0.0000000E+00  1.0000000E+00
 21 -1  0  0 502 501  0.0000000E+00  0.0000000E+00 -1.1623286E+03  1.1623286E+03  0.0000000E+00  0.0000000E+00  1.0000000E+00
 39  2  1  2   0   0  9.2370556E-14  2.8421709E-13 -9.4873225E+02  1.3759250E+03  9.9653238E+02  0.0000000E+00  1.0000000E+00
 23  2  3  3   0   0  4.4364558E+01  1.5071760E+02  1.6603713E+02  2.4643832E+02  9.2084234E+01  0.0000000E+00  1.0000000E+00
 23  2  3  3   0   0 -4.4364558E+01 -1.5071760E+02 -1.1147694E+03  1.1294867E+03  9.1353360E+01  0.0000000E+00  1.0000000E+00
-11  1  4  4   0   0  3.1131626E+01  1.0922129E+02  1.6805968E+02  2.0283620E+02  3.1590462E-06  0.0000000E+00  1.0000000E+00
 11  1  4  4   0   0  1.3232932E+01  4.1496302E+01 -2.0225463E+00  4.3602113E+01  7.8641999E-06  0.0000000E+00  1.0000000E+00
-13  1  5  5   0   0 -4.7323862E+01 -2.1488577E+01 -2.8299750E+02  2.8773059E+02  3.4119690E-05  0.0000000E+00  1.0000000E+00
 13  1  5  5   0   0  2.9593042E+00 -1.2922902E+02 -8.3177188E+02  8.4175612E+02  9.3440618E-06  0.0000000E+00  1.0000000E+00
</event>
<event>
9 100 1.0000000E+00 1.0000000E+03 7.8125000E-03 0.0000000E+00
 21 -1  0  0 501 502  0.0000000E+00  0.0000000E+00  2.4752704E+02  2.4752704E+02  0.0000000E+00  0.0000000E+00  1.0000000E+00
 21 -1  0  0 502 501  0.0000000E+00  0.0000000E+00 -1.0192259E+03  1.0192259E+03  0.0000000E+00  0.0000000E+00  1.0000000E+00
 39  2  1  2   0   0  0.0000000E+00 -5.6843419E-14 -7.7169882E+02  1.2667529E+03  1.0045615E+03  0.0000000E+00  1.0000000E+00
 23  2  3  3   0   0  1.2105856E+02 -3.6481260E+02  5.2312748E+00  3.9513299E+02  9.1429226E+01  0.0000000E+00  1.0000000E+00
 23  2  3  3   0   0 -1.2105856E+02  3.6481260E+02 -7.7693010E+02  8.7161992E+02  9.1419335E+01  0.0000000E+00  1.0000000E+00
-11  1  4  4   0   0  7.0394472E+01 -2.5865226E+02 -3.6040916E+01  2.7047240E+02  5.2234894E-06  0.0000000E+00  1.0000000E+00
 11  1  4  4   0   0  5.0664085E+01 -1.0616034E+02  4.1272191E+01  1.2466058E+02  1.0403359E-05  0.0000000E+00  1.0000000E+00
-13  1  5  5   0   0 -6.2830009E+01  6.9328488E+01 -1.6857346E+02  1.9279798E+02  1.7059845E-05  0.0000000E+00  1.0000000E+00
 13  1  5  5   0   0 -5.8228548E+01  2.9548411E+02 -6.0835664E+02  6.7882194E+02  5.7220459E-06  0.0000000E+00  1.0000000E+00
</event>
<event>
9 100 1.0000000E+00 1.0000000E+03 7.8125000E-03 0.0000000E+00
 21 -1  0  0 501 502  0.0000000E+00  0.0000000E+00  3.2247158E+02  3.2247158E+02  0.0000000E+00  0.0000000E+00  1.0000000E+00
 21 -1  0  0 502 501  0.0000000E+00  0.0000000E+00 -7.5806839E+02  7.5806839E+02  0.0000000E+00  0.0000000E+00  1.0000000E+00
 39  2  1  2   0   0  1.1368684E-13  2.8421709E-13 -4.3559681E+02  1.0805400E+03  9.8884886E+02  0.0000000E+00  1.0000000E+00
 23  2  3  3   0   0  1.5247610E+02  4.1686684E+02 -4.3313878E+02  6.2689495E+02  9.1439330E+01  0.0000000E+00  1.0000000E+00
 23  2  3  3   0   0 -1.5247610E+02 -4.1686684E+02 -2.4580299E+00  4.5364503E+02  9.3599374E+01  0.0000000E+00  1.0000000E+00
-11  1  4  4   0   0  1.5127665E+01  9.1797946E+00 -1.9542186E+00  1.7802636E+01  7.6293945E-06  0.0000000E+00  1.0000000E+00
 11  1  4  4   0   0  1.3734844E+02  4.0768705E+02 -4.3118456E+02  6.0909231E+02  1.7208099E-06  0.0000000E+00  1.0000000E+00
-13  1  5  5   0   0 -1.5899397E+02 -3.5655317E+02 -1.8698991E+01  3.9084383E+02  2.9394217E-06  0.0000000E+00  1.0000000E+00
 13  1  5  5   0   0  6.5178699E+00 -6.0313670E+01  1.6240961E+01  6.2801196E+01  9.4439041E-06  0.0000000E+00  1.0000000E+00
</event>
<event>
9 100 1.0000000E+00 1.0000000E+03 7.8125000E-03 0.0000000E+00
 21 -1  0  0 501 502  0.0000000E+00  0.0000000E+00  1.6733943E+02  1.6733943E+02  0.0000000E+00  0.0000000E+00  1.0000000E+00
 21 -1  0  0 502 501  0.0000000E+00  0.0000000E+00 -1.5916348E+03  1.5916348E+03  0.0000000E+00  0.0000000E+00  1.0000000E+00
 39  2  1  2   0   0  6.9633188E-12  6.2811978E-12 -1.4242954E+03  1.7589743E+03  1.0321691E+03  0.0000000E+00  1.0000000E+00
 23  2  3  3   0   0  2.5191428E+02  2.2892397E+02 -1.3542604E+03  1.3993978E+03  9.1792730E+01  0.0000000E+00  1.0000000E+00
 23  2  3  3   0   0 -2.5191428E+02 -2.2892397E+02 -7.0035018E+01  3.5957650E+02  9.2322094E+01  0.0000000E+00  1.0000000E+00
-11  1  4  4   0   0  1.6490085E+02  1.2210209E+02 -9.6217704E+02  9.8381190E+02  1.4273290E-05  0.0000000E+00  1.0000000E+00
 11  1  4  4   0   0  8.7013423E+01  1.0682188E+02 -3.9208336E+02  4.1558587E+02  2.8546580E-05  0.0000000E+00  1.0000000E+00
-13  1  5  5   0   0 -1.8078189E+01 -2.2800542E+01 -3.5579826E+01  4.5963134E+01  1.0024927E-05  0.0000000E+00  1.0000000E+00
 13  1  5  5   0   0 -2.3383609E+02 -2.0612343E+02 -3.4455192E+01  3.1361336E+02  2.3841858E-06  0.0000000E+00  1.0000000E+00
</event>
<event>
9 100 1.0000000E+00 1.0000000E+03 7.8125000E-03 0.0000000E+00
 21 -1  0  0 501 502  0.0000000E+00  0.0000000E+00  5.5351130E+02  5.5351130E+02  0.0000000E+00  0.0000000E+00  1.0000000E+00
 21 -1  0  0 502 501  0.0000000E+00  0.0000000E+00 -4.4631187E+02  4.4631187E+02  0.0000000E+00  0.0000000E+00  1.0000000E+00
 39  2  1  2   0   0 -5.6843419E-14  5.6843419E-14  1.0719943E+02  9.9982317E+02  9.9405968E+02  0.0000000E+00  1.0000000E+00
 23  2  3  3   0   0  2.1244444E+02 -3.6649948E+02  2.9938205E+02  5.2632443E+02  8.9068970E+01  0.0000000E+00  1.0000000E+00
 23  2  3  3   0   0 -2.1244444E+02  3.6649948E+02 -1.9218262E+02  4.7349874E+02  8.8387741E+01  0.0000000E+00  1.0000000E+00
-11  1  4  4   0   0  1.5445211E+01 -1.0138193E+02  6.8114941E+01  1.2311172E+02  1.0446979E-05  0.0000000E+00  1.0000000E+00
 11  1  4  4   0   0  1.9699923E+02 -2.6511755E+02  2.3126711E+02  4.0321271E+02  2.6973983E-06  0.0000000E+00  1.0000000E+00
-13  1  5  5   0   0 -1.7797439E+02  2.5141666E+02 -1.0644540E+02  3.2590772E+02  3.0157830E-06  0.0000000E+00  1.0000000E+00
 13  1  5  5   0   0 -3.4470054E+01  1.1508282E+02 -8.5737211E+01  1.4759102E+02  7.1366451E-06  0.0000000E+00  1.0000000E+00
</event>
<event>
9 100 1.0000000E+00 1.0000000E+03 7.8125000E-03 0.0000000E+00
 21 -1  0  0 501 502  0.0000000E+00  0.0000000E+00  3.0118749E+02  3.0118749E+02  0.0000000E+00  0.0000000E+00  1.0000000E+00
 21 -1  0  0 502 501  0.0000000E+00  0.0000000E+00 -8.1880983E+02  8.1880983E+02  0.0000000E+00  0.0000000E+00  1.0000000E+00
 39  2  1  2   0   0  1.1937118E-12  1.1368684E-12 -5.1762233E+02  1.1199973E+03  9.9320749E+02  0.0000000E+00  1.0000000E+00
 23  2  3  3   0   0  2.9115329E+02  2.9277189E+02  3.4762646E+01  4.2422011E+02  9.0932086E+01  0.0000000E+00  1.0000000E+00
 23  2  3  3   0   0 -2.9115329E+02 -2.9277189E+02 -5.5238498E+02  6.9577721E+02  9.2147473E+01  0.0000000E+00  1.0000000E+00
-11  1  4  4   0   0  2.0605089E+02  1.4400722E+02  1.8613476E+01  2.5207442E+02  4.7802776E-06  0.0000000E+00  1.0000000E+00
 11  1  4  4   0   0  8.5102394E+01  1.4876467E+02  1.6149169E+01  1.7214569E+02  3.5121250E-06  0.0000000E+00  1.0000000E+00
-13  1  5  5   0   0 -1.2657352E+02 -1.8859578E+02 -2.7176421E+02  3.5418217E+02  1.0092740E-05  0.0000000E+00  1.0000000E+00
 13  1  5  5   0   0 -1.6457976E+02 -1.0417611E+02 -2.8062076E+02  3.4159504E+02  1.2063132E-05  0.0000000E+00  1.0000000E+00
</event>
<event>
9 100 1.0000000E+00 1.0000000E+03 7.8125000E-03 0.0000000E+00
 21 -1  0  0 501 502  0.0000000E+00  0.0000000E+00  1.1673134E+03  1.1673134E+03  0.0000000E+00  0.0000000E+00  1.0000000E+00
 21 -1  0  0 502 501  0.0000000E+00  0.0000000E+00 -2.1237331E+02  2.1237331E+02  0.0000000E+00  0.0000000E+00  1.0000000E+00
 39  2  1  2   0   0 -2.2168933E-12 -7.1764816E-13  9.5494007E+02  1.3796867E+03  9.9580362E+02  0.0000000E+00  1.0000000E+00
 23  2  3  3   0   0 -1.5534615E+02 -5.0658909E+01  1.1133787E+03  1.1290541E+03  9.1935703E+01  0.0000000E+00  1.0000000E+00
 23  2  3  3   0   0  1.5534615E+02  5.0658909E+01 -1.5843864E+02  2.5063264E+02  1.0495316E+02  0.0000000E+00  1.0000000E+00
-11  1  4  4   0   0 -1.1613720E+02  5.1404080E+00  5.9923635E+02  6.1040845E+02  0.0000000E+00  0.0000000E+00  1.0000000E+00
 11  1  4  4   0   0 -3.9208956E+01 -5.5799317E+01  5.1414236E+02  5.1864561E+02  1.3214499E-05  0.0000000E+00  1.0000000E+00
-13  1  5  5   0   0  5.5085257E+01  8.2400870E+00 -1.2483875E+02  1.3670039E+02  5.0688485E-06  0.0000000E+00  1.0000000E+00
 13  1  5  5   0   0  1.0026090E+02  4.2418822E+01 -3.3599887E+01  1.1393224E+02  7.0080464E-06  0.0000000E+00  1.0000000E+00
</event>
<event>
9 100 1.0000000E+00 1.0000000E+03 7.8125000E-03 0.0000000E+00
 21 -1  0  0 501 502  0.0000000E+00  0.0000000E+00  3.7509916E+02  3.7509916E+02  0.0000000E+00  0.0000000E+00  1.0000000E+00
 21 -1  0  0 502 501  0.0000000E+00  0.0000000E+00 -6.6586354E+02  6.6586354E+02  0.0000000E+00  0.0000000E+00  1.0000000E+00
 39  2  1  2   0   0 -7.9580786E-13  4.8316906E-13 -2.9076438E+02  1.0409627E+03  9.9952960E+02  0.0000000E+00  1.0000000E+00
 23  2  3  3   0   0  3.5246343E+02 -2.2624552E+02 -4.1306671E+02  5.9539830E+02  9.1964782E+01  0.0000000E+00  1.0000000E+00
 23  2  3  3   0   0 -3.5246343E+02  2.2624552E+02  1.2230233E+02  4.4556440E+02  9.0289931E+01  0.0000000E+00  1.0000000E+00
-11  1  4  4   0   0  1.7412831E+01  8.5081542E+00 -1.4169264E+01  2.4007570E+01  1.5258789E-05  0.0000000E+00  1.0000000E+00
 11  1  4  4   0   0  3.3505060E+02 -2.3475367E+02 -3.9889745E+02  5.7139073E+02  6.5293617E-07  0.0000000E+00  1.0000000E+00
-13  1  5  5   0   0 -3.5187730E+02  2.0508552E+02  1.1600777E+02  4.2348023E+02  4.6932744E-07  0.0000000E+00  1.0000000E+00
 13  1  5  5   0   0 -5.8613189E-01  2.1159998E+01  6.2945612E+00  2.2084170E+01  1.1364341E-05  0.0000000E+00  1.0000000E+00
</event>
<event>
9 100 1.0000000E+00 1.0000000E+03 7.8125000E-03 0.0000000E+00
 21 -1  0  0 501 502  0.0000000E+00  0.0000000E+00  3.5592570E+02  3.5592570E+02  0.0000000E+00  0.0000000E+00  1.0000000E+00
 21 -1  0  0 502 501  0.0000000E+00  0.0000000E+00 -6.8419506E+02  6.8419506E+02  0.0000000E+00  0.0000000E+00  1.0000000E+00
 39  2  1  2   0   0  5.6843419E-13  3.1974423E-14 -3.2826937E+02  1.0401208E+03  9.8696019E+02  0.0000000E+00  1.0000000E+00
 23  2  3  3   0   0  3.9666036E+02  2.9354199E+01 -4.5196839E+02  6.0887055E+02  9.0811977E+01  0.0000000E+00  1.0000000E+00
 23  2  3  3   0   0 -3.9666036E+02 -2.9354199E+01  1.2369902E+02  4.3125021E+02  1.1168790E+02  0.0000000E+00  1.0000000E+00
-11  1  4  4   0   0  3.6976532E+02  5.1192325E+01 -4.1106380E+02  5.5526614E+02  3.2340670E-06  0.0000000E+00  1.0000000E+00
 11  1  4  4   0   0  2.6895040E+01 -2.1838127E+01 -4.0904589E+01  5.3604407E+01  1.6184390E-05  0.0000000E+00  1.0000000E+00
-13  1  5  5   0   0 -1.5136029E+01 -2.3498866E+01  2.4073780E+01  3.6889605E+01  1.2651920E-05  0.0000000E+00  1.0000000E+00
 13  1  5  5   0   0 -3.8152433E+02 -5.8553330E+00  9.9625240E+01  3.9436060E+02  1.9369217E-06  0.0000000E+00  1.0000000E+00
</event>
<event>
9 100 1.0000000E+00 1.0000000E+03 7.8125000E-03 0.0000000E+00
 21 -1  0  0 501 502  0.0000000E+00  0.0000000E+00  3.4286890E+02  3.4286890E+02  0.0000000E+00  0.0000000E+00  1.0000000E+00
 21 -1  0  0 502 501  0.0000000E+00  0.0000000E+00 -6.3035492E+02  6.3035492E+02  0.0000000E+00  0.0000000E+00  1.0000000E+00
 39  2  1  2   0   0  6.5369932E-13  1.2434498E-14 -2.8748602E+02  9.7322382E+02  9.2979374E+02  0.0000000E+00  1.0000000E+00
 23  2  3  3   0   0  2.0027263E+02  3.7351109E+00 -5.7518007E+02  6.1117469E+02  5.0786946E+01  0.0000000E+00  1.0000000E+00
 23  2  3  3   0   0 -2.0027263E+02 -3.7351109E+00  2.8769404E+02  3.6204913E+02  9.0491081E+01  0.0000000E+00  1.0000000E+00
-11  1  4  4   0   0  2.3586912E+01  5.1305708E+00 -1.2981656E+02  1.3204167E+02  7.6293945E-06  0.0000000E+00  1.0000000E+00
 11  1  4  4   0   0  1.7668572E+02 -1.3954599E+00 -4.4536351E+02  4.7913301E+02  2.6973983E-06  0.0000000E+00  1.0000000E+00
-13  1  5  5   0   0 -1.5318370E+02 -3.1423119E+01  2.5271831E+02  2.9718547E+02  2.3841858E-06  0.0000000E+00  1.0000000E+00
 13  1  5  5   0   0 -4.7088928E+01  2.7688008E+01  3.4975728E+01  6.4863660E+01  8.9462581E-06  0.0000000E+00  1.0000000E+00
</event>
<event>
9 100 1.0000000E+00 1.0000000E+03 7.8125000E-03 0.0000000E+00
 21 -1  0  0 501 502  0.0000000E+00  0.0000000E+00  4.0662960E+02  4.0662960E+02  0.0000000E+00  0.0000000E+00  1.0000000E+00
 21 -1  0  0 502 501  0.0000000E+00  0.0000000E+00 -6.1592841E+02  6.1592841E+02  0.0000000E+00  0.0000000E+00  1.0000000E+00
 39  2  1  2   0   0 -1.7053026E-13  5.6843419E-14 -2.0929881E+02  1.0225580E+03  1.0009090E+03  0.0000000E+00  1.0000000E+00
 23  2  3  3   0   0 -3.5483364E+02  1.4855456E+02  1.9241040E+02  4.5902577E+02  1.6033567E+02  0.0000000E+00  1.0000000E+00
 23  2  3  3   0   0  3.5483364E+02 -1.4855456E+02 -4.0170921E+02  5.6353224E+02  9.0680361E+01  0.0000000E+00  1.0000000E+00
-11  1  4  4   0   0 -1.2528889E+02  6.6150923E+01  1.5882795E+02  2.1283695E+02  1.0683707E-05  0.0000000E+00  1.0000000E+00
 11  1  4  4   0   0 -2.2954476E+02  8.2403634E+01  3.3582449E+01  2.4618882E+02  1.2507321E-05  0.0000000E+00  1.0000000E+00
-13  1  5  5   0   0  1.8997694E+02 -8.1892009E+01 -1.5082579E+02  2.5601944E+02  8.9462581E-06  0.0000000E+00  1.0000000E+00
 13  1  5  5   0   0  1.6485671E+02 -6.6662548E+01 -2.5088343E+02  3.0751280E+02  8.7405695E-06  0.0000000E+00  1.0000000E+00
</event>
<event>
9 100 1.0000000E+00 1.0000000E+03 7.8125000E-03 0.0000000E+00
 21 -1  0  0 501 502  0.0000000E+00  0.0000000E+00  1.8809770E+02  1.8809770E+02  0.0000000E+00  0.0000000E+00  1.0000000E+00
 21 -1  0  0 502 501  0.0000000E+00  0.0000000E+00 -1.3474839E+03  1.3474839E+03  0.0000000E+00  0.0000000E+00  1.0000000E+00
 39  2  1  2   0   0  2.8137492E-12  2.7569058E-12 -1.1593862E+03  1.5355816E+03  1.0068935E+03  0.0000000E+00  1.0000000E+00
 23  2  3  3   0   0 -2.0017222E+02 -1.9653841E+02 -1.2021126E+03  1.2376645E+03  8.9679692E+01  0.0000000E+00  1.0000000E+00
 23  2  3  3   0   0  2.0017222E+02  1.9653841E+02  4.2726396E+01  2.9791711E+02  9.0734768E+01  0.0000000E+00  1.0000000E+00
-11  1  4  4   0   0 -1.9676894E+02 -2.0192266E+02 -1.1961875E+03  1.2289651E+03  2.0071814E-06  0.0000000E+00  1.0000000E+00
 11  1  4  4   0   0 -3.4032746E+00  5.3842474E+00 -5.9251642E+00  8.6994235E+00  3.0517578E-05  0.0000000E+00  1.0000000E+00
-13  1  5  5   0   0  1.0930451E+02  1.1940805E+02  6.8823223E+01  1.7590451E+02  1.1187905E-05  0.0000000E+00  1.0000000E+00
 13  1  5  5   0   0  9.0867701E+01  7.7130361E+01 -2.6096827E+01  1.2201261E+02  1.4896869E-05  0.0000000E+00  1.0000000E+00
</event>
<event>
9 100 1.0000000E+00 1.0000000E+03 7.8125000E-03 0.0000000E+00
 21 -1  0  0 501 502  0.0000000E+00  0.0000000E+00  1.8718157E+03  1.8718157E+03  0.0000000E+00  0.0000000E+00  1.0000000E+00
 21 -1  0  0 502 501  0.0000000E+00  0.0000000E+00 -1.3472287E+02  1.3472287E+02  0.0000000E+00  0.0000000E+00  1.0000000E+00
 39  2  1  2   0   0  4.1211479E-13  5.0590643E-12  1.7370928E+03  2.0065385E+03  1.0043433E+03  0.0000000E+00  1.0000000E+00
 23  2  3  3   0   0  3.0543274E+01  3.8064631E+02  1.4932115E+03  1.5439481E+03  9.0942304E+01  0.0000000E+00  1.0000000E+00
 23  2  3  3   0   0 -3.0543274E+01 -3.8064631E+02  2.4388127E+02  4.6259045E+02  9.3205943E+01  0.0000000E+00  1.0000000E+00
-11  1  4  4   0   0  3.2524174E+01  3.8547419E+02  1.4805402E+03  1.5302443E+03  2.9200193E-07  0.0000000E+00  1.0000000E+00
 11  1  4  4   0   0 -1.9809000E+00 -4.8278840E+00  1.2671306E+01  1.3703810E+01  4.3158373E-05  0.0000000E+00  1.0000000E+00
-13  1  5  5   0   0 -2.7445633E+01 -3.7642816E+02  2.5135596E+02  4.5346581E+02  2.3314485E-06  0.0000000E+00  1.0000000E+00
 13  1  5  5   0   0 -3.0976416E+00 -4.2181462E+00 -7.4746862E+00  9.1246410E+00  2.5159656E-05  0.0000000E+00  1.0000000E+00
</event>
<event>
9 100 1.0000000E+00 1.0000000E+03 7.8125000E-03 0.0000000E+00
 21 -1  0  0 501 502  0.0000000E+00  0.0000000E+00  3.8798759E+02  3.8798759E+02  0.0000000E+00  0.0000000E+00  1.0000000E+00
 21 -1  0  0 502 501  0.0000000E+00  0.0000000E+00 -6.3978700E+02  6.3978700E+02  0.0000000E+00  0.0000000E+00  1.0000000E+00
 39  2  1  2   0   0  3.1263880E-13  5.1159077E-13 -2.5179941E+02  1.0277746E+03  9.9645254E+02  0.0000000E+00  1.0000000E+00
 23  2  3  3   0   0 -2.2086403E+02 -3.7833049E+02 -3.5167931E+02  5.6899117E+02  9.0320153E+01  0.0000000E+00  1.0000000E+00
 23  2  3  3   0   0  2.2086403E+02  3.7833049E+02  9.9879907E+01  4.5878342E+02  9.2689529E+01  0.0000000E+00  1.0000000E+00
-11  1  4  4   0   0 -9.6034206E+01 -1.3309482E+02 -8.1098692E+01  1.8306774E+02  1.6184390E-05  0.0000000E+00  1.0000000E+00
 11  1  4  4   0   0 -1.2482982E+02 -2.4523567E+02 -2.7058062E+02  3.8592343E+02  9.4889396E-06  0.0000000E+00  1.0000000E+00
-13  1  5  5   0   0  1.1105915E+01  8.3294409E+01  3.4928424E+01  9.1001620E+01  1.9844677E-05  0.0000000E+00  1.0000000E+00
 13  1  5  5   0   0  2.0975811E+02  2.9503608E+02  6.4951483E+01  3.6778180E+02  5.7616453E-06  0.0000000E+00  1.0000000E+00
</event>
<event>
9 100 1.0000000E+00 1.0000000E+03 7.8125000E-03 0.0000000E+00
 21 -1  0  0 501 502  0.0000000E+00  0.0000000E+00  8.9891847E+02  8.9891847E+02  0.0000000E+00  0.0000000E+00  1.0000000E+00
 21 -1  0  0 502 501  0.0000000E+00  0.0000000E+00 -2.8056154E+02  2.8056154E+02  0.0000000E+00  0.0000000E+00  1.0000000E+00
 39  2  1  2   0   0 -1.5631940E-13 -5.4001248E-13  6.1835693E+02  1.1794800E+03  1.0043942E+03  0.0000000E+00  1.0000000E+00
 23  2  3  3   0   0  6.0290390E+01  2.1075905E+02 -2.1061873E+02  3.1788243E+02  9.2922987E+01  0.0000000E+00  1.0000000E+00
 23  2  3  3   0   0 -6.0290390E+01 -2.1075905E+02  8.2897565E+02  8.6159758E+02  8.4234500E+01  0.0000000E+00  1.0000000E+00
-11  1  4  4   0   0  5.3631453E+00 -9.5805483E+00 -1.0838439E+01  1.5427961E+01  1.1444092E-05  0.0000000E+00  1.0000000E+00
 11  1  4  4   0   0  5.4927244E+01  2.2033960E+02 -1.9978029E+02  3.0245447E+02  2.2302016E-06  0.0000000E+00  1.0000000E+00
-13  1  5  5   0   0 -5.1582031E+01 -5.6309801E+01  2.0587790E+02  2.1958417E+02  0.0000000E+00  0.0000000E+00  1.0000000E+00
 13  1  5  5   0   0 -8.7083584E+00 -1.5444925E+02  6.2309775E+02  6.4201341E+02  6.6072495E-06  0.0000000E+00  1.0000000E+00
</event>
<event>
9 100 1.0000000E+00 1.0000000E+03 7.8125000E-03 0.0000000E+00
 21 -1  0  0 501 502  0.0000000E+00  0.0000000E+00  2.0269893E+02  2.0269893E+02  0.0000000E+00  0.0000000E+00  1.0000000E+00
 21 -1  0  0 502 501  0.0000000E+00  0.0000000E+00 -1.0407046E+03  1.0407046E+03  0.0000000E+00  0.0000000E+00  1.0000000E+00
 39  2  1  2   0   0 -1.8758328E-12  4.8316906E-13 -8.3800563E+02  1.2434035E+03  9.1858522E+02  0.0000000E+00  1.0000000E+00
 23  2  3  3   0   0 -4.3365937E+02  1.1052279E+02 -4.8754593E+02  6.6779364E+02  8.9283659E+01  0.0000000E+00  1.0000000E+00
 23  2  3  3   0   0  4.3365937E+02 -1.1052279E+02 -3.5045970E+02  5.7560986E+02  9.0713625E+01  0.0000000E+00  1.0000000E+00
-11  1  4  4   0   0 -2.3771508E+02  1.5617011E+01 -2.4083731E+02  3.3875502E+02  1.2936268E-05  0.0000000E+00  1.0000000E+00
 11  1  4  4   0   0 -1.9594429E+02  9.4905782E+01 -2.4670862E+02  3.2903862E+02  1.0092740E-05  0.0000000E+00  1.0000000E+00
-13  1  5  5   0   0  7.5952106E+01 -2.7007472E+01 -2.3815272E+01  8.4055298E+01  9.3440618E-06  0.0000000E+00  1.0000000E+00
 13  1  5  5   0   0  3.5770727E+02 -8.3515321E+01 -3.2664443E+02  4.9155456E+02  1.0662403E-06  0.0000000E+00  1.0000000E+00
</event>
<event>
9 100 1.0000000E+00 1.0000000E+03 7.8125000E-03 0.0000000E+00
 21 -1  0  0 501 502  0.0000000E+00  0.0000000E+00  3.8821186E+02  3.8821186E+02  0.0000000E+00  0.0000000E+00  1.0000000E+00
 21 -1  0  0 502 501  0.0000000E+00  0.0000000E+00 -6.3541572E+02  6.3541572E+02  0.0000000E+00  0.0000000E+00  1.0000000E+00
 39  2  1  2   0   0  1.4779289E-12 -4.5474735E-13 -2.4720386E+02  1.0236276E+03  9.9332959E+02  0.0000000E+00  1.0000000E+00
 23  2  3  3   0   0 -4.3080800E+02  1.3760025E+02 -3.1365693E+02  5.5753515E+02  8.9080968E+01  0.0000000E+00  1.0000000E+00
 23  2  3  3   0   0  4.3080800E+02 -1.3760025E+02  6.6453067E+01  4.6609242E+02  9.1086650E+01  0.0000000E+00  1.0000000E+00
-11  1  4  4   0   0 -2.5617139E+02  8.1167260E+01 -2.3820939E+02  3.5910391E+02  6.6757202E-06  0.0000000E+00  1.0000000E+00
 11  1  4  4   0   0 -1.7463660E+02  5.6432994E+01 -7.5447537E+01  1.9843124E+02  0.0000000E+00  0.0000000E+00  1.0000000E+00
-13  1  5  5   0   0  6.6760038E+00 -3.9992676E+00  1.6972346E+01  1.8671467E+01  2.0230487E-06  0.0000000E+00  1.0000000E+00
 13  1  5  5   0   0  4.2413199E+02 -1.3360099E+02  4.9480722E+01  4.4742096E+02  1.5634152E-06  0.0000000E+00  1.0000000E+00
</event>
<event>
9 100 1.0000000E+00 1.0000000E+03 7.8125000E-03 0.0000000E+00
 21 -1  0  0 501 502  0.0000000E+00  0.0000000E+00  5.1356036E+02  5.1356036E+02  0.0000000E+00  0.0000000E+00  1.0000000E+00
 21 -1  0  0 502 501  0.0000000E+00  0.0000000E+00 -4.8594720E+02  4.8594720E+02  0.0000000E+00  0.0000000E+00  1.0000000E+00
 39  2  1  2   0   0 -2.5579538E-13 -2.5579538E-13  2.7613165E+01  9.9950756E+02  9.9912605E+02  0.0000000E+00  1.0000000E+00
 23  2  3  3   0   0 -1.1791630E+02 -1.0320539E+02  4.7985285E+02  5.1217889E+02  8.6676751E+01  0.0000000E+00  1.0000000E+00
 23  2  3  3   0   0  1.1791630E+02  1.0320539E+02 -4.5223968E+02  4.8732866E+02  9.1721803E+01  0.0000000E+00  1.0000000E+00
-11  1  4  4   0   0 -4.4586638E+01 -9.1269657E+01  2.2816456E+02  2.4975425E+02  2.6973983E-06  0.0000000E+00  1.0000000E+00
 11  1  4  4   0   0 -7.3329659E+01 -1.1935735E+01  2.5168828E+02  2.6242464E+02  4.6720309E-06  0.0000000E+00  1.0000000E+00
-13  1  5  5   0   0 -1.5277369E+01  1.7220569E+01 -5.5295255E+01  5.9895836E+01  1.2063132E-05  0.0000000E+00  1.0000000E+00
 13  1  5  5   0   0  1.3319367E+02  8.5984823E+01 -3.9694443E+02  4.2743283E+02  3.3036247E-06  0.0000000E+00  1.0000000E+00
</event>
<event>
9 100 1.0000000E+00 1.0000000E+03 7.8125000E-03 0.0000000E+00
 21 -1  0  0 501 502  0.0000000E+00  0.0000000E+00  8.0451920E+01  8.0451920E+01  0.0000000E+00  0.0000000E+00  1.0000000E+00
 21 -1  0  0 502 501  0.0000000E+00  0.0000000E+00 -3.0938867E+03  3.0938867E+03  0.0000000E+00  0.0000000E+00  1.0000000E+00
 39  2  1  2   0   0 -7.1054274E-12  9.4360075E-12 -3.0134348E+03  3.1743386E+03  9.9781587E+02  0.0000000E+00  1.0000000E+00
 23  2  3  3   0   0 -2.9365060E+02  3.9661336E+02 -1.4177658E+03  1.5034230E+03  8.1780651E+01  0.0000000E+00  1.0000000E+00
 23  2  3  3   0   0  2.9365060E+02 -3.9661336E+02 -1.5956689E+03  1.6709156E+03  4.7609145E+01  0.0000000E+00  1.0000000E+00
-11  1  4  4   0   0 -2.9184950E+02  3.5957060E+02 -1.3167727E+03  1.3958357E+03  6.8770433E-06  0.0000000E+00  1.0000000E+00
 11  1  4  4   0   0 -1.8010956E+00  3.7042761E+01 -1.0099317E+02  1.0758732E+02  5.7093161E-05  0.0000000E+00  1.0000000E+00
-13  1  5  5   0   0  1.5114641E+02 -2.0768196E+02 -7.5036431E+02  7.9311010E+02  2.8546580E-05  0.0000000E+00  1.0000000E+00
 13  1  5  5   0   0  1.4250419E+02 -1.8893140E+02 -8.4530463E+02  8.7780546E+02  1.8688124E-05  0.0000000E+00  1.0000000E+00
</event>
<event>
9 100 1.0000000E+00 1.0000000E+03 7.8125000E-03 0.0000000E+00
 21 -1  0  0 501 502  0.0000000E+00  0.0000000E+00  3.4275013E+02  3.4275013E+02  0.0000000E+00  0.0000000E+00  1.0000000E+00
 21 -1  0  0 502 501  0.0000000E+00  0.0000000E+00 -7.3484235E+02  7.3484235E+02  0.0000000E+00  0.0000000E+00  1.0000000E+00
 39  2  1  2   0   0  3.9790393E-13 -1.0800250E-12 -3.9209222E+02  1.0775925E+03  1.0037277E+03  0.0000000E+00  1.0000000E+00
 23  2  3  3   0   0  1.7922022E+02 -4.5602943E+02 -2.6250535E+02  5.6260990E+02  8.6822311E+01  0.0000000E+00  1.0000000E+00
 23  2  3  3   0   0 -1.7922022E+02  4.5602943E+02 -1.2958688E+02  5.1498258E+02  9.1277465E+01  0.0000000E+00  1.0000000E+00
-11  1  4  4   0   0  1.8380689E+02 -3.9786931E+02 -2.4277238E+02  5.0102234E+02  2.1457672E-06  0.0000000E+00  1.0000000E+00
 11  1  4  4   0   0 -4.5866722E+00 -5.8160113E+01 -1.9732969E+01  6.1587551E+01  1.2361032E-05  0.0000000E+00  1.0000000E+00
-13  1  5  5   0   0 -7.3103941E+01  3.0553531E+02 -7.6512178E+01  3.2334212E+02  3.4385216E-06  0.0000000E+00  1.0000000E+00
 13  1  5  5   0   0 -1.0611628E+02  1.5049411E+02 -5.3074698E+01  1.9164046E+02  8.8952818E-06  0.0000000E+00  1.0000000E+00
</event>
<event>
9 100 1.0000000E+00 1.0000000E+03 7.8125000E-03 0.0000000E+00
 21 -1  0  0 501 502  0.0000000E+00  0.0000000E+00  1.8650132E+02  1.8650132E+02  0.0000000E+00  0.0000000E+00  1.0000000E+00
 21 -1  0  0 502 501  0.0000000E+00  0.0000000E+00 -1.3157091E+03  1.3157091E+03  0.0000000E+00  0.0000000E+00  1.0000000E+00
 39  2  1  2   0   0 -2.3305802E-12  2.3305802E-12 -1.1292077E+03  1.5022104E+03  9.9071990E+02  0.0000000E+00  1.0000000E+00
 23  2  3  3   0   0  3.3871166E+02 -3.2419170E+02 -3.6640903E+02  6.0201554E+02  9.1330650E+01  0.0000000E+00  1.0000000E+00
 23  2  3  3   0   0 -3.3871166E+02  3.2419170E+02 -7.6279872E+02  9.0019485E+02  9.3075378E+01  0.0000000E+00  1.0000000E+00
-11  1  4  4   0   0  2.6453625E+02 -2.7424131E+02 -3.3461860E+02  5.0710683E+02  1.6858739E-06  0.0000000E+00  1.0000000E+00
 11  1  4  4   0   0  7.4175409E+01 -4.9950394E+01 -3.1790425E+01  9.4908716E+01  5.3947966E-06  0.0000000E+00  1.0000000E+00
-13  1  5  5   0   0 -2.6042881E+02  2.0329762E+02 -5.7971673E+02  6.6725151E+02  2.6973983E-06  0.0000000E+00  1.0000000E+00
 13  1  5  5   0   0 -7.8282847E+01  1.2089408E+02 -1.8308199E+02  2.3294334E+02  1.0789593E-05  0.0000000E+00  1.0000000E+00
</event>
<event>
9 100 1.0000000E+00 1.0000000E+03 7.8125000E-03 0.0000000E+00
 21 -1  0  0 501 502  0.0000000E+00  0.0000000E+00  3.6292221E+02  3.6292221E+02  0.0000000E+00  0.0000000E+00  1.0000000E+00
 21 -1  0  0 502 501  0.0000000E+00  0.0000000E+00 -6.9406364E+02  6.9406364E+02  0.0000000E+00  0.0000000E+00  1.0000000E+00
 39  2  1  2   0   0 -1.4210855E-12  1.7763568E-13 -3.3114143E+02  1.0569858E+03  1.0037751E+03  0.0000000E+00  1.0000000E+00
 23  2  3  3   0   0 -3.1441390E+02  3.8642917E+01  2.3303287E+02  4.0353536E+02  9.0482584E+01  0.0000000E+00  1.0000000E+00
 23  2  3  3   0   0  3.1441390E+02 -3.8642917E+01 -5.6417429E+02  6.5345048E+02  9.1408551E+01  0.0000000E+00  1.0000000E+00
-11  1  4  4   0   0 -2.9282038E+02  4.8383376E+01  2.3662787E+02  3.7957538E+02  1.9309513E-06  0.0000000E+00  1.0000000E+00
 11  1  4  4   0   0 -2.1593523E+01 -9.7404594E+00 -3.5949972E+00  2.3959983E+01  8.9462581E-06  0.0000000E+00  1.0000000E+00
-13  1  5  5   0   0  2.2757896E+00 -1.4027871E+01 -4.4769531E+01  4.6970963E+01  1.5258789E-05  0.0000000E+00  1.0000000E+00
 13  1  5  5   0   0  3.1213811E+02 -2.4615045E+01 -5.1940476E+02  6.0647952E+02  1.3486992E-06  0.0000000E+00  1.0000000E+00
</event>
<event>
9 100 1.0000000E+00 1.0000000E+03 7.8125000E-03 0.0000000E+00
 21 -1  0  0 501 502  0.0000000E+00  0.0000000E+00  1.2305483E+02  1.2305483E+02  0.0000000E+00  0.0000000E+00  1.0000000E+00
 21 -1  0  0 502 501  0.0000000E+00  0.0000000E+00 -1.9713708E+03  1.9713708E+03  0.0000000E+00  0.0000000E+00  1.0000000E+00
 39  2  1  2   0   0  1.5631940E-12  3.7516656E-12 -1.8483160E+03  2.0944257E+03  9.8506185E+02  0.0000000E+00  1.0000000E+00
 23  2  3  3   0   0 -1.7420917E+02 -4.3675305E+02 -6.7101485E+02  8.2329838E+02  8.0356852E+01  0.0000000E+00  1.0000000E+00
 23  2  3  3   0   0  1.7420917E+02  4.3675305E+02 -1.1773012E+03  1.2711273E+03  9.2868357E+01  0.0000000E+00  1.0000000E+00
-11  1  4  4   0   0 -4.7165972E+01 -2.0108663E+02 -3.3656808E+02  3.9489053E+02  2.1913767E-05  0.0000000E+00  1.0000000E+00
 11  1  4  4   0   0 -1.2704320E+02 -2.3566643E+02 -3.3444677E+02  4.2840785E+02  1.9073486E-05  0.0000000E+00  1.0000000E+00
-13  1  5  5   0   0  7.1424437E+00  1.2800684E+02 -3.0746048E+02  3.3311967E+02  3.2368780E-05  0.0000000E+00  1.0000000E+00
 13  1  5  5   0   0  1.6706673E+02  3.0874622E+02 -8.6984068E+02  9.3800763E+02  1.4774259E-05  0.0000000E+00  1.0000000E+00
</event>
<event>
9 100 1.0000000E+00 1.0000000E+03 7.8125000E-03 0.0000000E+00
 21 -1  0  0 501 502  0.0000000E+00  0.0000000E+00  6.1733358E+02  6.1733358E+02  0.0000000E+00  0.0000000E+00  1.0000000E+00
 21 -1  0  0 502 501  0.0000000E+00  0.0000000E+00 -3.8981447E+02  3.8981447E+02  0.0000000E+00  0.0000000E+00  1.0000000E+00
 39  2  1  2   0   0 -4.9737992E-14  7.3896445E-13  2.2751911E+02  1.0071480E+03  9.8111275E+02  0.0000000E+00  1.0000000E+00
 23  2  3  3   0   0  2.2551877E+01 -3.2000381E+02  4.8299841E+02  5.8701680E+02  9.1598241E+01  0.0000000E+00  1.0000000E+00
 23  2  3  3   0   0 -2.2551877E+01  3.2000381E+02 -2.5547930E+02  4.2013124E+02  9.1266439E+01  0.0000000E+00  1.0000000E+00
-11  1  4  4   0   0 -1.1785120E+01 -2.2880127E+02  3.8997675E+02  4.5229501E+02  4.0460975E-06  0.0000000E+00  1.0000000E+00
 11  1  4  4   0   0  3.4336997E+01 -9.1202537E+01  9.3021662E+01  1.3472179E+02  7.6293945E-06  0.0000000E+00  1.0000000E+00
-13  1  5  5   0   0 -2.8624042E+01  2.3278412E+02 -2.3133183E+02  3.2942708E+02  7.5394575E-07  0.0000000E+00  1.0000000E+00
 13  1  5  5   0   0  6.0721651E+00  8.7219686E+01 -2.4147465E+01  9.0704161E+01  1.0092740E-05  0.0000000E+00  1.0000000E+00
</event>
<event>
9 100 1.0000000E+00 1.0000000E+03 7.8125000E-03 0.0000000E+00
 21 -1  0  0 501 502  0.0000000E+00  0.0000000E+00  1.1188566E+03  1.1188566E+03  0.0000000E+00  0.0000000E+00  1.0000000E+00
 21 -1  0  0 502 501  0.0000000E+00  0.0000000E+00 -2.2456352E+02  2.2456352E+02  0.0000000E+00  0.0000000E+00  1.0000000E+00
 39  2  1  2   0   0  1.5347723E-12  6.8212103E-13  8.9429313E+02  1.3434202E+03  1.0025056E+03  0.0000000E+00  1.0000000E+00
 23  2  3  3   0   0 -3.6245995E+02 -1.6314208E+02  5.6951427E+01  4.1191149E+02  9.1842537E+01  0.0000000E+00  1.0000000E+00
 23  2  3  3   0   0  3.6245995E+02  1.6314208E+02  8.3734170E+02  9.3150868E+02  9.2599953E+01  0.0000000E+00  1.0000000E+00
-11  1  4  4   0   0 -1.1610800E+02 -1.0006080E+02  3.0044557E+01  1.5619189E+02  1.0321074E-05  0.0000000E+00  1.0000000E+00
 11  1  4  4   0   0 -2.4635195E+02 -6.3081283E+01  2.6906870E+01  2.5571959E+02  8.7275530E-06  0.0000000E+00  1.0000000E+00
-13  1  5  5   0   0  1.1797047E+01 -1.0993844E+01  2.5160461E+01  2.9884507E+01  1.8688124E-05  0.0000000E+00  1.0000000E+00
 13  1  5  5   0   0  3.5066290E+02  1.7413593E+02  8.1218124E+02  9.0162418E+02  1.9369217E-06  0.0000000E+00  1.0000000E+00
</event>
<event>
9 100 1.0000000E+00 1.0000000E+03 7.8125000E-03 0.0000000E+00
 21 -1  0  0 501 502  0.0000000E+00  0.0000000E+00  1.4679548E+03  1.4679548E+03  0.0000000E+00  0.0000000E+00  1.0000000E+00
 21 -1  0  0 502 501  0.0000000E+00  0.0000000E+00 -1.7310901E+02  1.7310901E+02  0.0000000E+00  0.0000000E+00  1.0000000E+00
 39  2  1  2   0   0 -2.0463631E-12  4.8032689E-12  1.2948458E+03  1.6410638E+03  1.0081988E+03  0.0000000E+00  1.0000000E+00
 23  2  3  3   0   0 -9.9383312E+01  2.3113921E+02  1.3445467E+03  1.3715084E+03  9.9634703E+01  0.0000000E+00  1.0000000E+00
 23  2  3  3   0   0  9.9383312E+01 -2.3113921E+02 -4.9700884E+01  2.6955544E+02  8.2991422E+01  0.0000000E+00  1.0000000E+00
-11  1  4  4   0   0 -1.5398657E+01  5.2546398E+01  1.3044874E+02  1.4147479E+02  3.0517578E-05  0.0000000E+00  1.0000000E+00
 11  1  4  4   0   0 -8.3984655E+01  1.7859282E+02  1.2140979E+03  1.2300336E+03  6.3259598E-06  0.0000000E+00  1.0000000E+00
-13  1  5  5   0   0  6.1401361E+01 -1.0022962E+02 -6.1642767E+01  1.3272503E+02  5.6066399E-06  0.0000000E+00  1.0000000E+00
 13  1  5  5   0   0  3.7981951E+01 -1.3090959E+02  1.1941882E+01  1.3683040E+02  4.5736613E-06  0.0000000E+00  1.0000000E+00
</event>
<event>
9 100 1.0000000E+00 1.0000000E+03 7.8125000E-03 0.0000000E+00
 21 -1  0  0 501 502  0.0000000E+00  0.0000000E+00  7.5967628E+02  7.5967628E+02  0.0000000E+00  0.0000000E+00  1.0000000E+00
 21 -1  0  0 502 501  0.0000000E+00  0.0000000E+00 -3.2799456E+02  3.2799456E+02  0.0000000E+00  0.0000000E+00  1.0000000E+00
 39  2  1  2   0   0 -2.5579538E-13  7.9580786E-13  4.3168172E+02  1.0876708E+03  9.9833799E+02  0.0000000E+00  1.0000000E+00
 23  2  3  3   0   0  9.5632170E+01 -2.8630093E+02  6.3738458E+02  7.1121648E+02  9.1956793E+01  0.0000000E+00  1.0000000E+00
 23  2  3  3   0   0 -9.5632170E+01  2.8630093E+02 -2.0570285E+02  3.7645436E+02  9.1052091E+01  0.0000000E+00  1.0000000E+00
-11  1  4  4   0   0  5.1680968E+01 -2.5730726E+02  5.4442078E+02  6.0437731E+02  4.8628039E-06  0.0000000E+00  1.0000000E+00
 11  1  4  4   0   0  4.3951203E+01 -2.8993672E+01  9.2963800E+01  1.0683918E+02  1.5258789E-05  0.0000000E+00  1.0000000E+00
-13  1  5  5   0   0 -1.7802156E+01  3.1829717E+01  5.2881093E+00  3.6851211E+01  1.4525934E-05  0.0000000E+00  1.0000000E+00
 13  1  5  5   0   0 -7.7830014E+01  2.5447122E+02 -2.1099096E+02  3.3960315E+02  3.3911848E-06  0.0000000E+00  1.0000000E+00
</event>
<event>
9 100 1.0000000E+00 1.0000000E+03 7.8125000E-03 0.0000000E+00
 21 -1  0  0 501 502  0.0000000E+00  0.0000000E+00  3.2159450E+02  3.2159450E+02  0.0000000E+00  0.0000000E+00  1.0000000E+00
 21 -1  0  0 502 501  0.0000000E+00  0.0000000E+00 -7.6743991E+02  7.6743991E+02  0.0000000E+00  0.0000000E+00  1.0000000E+00
 39  2  1  2   0   0 -4.1211479E-13 -2.1032065E-12 -4.4584542E+02  1.0890344E+03  9.9358835E+02  0.0000000E+00  1.0000000E+00
 23  2  3  3   0   0 -9.2057154E+01 -4.7097370E+02 -1.2466566E+02  5.0442169E+02  9.2784560E+01  0.0000000E+00  1.0000000E+00
 23  2  3  3   0   0  9.2057154E+01  4.7097370E+02 -3.2117976E+02  5.8461272E+02  9.1240613E+01  0.0000000E+00  1.0000000E+00
-11  1  4  4   0   0 -9.4689506E+01 -3.4427298E+02 -1.2310666E+02  3.7768404E+02  5.6606764E-06  0.0000000E+00  1.0000000E+00
 11  1  4  4   0   0  2.6323526E+00 -1.2670072E+02 -1.5589986E+00  1.2673765E+02  1.0619668E-05  0.0000000E+00  1.0000000E+00
-13  1  5  5   0   0  6.3621847E+01  4.4636885E+02 -2.9655276E+02  5.3966326E+02  1.9073486E-06  0.0000000E+00  1.0000000E+00
 13  1  5  5   0   0  2.8435306E+01  2.4604849E+01 -2.4626995E+01  4.4949462E+01  1.5728400E-05  0.0000000E+00  1.0000000E+00
</event>
<event>
9 100 1.0000000E+00 1.0000000E+03 7.8125000E-03 0.0000000E+00
 21 -1  0  0 501 502  0.0000000E+00  0.0000000E+00  8.7833134E+02  8.7833134E+02  0.0000000E+00  0.0000000E+00  1.0000000E+00
 21 -1  0  0 502 501  0.0000000E+00  0.0000000E+00 -2.9039362E+02  2.9039362E+02  0.0000000E+00  0.0000000E+00  1.0000000E+00
 39  2  1  2   0   0  1.4779289E-12 -1.8189894E-12  5.8793771E+02  1.1687250E+03  1.0100729E+03  0.0000000E+00  1.0000000E+00
 23  2  3  3   0   0 -2.9255102E+02  4.0127136E+02  2.8637651E+02  5.8052003E+02  9.1581676E+01  0.0000000E+00  1.0000000E+00
 23  2  3  3   0   0  2.9255102E+02 -4.0127136E+02  3.0156120E+02  5.8820493E+02  9.1875333E+01  0.0000000E+00  1.0000000E+00
-11  1  4  4   0   0 -1.8885394E+02  1.8311972E+02  1.3822123E+02  2.9715947E+02  3.8146973E-06  0.0000000E+00  1.0000000E+00
 11  1  4  4   0   0 -1.0369707E+02  2.1815164E+02  1.4815529E+02  2.8336056E+02  6.8770433E-06  0.0000000E+00  1.0000000E+00
-13  1  5  5   0   0  4.5510692E+01 -1.2160182E+02  1.0149659E+02  1.6480225E+02  1.2651920E-05  0.0000000E+00  1.0000000E+00
 13  1  5  5   0   0  2.4704033E+02 -2.7966954E+02  2.0006461E+02  4.2340267E+02  7.1366451E-06  0.0000000E+00  1.0000000E+00
</event>
<event>
9 100 1.0000000E+00 1.0000000E+03 7.8125000E-03 0.0000000E+00
 21 -1  0  0 501 502  0.0000000E+00  0.0000000E+00  3.1677548E+02  3.1677548E+02  0.0000000E+00  0.0000000E+00  1.0000000E+00
 21 -1  0  0 502 501  0.0000000E+00  0.0000000E+00 -7.8064037E+02  7.8064037E+02  0.0000000E+00  0.0000000E+00  1.0000000E+00
 39  2  1  2   0   0  3.1974423E-14 -5.1159077E-13 -4.6386489E+02  1.0974158E+03  9.9456066E+02  0.0000000E+00  1.0000000E+00
 23  2  3  3   0   0 -1.7087806E+01  4.7336981E+02 -9.8504290E+01  4.9226200E+02  9.0817480E+01  0.0000000E+00  1.0000000E+00
 23  2  3  3   0   0  1.7087806E+01 -4.7336981E+02 -3.6536060E+02  6.0515385E+02  9.1388459E+01  0.0000000E+00  1.0000000E+00
-11  1  4  4   0   0  3.1033670E+01  2.9758077E+02 -4.6964471E+01  3.0285816E+02  8.4495760E-06  0.0000000E+00  1.0000000E+00
 11  1  4  4   0   0 -4.8121476E+01  1.7578904E+02 -5.1539819E+01  1.8940384E+02  8.3139399E-06  0.0000000E+00  1.0000000E+00
-13  1  5  5   0   0 -2.5765559E+01 -3.4741712E+02 -2.8146889E+02  4.4786969E+02  7.3253114E-06  0.0000000E+00  1.0000000E+00
 13  1  5  5   0   0  4.2853365E+01 -1.2595268E+02 -8.3891709E+01  1.5728417E+02  1.8294645E-05  0.0000000E+00  1.0000000E+00
</event>
<event>
9 100 1.0000000E+00 1.0000000E+03 7.8125000E-03 0.0000000E+00
 21 -1  0  0 501 502  0.0000000E+00  0.0000000E+00  1.2586899E+03  1.2586899E+03  0.0000000E+00  0.0000000E+00  1.0000000E+00
 21 -1  0  0 502 501  0.0000000E+00  0.0000000E+00 -2.0188282E+02  2.0188282E+02  0.0000000E+00  0.0000000E+00  1.0000000E+00
 39  2  1  2   0   0 -4.9737992E-13 -3.5811354E-12  1.0568071E+03  1.4605727E+03  1.0081823E+03  0.0000000E+00  1.0000000E+00
 23  2  3  3   0   0 -5.8382261E+01 -4.1907602E+02  9.0311317E+02  1.0014247E+03  9.0580470E+01  0.0000000E+00  1.0000000E+00
 23  2  3  3   0   0  5.8382261E+01  4.1907602E+02  1.5369394E+02  4.5914805E+02  9.0343264E+01  0.0000000E+00  1.0000000E+00
-11  1  4  4   0   0 -1.2829515E+01 -1.4599288E+01  9.0580145E+01  9.2641774E+01  1.5258789E-05  0.0000000E+00  1.0000000E+00
 11  1  4  4   0   0 -4.5552746E+01 -4.0447673E+02  8.1253303E+02  9.0878292E+02  5.3947966E-06  0.0000000E+00  1.0000000E+00
-13  1  5  5   0   0  5.8213926E+01  3.4595935E+02  9.0010459E+01  3.6218589E+02  5.4367801E-06  0.0000000E+00  1.0000000E+00
 13  1  5  5   0   0  1.6833537E-01  7.3116669E+01  6.3683476E+01  9.6962161E+01  1.2579828E-05  0.0000000E+00  1.0000000E+00
</event>
<event>
9 100 1.0000000E+00 1.0000000E+03 7.8125000E-03 0.0000000E+00
 21 -1  0  0 501 502  0.0000000E+00  0.0000000E+00  2.4535030E+03  2.4535030E+03  0.0000000E+00  0.0000000E+00  1.0000000E+00
 21 -1  0  0 502 501  0.0000000E+00  0.0000000E+00 -1.0415680E+02  1.0415680E+02  0.0000000E+00  0.0000000E+00  1.0000000E+00
 39  2  1  2   0   0  4.4408921E-15 -2.5579538E-12  2.3493462E+03  2.5576598E+03  1.0110372E+03  0.0000000E+00  1.0000000E+00
 23  2  3  3   0   0 -9.5058726E-01 -3.7525184E+02  1.9988611E+03  2.0357689E+03  8.9970221E+01  0.0000000E+00  1.0000000E+00
 23  2  3  3   0   0  9.5058726E-01  3.7525184E+02  3.5048514E+02  5.2189091E+02  9.3356490E+01  0.0000000E+00  1.0000000E+00
-11  1  4  4   0   0  3.7143315E+01 -2.4764116E+02  1.4070132E+03  1.4291228E+03  1.7059845E-05  0.0000000E+00  1.0000000E+00
 11  1  4  4   0   0 -3.8093902E+01 -1.2761068E+02  5.9184786E+02  6.0664612E+02  5.2857996E-05  0.0000000E+00  1.0000000E+00
-13  1  5  5   0   0  7.8582235E+00  2.3880938E+02  1.6032240E+02  2.8774111E+02  1.7688024E-05  0.0000000E+00  1.0000000E+00
 13  1  5  5   0   0 -6.9076363E+00  1.3644246E+02  1.9016274E+02  2.3414980E+02  2.0275394E-05  0.0000000E+00  1.0000000E+00
</event>
<event>
9 100 1.0000000E+00 1.0000000E+03 7.8125000E-03 0.0000000E+00
 21 -1  0  0 501 502  0.0000000E+00  0.0000000E+00  2.1881790E+02  2.1881790E+02  0.0000000E+00  0.0000000E+00  1.0000000E+00
 21 -1  0  0 502 501  0.0000000E+00  0.0000000E+00 -1.1562775E+03  1.1562775E+03  0.0000000E+00  0.0000000E+00  1.0000000E+00
 39  2  1  2   0   0  5.7980287E-12 -1.3073986E-12 -9.3745960E+02  1.3750954E+03  1.0060104E+03  0.0000000E+00  1.0000000E+00
 23  2  3  3   0   0  4.6035695E+02 -1.0318822E+02 -6.6958629E+02  8.2492459E+02  9.7869467E+01  0.0000000E+00  1.0000000E+00
 23  2  3  3   0   0 -4.6035695E+02  1.0318822E+02 -2.6787331E+02  5.5017081E+02  9.1408305E+01  0.0000000E+00  1.0000000E+00
-11  1  4  4   0   0  1.1728257E+02 -4.0492569E+01 -2.5175294E+02  2.8066776E+02  2.5303839E-05  0.0000000E+00  1.0000000E+00
 11  1  4  4   0   0  3.4307439E+02 -6.2695656E+01 -4.1783335E+02  5.4425682E+02  1.3754087E-05  0.0000000E+00  1.0000000E+00
-13  1  5  5   0   0 -3.3288779E+02  3.2030667E+01 -1.9261117E+02  3.8592656E+02  9.0473490E-06  0.0000000E+00  1.0000000E+00
 13  1  5  5   0   0 -1.2746916E+02  7.1157558E+01 -7.5262139E+01  1.6424425E+02  1.8094698E-05  0.0000000E+00  1.0000000E+00
</event>
<event>
9 100 1.0000000E+00 1.0000000E+03 7.8125000E-03 0.0000000E+00
 21 -1  0  0 501 502  0.0000000E+00  0.0000000E+00  1.2701286E+03  1.2701286E+03  0.0000000E+00  0.0000000E+00  1.0000000E+00
 21 -1  0  0 502 501  0.0000000E+00  0.0000000E+00 -1.9530005E+02  1.9530005E+02  0.0000000E+00  0.0000000E+00  1.0000000E+00
 39  2  1  2   0   0 -1.7053026E-12  3.2684966E-13  1.0748285E+03  1.4654286E+03  9.9610476E+02  0.0000000E+00  1.0000000E+00
 23  2  3  3   0   0 -4.7078913E+02  8.9320598E+01  6.8000543E+02  8.3744051E+02  9.6325745E+01  0.0000000E+00  1.0000000E+00
 23  2  3  3   0   0  4.7078913E+02 -8.9320598E+01  3.9482307E+02  6.2798810E+02  9.4144651E+01  0.0000000E+00  1.0000000E+00
-11  1  4  4   0   0 -9.7785789E+01 -1.0465226E+01  1.8642522E+02  2.1077463E+02  2.0893957E-05  0.0000000E+00  1.0000000E+00
 11  1  4  4   0   0 -3.7300334E+02  9.9785825E+01  4.9358021E+02  6.2666588E+02  4.6720309E-06  0.0000000E+00  1.0000000E+00
-13  1  5  5   0   0  3.5354378E+02 -2.4547717E+01  2.8521884E+02  4.5491272E+02  5.7220459E-06  0.0000000E+00  1.0000000E+00
 13  1  5  5   0   0  1.1724535E+02 -6.4772881E+01  1.0960423E+02  1.7307537E+02  1.3214499E-05  0.0000000E+00  1.0000000E+00
</event>
<event>
9 100 1.0000000E+00 1.0000000E+03 7.8125000E-03 0.0000000E+00
 21 -1  0  0 501 502  0.0000000E+00  0.0000000E+00  3.0927144E+02  3.0927144E+02  0.0000000E+00  0.0000000E+00  1.0000000E+00
 21 -1  0  0 502 501  0.0000000E+00  0.0000000E+00 -7.7442410E+02  7.7442410E+02  0.0000000E+00  0.0000000E+00  1.0000000E+00
 39  2  1  2   0   0 -1.6484591E-12  2.4158453E-13 -4.6515266E+02  1.0836955E+03  9.7878957E+02  0.0000000E+00  1.0000000E+00
 23  2  3  3   0   0 -4.2738004E+02  6.8673145E+01  1.1125587E+01  4.3397543E+02  2.9003415E+01  0.0000000E+00  1.0000000E+00
 23  2  3  3   0   0  4.2738004E+02 -6.8673145E+01 -4.7627825E+02  6.4972011E+02  8.9025568E+01  0.0000000E+00  1.0000000E+00
-11  1  4  4   0   0 -2.7021119E+02  5.3194300E+01  1.7154706E+01  2.7593116E+02  2.4108587E-06  0.0000000E+00  1.0000000E+00
 11  1  4  4   0   0 -1.5716885E+02  1.5478845E+01 -6.0291196E+00  1.5804427E+02  8.9208064E-07  0.0000000E+00  1.0000000E+00
-13  1  5  5   0   0  2.7753378E+02 -5.7682963E+01 -2.4916823E+02  3.7740844E+02  1.1444092E-05  0.0000000E+00  1.0000000E+00
 13  1  5  5   0   0  1.4984626E+02 -1.0990181E+01 -2.2711001E+02  2.7231167E+02  1.3754087E-05  0.0000000E+00  1.0000000E+00
</event>
<event>
9 100 1.0000000E+00 1.0000000E+03 7.8125000E-03 0.0000000E+00
 21 -1  0  0 501 502  0.0000000E+00  0.0000000E+00  9.3529437E+02  9.3529437E+02  0.0000000E+00  0.0000000E+00  1.0000000E+00
 21 -1  0  0 502 501  0.0000000E+00  0.0000000E+00 -2.6045901E+02  2.6045901E+02  0.0000000E+00  0.0000000E+00  1.0000000E+00
 39  2  1  2   0   0 -3.4106051E-13 -9.6633812E-13  6.7483536E+02  1.1957534E+03  9.8712885E+02  0.0000000E+00  1.0000000E+00
 23  2  3  3   0   0 -1.3968295E+02 -3.7564681E+02  6.5521333E+00  4.1131787E+02  9.2290850E+01  0.0000000E+00  1.0000000E+00
 23  2  3  3   0   0  1.3968295E+02  3.7564681E+02  6.6828323E+02  7.8443551E+02  9.0081821E+01  0.0000000E+00  1.0000000E+00
-11  1  4  4   0   0  4.7579450E+00  3.1981176E+00 -9.0024673E-01  5.8031407E+00  1.8366163E-05  0.0000000E+00  1.0000000E+00
 11  1  4  4   0   0 -1.4444090E+02 -3.7884493E+02  7.4523800E+00  4.0551473E+02  1.9784904E-06  0.0000000E+00  1.0000000E+00
-13  1  5  5   0   0  8.0859145E+00  1.5165842E+01  8.1614284E+01  8.3404293E+01  1.8688124E-05  0.0000000E+00  1.0000000E+00
 13  1  5  5   0   0  1.3159704E+02  3.6048097E+02  5.8666894E+02  7.0103121E+02  9.5367432E-07  0.0000000E+00  1.0000000E+00
</event>
<event>
9 100 1.0000000E+00 1.0000000E+03 7.8125000E-03 0.0000000E+00
 21 -1  0  0 501 502  0.0000000E+00  0.0000000E+00  3.0816486E+02  3.0816486E+02  0.0000000E+00  0.0000000E+00  1.0000000E+00
 21 -1  0  0 502 501  0.0000000E+00  0.0000000E+00 -8.2469106E+02  8.2469106E+02  0.0000000E+00  0.0000000E+00  1.0000000E+00
 39  2  1  2   0   0 -2.8421709E-13 -3.4106051E-13 -5.1652619E+02  1.1328559E+03  1.0082476E+03  0.0000000E+00  1.0000000E+00
 23  2  3  3   0   0  2.5763855E+02  3.1777879E+02 -5.7239180E+02  7.0944965E+02  9.1243931E+01  0.0000000E+00  1.0000000E+00
 23  2  3  3   0   0 -2.5763855E+02 -3.1777879E+02  5.5865607E+01  4.2340627E+02  9.3759920E+01  0.0000000E+00  1.0000000E+00
-11  1  4  4   0   0  6.6037076E+01  1.4305303E+02 -2.5296601E+02  2.9802159E+02  1.7059845E-05  0.0000000E+00  1.0000000E+00
 11  1  4  4   0   0  1.9160148E+02  1.7472575E+02 -3.1942579E+02  4.1142806E+02  1.0446979E-05  0.0000000E+00  1.0000000E+00
-13  1  5  5   0   0 -1.9862519E+02 -2.5538729E+02  8.1764601E+01  3.3370659E+02  3.7242173E-06  0.0000000E+00  1.0000000E+00
 13  1  5  5   0   0 -5.9013363E+01 -6.2391493E+01 -2.5898994E+01  8.9699684E+01  7.8061607E-06  0.0000000E+00  1.0000000E+00
</event>
<event>
9 100 1.0000000E+00 1.0000000E+03 7.8125000E-03 0.0000000E+00
 21 -1  0  0 501 502  0.0000000E+00  0.0000000E+00  6.4620710E+02  6.4620710E+02  0.0000000E+00  0.0000000E+00  1.0000000E+00
 21 -1  0  0 502 501  0.0000000E+00  0.0000000E+00 -4.1965571E+02  4.1965571E+02  0.0000000E+00  0.0000000E+00  1.0000000E+00
 39  2  1  2   0   0 -2.8421709E-13  1.7763568E-13  2.2655139E+02  1.0658628E+03  1.0415076E+03  0.0000000E+00  1.0000000E+00
 23  2  3  3   0   0  9.1666679E+01 -5.6489489E+01  6.2585182E+02  6.4168622E+02  9.2069913E+01  0.0000000E+00  1.0000000E+00
 23  2  3  3   0   0 -9.1666679E+01  5.6489489E+01 -3.9930043E+02  4.2417659E+02  9.4292638E+01  0.0000000E+00  1.0000000E+00
-11  1  4  4   0   0  9.9735705E+01 -7.2258862E+01  5.6721918E+02  5.8043617E+02  3.1629799E-06  0.0000000E+00  1.0000000E+00
 11  1  4  4   0   0 -8.0690254E+00  1.5769374E+01  5.8632640E+01  6.1250051E+01  7.6293945E-06  0.0000000E+00  1.0000000E+00
-13  1  5  5   0   0 -2.1642581E+01  3.6235435E+01 -2.8835056E+02  2.9142315E+02  4.2649612E-06  0.0000000E+00  1.0000000E+00
 13  1  5  5   0   0 -7.0024098E+01  2.0254054E+01 -1.1094987E+02  1.3275344E+02  6.6072495E-06  0.0000000E+00  1.0000000E+00
</event>
<event>
9 100 1.0000000E+00 1.0000000E+03 7.8125000E-03 0.0000000E+00
 21 -1  0  0 501 502  0.0000000E+00  0.0000000E+00  5.4060541E+02  5.4060541E+02  0.0000000E+00  0.0000000E+00  1.0000000E+00
 21 -1  0  0 502 501  0.0000000E+00  0.0000000E+00 -4.5768460E+02  4.5768460E+02  0.0000000E+00  0.0000000E+00  1.0000000E+00
 39  2  1  2   0   0 -1.9895197E-13  2.8421709E-14  8.2920809E+01  9.9829000E+02  9.9484022E+02  0.0000000E+00  1.0000000E+00
 23  2  3  3   0   0 -1.4779197E+02  2.6536499E+01  5.0798391E+02  5.3730321E+02  9.0002415E+01  0.0000000E+00  1.0000000E+00
 23  2  3  3   0   0  1.4779197E+02 -2.6536499E+01 -4.2506310E+02  4.6098680E+02  9.6351111E+01  0.0000000E+00  1.0000000E+00
-11  1  4  4   0   0 -1.4970949E+02  1.3600589E+00  4.2815121E+02  4.5357275E+02  3.3036247E-06  0.0000000E+00  1.0000000E+00
 11  1  4  4   0   0  1.9175191E+00  2.5176440E+01  7.9832695E+01  8.3730456E+01  5.3947966E-06  0.0000000E+00  1.0000000E+00
-13  1  5  5   0   0  5.2490150E+01 -5.7829314E+01 -1.8468193E+02  2.0051649E+02  9.3440618E-06  0.0000000E+00  1.0000000E+00
 13  1  5  5   0   0  9.5301816E+01  3.1292815E+01 -2.4038117E+02  2.6047031E+02  7.6293945E-06  0.0000000E+00  1.0000000E+00
</event>
<event>
9 100 1.0000000E+00 1.0000000E+03 7.8125000E-03 0.0000000E+00
 21 -1  0  0 501 502  0.0000000E+00  0.0000000E+00  9.8675646E+02  9.8675646E+02  0.0000000E+00  0.0000000E+00  1.0000000E+00
 21 -1  0  0 502 501  0.0000000E+00  0.0000000E+00 -2.4616725E+02  2.4616725E+02  0.0000000E+00  0.0000000E+00  1.0000000E+00
 39  2  1  2   0   0 -2.5579538E-13  7.9580786E-13  7.4058921E+02  1.2329237E+03  9.8571217E+02  0.0000000E+00  1.0000000E+00
 23  2  3  3   0   0  9.0321300E+01 -2.5409484E+02  8.7404060E+02  9.1880709E+02  8.6818117E+01  0.0000000E+00  1.0000000E+00
 23  2  3  3   0   0 -9.0321300E+01  2.5409484E+02 -1.3345139E+02  3.1411661E+02  9.0210011E+01  0.0000000E+00  1.0000000E+00
-11  1  4  4   0   0  1.0285344E+02 -2.4526449E+02  8.4637669E+02  8.8717924E+02  2.5678467E-06  0.0000000E+00  1.0000000E+00
 11  1  4  4   0   0 -1.2532135E+01 -8.8303580E+00  2.7663905E+01  3.1627856E+01  2.4126264E-05  0.0000000E+00  1.0000000E+00
-13  1  5  5   0   0 -6.6927141E+01  1.0171336E+02 -2.1624321E+01  1.2366269E+02  6.1805160E-06  0.0000000E+00  1.0000000E+00
 13  1  5  5   0   0 -2.3394159E+01  1.5238149E+02 -1.1182707E+02  1.9045392E+02  4.4026817E-06  0.0000000E+00  1.0000000E+00
</event>
<event>
9 100 1.0000000E+00 1.0000000E+03 7.8125000E-03 0.0000000E+00
 21 -1  0  0 501 502  0.0000000E+00  0.0000000E+00  1.7293640E+02  1.7293640E+02  0.0000000E+00  0.0000000E+00  1.0000000E+00
 21 -1  0  0 502 501  0.0000000E+00  0.0000000E+00 -1.4521092E+03  1.4521092E+03  0.0000000E+00  0.0000000E+00  1.0000000E+00
 39  2  1  2   0   0  1.4495072E-12  3.6948222E-13 -1.2791728E+03  1.6250456E+03  1.0022426E+03  0.0000000E+00  1.0000000E+00
 23  2  3  3   0   0 -1.8304719E+02 -4.6143032E+01  9.8479517E+01  2.3138962E+02  9.0595192E+01  0.0000000E+00  1.0000000E+00
 23  2  3  3   0   0  1.8304719E+02  4.6143032E+01 -1.3776524E+03  1.3936560E+03  9.3357346E+01  0.0000000E+00  1.0000000E+00
-11  1  4  4   0   0 -1.1756349E+02 -6.3217756E+01  9.4599306E+01  1.6360528E+02  5.6006168E-06  0.0000000E+00  1.0000000E+00
 11  1  4  4   0   0 -6.5483697E+01  1.7074724E+01  3.8802115E+00  6.7784341E+01  1.0002221E-05  0.0000000E+00  1.0000000E+00
-13  1  5  5   0   0  1.5926572E+01 -1.7684901E+01 -7.2648968E+01  7.6447917E+01  4.8252528E-05  0.0000000E+00  1.0000000E+00
 13  1  5  5   0   0  1.6712062E+02  6.3827933E+01 -1.3050034E+03  1.3172081E+03  2.1324806E-06  0.0000000E+00  1.0000000E+00
</event>
<event>
9 100 1.0000000E+00 1.0000000E+03 7.8125000E-03 0.0000000E+00
 21 -1  0  0 501 502  0.0000000E+00  0.0000000E+00  1.5026613E+03  1.5026613E+03  0.0000000E+00  0.0000000E+00  1.0000000E+00
 21 -1  0  0 502 501  0.0000000E+00  0.0000000E+00 -1.6880647E+02  1.6880647E+02  0.0000000E+00  0.0000000E+00  1.0000000E+00
 39  2  1  2   0   0 -2.1600499E-12  4.6895821E-13  1.3338549E+03  1.6714678E+03  1.0072913E+03  0.0000000E+00  1.0000000E+00
 23  2  3  3   0   0 -2.1140309E+02  4.6729015E+01 -7.2698960E+01  2.4531419E+02  8.9549119E+01  0.0000000E+00  1.0000000E+00
 23  2  3  3   0   0  2.1140309E+02 -4.6729015E+01  1.4065538E+03  1.4261536E+03  9.2981870E+01  0.0000000E+00  1.0000000E+00
-11  1  4  4   0   0 -2.6731584E+01  4.1646942E+01 -1.3007984E+01  5.1168867E+01  1.0137697E-05  0.0000000E+00  1.0000000E+00
 11  1  4  4   0   0 -1.8467151E+02  5.0820724E+00 -5.9690976E+01  1.9414532E+02  4.6138769E-06  0.0000000E+00  1.0000000E+00
-13  1  5  5   0   0  4.1197508E+01  1.9261506E+01  1.6123804E+02  1.6752894E+02  2.1579186E-05  0.0000000E+00  1.0000000E+00
 13  1  5  5   0   0  1.7020559E+02 -6.5990520E+01  1.2453158E+03  1.2586247E+03  3.8146973E-06  0.0000000E+00  1.0000000E+00
</event>
<event>
9 100 1.0000000E+00 1.0000000E+03 7.8125000E-03 0.0000000E+00
 21 -1  0  0 501 502  0.0000000E+00  0.0000000E+00  3.2583888E+02  3.2583888E+02  0.0000000E+00  0.0000000E+00  1.0000000E+00
 21 -1  0  0 502 501  0.0000000E+00  0.0000000E+00 -1.4782002E+03  1.4782002E+03  0.0000000E+00  0.0000000E+00  1.0000000E+00
 39  2  1  2   0   0 -2.8421709E-13  3.9790393E-13 -1.1523613E+03  1.8040390E+03  1.3880275E+03  0.0000000E+00  1.0000000E+00
 23  2  3  3   0   0  1.4230275E+02 -1.9973144E+02  2.5945061E+02  3.6829475E+02  9.0463681E+01  0.0000000E+00  1.0000000E+00
 23  2  3  3   0   0 -1.4230275E+02  1.9973144E+02 -1.4118119E+03  1.4357443E+03  8.9476876E+01  0.0000000E+00  1.0000000E+00
-11  1  4  4   0   0  1.2461571E+02 -2.0696677E+02  2.3279134E+02  3.3549386E+02  9.5367432E-07  0.0000000E+00  1.0000000E+00
 11  1  4  4   0   0  1.7687041E+01  7.2353315E+00  2.6659275E+01  3.2800890E+01  2.6973983E-06  0.0000000E+00  1.0000000E+00
-13  1  5  5   0   0 -8.7042050E+01  1.6744061E+02 -1.1904657E+03  1.2053304E+03  3.8146973E-06  0.0000000E+00  1.0000000E+00
 13  1  5  5   0   0 -5.5260702E+01  3.2290837E+01 -2.2134616E+02  2.3041390E+02  4.0370961E-05  0.0000000E+00  1.0000000E+00
</event>
<event>
9 100 1.0000000E+00 1.0000000E+03 7.8125000E-03 0.0000000E+00
 21 -1  0  0 501 502  0.0000000E+00  0.0000000E+00  6.7509807E+02  6.7509807E+02  0.0000000E+00  0.0000000E+00  1.0000000E+00
 21 -1  0  0 502 501  0.0000000E+00  0.0000000E+00 -3.6806651E+02  3.6806651E+02  0.0000000E+00  0.0000000E+00  1.0000000E+00
 39  2  1  2   0   0  1.0800250E-12 -3.4106051E-13  3.0703157E+02  1.0431646E+03  9.9695735E+02  0.0000000E+00  1.0000000E+00
 23  2  3  3   0   0  4.6287391E+02 -1.3003112E+02  2.5468686E+02  5.5115708E+02  8.8024938E+01  0.0000000E+00  1.0000000E+00
 23  2  3  3   0   0 -4.6287391E+02  1.3003112E+02  5.2344710E+01  4.9200749E+02  9.0393914E+01  0.0000000E+00  1.0000000E+00
-11  1  4  4   0   0  2.2807706E+02 -1.0459527E+02  1.0824950E+02  2.7327142E+02  6.8770433E-06  0.0000000E+00  1.0000000E+00
 11  1  4  4   0   0  2.3479685E+02 -2.5435856E+01  1.4643736E+02  2.7788567E+02  6.4681339E-06  0.0000000E+00  1.0000000E+00
-13  1  5  5   0   0 -1.9432019E+01  1.8065156E+01 -1.3773507E+01  2.9894193E+01  1.5318278E-05  0.0000000E+00  1.0000000E+00
 13  1  5  5   0   0 -4.4344189E+02  1.1196597E+02  6.6118217E+01  4.6211330E+02  2.9151486E-06  0.0000000E+00  1.0000000E+00
</event>
<event>
9 100 1.0000000E+00 1.0000000E+03 7.8125000E-03 0.0000000E+00
 21 -1  0  0 501 502  0.0000000E+00  0.0000000E+00  6.4204083E+02  6.4204083E+02  0.0000000E+00  0.0000000E+00  1.0000000E+00
 21 -1  0  0 502 501  0.0000000E+00  0.0000000E+00 -3.8974531E+02  3.8974531E+02  0.0000000E+00  0.0000000E+00  1.0000000E+00
 39  2  1  2   0   0  1.0231815E-12  2.7000624E-13  2.5229551E+02  1.0317861E+03  1.0004647E+03  0.0000000E+00  1.0000000E+00
 23  2  3  3   0   0 -4.0613944E+02 -1.1070653E+02  3.8842111E+02  5.7961340E+02  8.8744392E+01  0.0000000E+00  1.0000000E+00
 23  2  3  3   0   0  4.0613944E+02  1.1070653E+02 -1.3612559E+02  4.5217273E+02  9.3406788E+01  0.0000000E+00  1.0000000E+00
-11  1  4  4   0   0 -2.9941605E+02 -8.9642832E+01  2.3270492E+02  3.8966317E+02  1.9073486E-06  0.0000000E+00  1.0000000E+00
 11  1  4  4   0   0 -1.0672339E+02 -2.1063694E+01  1.5571618E+02  1.8995023E+02  5.3947966E-06  0.0000000E+00  1.0000000E+00
-13  1  5  5   0   0  2.1034648E+02  5.2739388E+01 -2.1281867E+01  2.1789906E+02  3.3036247E-06  0.0000000E+00  1.0000000E+00
 13  1  5  5   0   0  1.9579296E+02  5.7967138E+01 -1.1484373E+02  2.3427367E+02  2.9873762E-06  0.0000000E+00  1.0000000E+00
</event>
<event>
9 100 1.0000000E+00 1.0000000E+03 7.8125000E-03 0.0000000E+00
 21 -1  0  0 501 502  0.0000000E+00  0.0000000E+00  2.6794909E+03  2.6794909E+03  0.0000000E+00  0.0000000E+00  1.0000000E+00
 21 -1  0  0 502 501  0.0000000E+00  0.0000000E+00 -9.4895612E+01  9.4895612E+01  0.0000000E+00  0.0000000E+00  1.0000000E+00
 39  2  1  2   0   0 -1.1652901E-12 -2.7853275E-12  2.5845952E+03  2.7743865E+03  1.0085077E+03  0.0000000E+00  1.0000000E+00
 23  2  3  3   0   0 -1.3366975E+02 -3.1705935E+02  3.1202249E+02  4.7421193E+02  9.5523271E+01  0.0000000E+00  1.0000000E+00
 23  2  3  3   0   0  1.3366975E+02  3.1705935E+02  2.2725728E+03  2.3001745E+03  8.8440475E+01  0.0000000E+00  1.0000000E+00
-11  1  4  4   0   0 -9.6982054E+01 -2.8934583E+02  2.3770193E+02  3.8681873E+02  5.4784419E-06  0.0000000E+00  1.0000000E+00
 11  1  4  4   0   0 -3.6687694E+01 -2.7713520E+01  7.4320557E+01  8.7393199E+01  1.5495374E-05  0.0000000E+00  1.0000000E+00
-13  1  5  5   0   0  9.2571403E-01  6.7242744E+01  3.0183096E+02  3.0923191E+02  7.7804863E-05  0.0000000E+00  1.0000000E+00
 13  1  5  5   0   0  1.3274403E+02  2.4981660E+02  1.9707418E+03  1.9909426E+03  1.0789593E-05  0.0000000E+00  1.0000000E+00
</event>
<event>
9 100 1.0000000E+00 1.0000000E+03 7.8125000E-03 0.0000000E+00
 21 -1  0  0 501 502  0.0000000E+00  0.0000000E+00  6.8000660E+02  6.8000660E+02  0.0000000E+00  0.0000000E+00  1.0000000E+00
 21 -1  0  0 502 501  0.0000000E+00  0.0000000E+00 -3.7161636E+02  3.7161636E+02  0.0000000E+00  0.0000000E+00  1.0000000E+00
 39  2  1  2   0   0  3.5527137E-14 -8.5265128E-14  3.0839024E+02  1.0516230E+03  1.0053886E+03  0.0000000E+00  1.0000000E+00
 23  2  3  3   0   0  6.0693234E+01 -2.0052857E+02 -3.1234123E+02  3.9046385E+02  1.0492662E+02  0.0000000E+00  1.0000000E+00
 23  2  3  3   0   0 -6.0693234E+01  2.0052857E+02  6.2073147E+02  6.6115912E+02  8.9041854E+01  0.0000000E+00  1.0000000E+00
-11  1  4  4   0   0  5.7232321E+01 -9.7511146E+01 -2.3763643E+02  2.6316351E+02  4.4731290E-06  0.0000000E+00  1.0000000E+00
 11  1  4  4   0   0  3.4609126E+00 -1.0301742E+02 -7.4704803E+01  1.2730033E+02  3.8146973E-06  0.0000000E+00  1.0000000E+00
-13  1  5  5   0   0  1.5082445E+01  4.5149972E+01  2.1371544E+02  2.1895271E+02  1.0789593E-05  0.0000000E+00  1.0000000E+00
 13  1  5  5   0   0 -7.5775679E+01  1.5537860E+02  4.0701602E+02  4.4220641E+02  2.6973983E-06  0.0000000E+00  1.0000000E+00
</event>
<event>
9 100 1.0000000E+00 1.0000000E+03 7.8125000E-03 0.0000000E+00
 21 -1  0  0 501 502  0.0000000E+00  0.0000000E+00  6.4727789E+02  6.4727789E+02  0.0000000E+00  0.0000000E+00  1.0000000E+00
 21 -1  0  0 502 501  0.0000000E+00  0.0000000E+00 -4.4261778E+02  4.4261778E+02  0.0000000E+00  0.0000000E+00  1.0000000E+00
 39  2  1  2   0   0 -5.6843419E-13 -7.3896445E-13  2.0466011E+02  1.0898957E+03  1.0705077E+03  0.0000000E+00  1.0000000E+00
 23  2  3  3   0   0  3.0836548E+02  3.4357730E+02 -1.5774435E+02  4.9611143E+02  9.0048032E+01  0.0000000E+00  1.0000000E+00
 23  2  3  3   0   0 -3.0836548E+02 -3.4357730E+02  3.6240446E+02  5.9378424E+02  9.0044993E+01  0.0000000E+00  1.0000000E+00
-11  1  4  4   0   0  2.3388191E+02  2.4067462E+02 -1.5343301E+02  3.6900773E+02  4.7136686E-06  0.0000000E+00  1.0000000E+00
 11  1  4  4   0   0  7.4483574E+01  1.0290268E+02 -4.3113428E+00  1.2710370E+02  1.5139110E-05  0.0000000E+00  1.0000000E+00
-13  1  5  5   0   0 -9.2682826E+01 -1.3075670E+02  7.8121974E+01  1.7829881E+02  3.8146973E-06  0.0000000E+00  1.0000000E+00
 13  1  5  5   0   0 -2.1568265E+02 -2.1282059E+02  2.8428248E+02  4.1548543E+02  9.5367432E-07  0.0000000E+00  1.0000000E+00
</event>
<event>
9 100 1.0000000E+00 1.0000000E+03 7.8125000E-03 0.0000000E+00
 21 -1  0  0 501 502  0.0000000E+00  0.0000000E+00  1.7440770E+03  1.7440770E+03  0.0000000E+00  0.0000000E+00  1.0000000E+00
 21 -1  0  0 502 501  0.0000000E+00  0.0000000E+00 -1.5049438E+02  1.5049438E+02  0.0000000E+00  0.0000000E+00  1.0000000E+00
 39  2  1  2   0   0  1.0231815E-12  2.9558578E-12  1.5935826E+03  1.8945713E+03  1.0246439E+03  0.0000000E+00  1.0000000E+00
 23  2  3  3   0   0 -1.4995499E+02 -4.5159580E+02  1.1040081E+03  1.2055719E+03  9.0246804E+01  0.0000000E+00  1.0000000E+00
 23  2  3  3   0   0  1.4995499E+02  4.5159580E+02  4.8957451E+02  6.8899945E+02  9.2799696E+01  0.0000000E+00  1.0000000E+00
-11  1  4  4   0   0 -6.1908714E+01 -3.1911619E+02  7.2530600E+02  7.9481861E+02  9.3440618E-06  0.0000000E+00  1.0000000E+00
 11  1  4  4   0   0 -8.8046275E+01 -1.3247961E+02  3.7870207E+02  4.1075327E+02  1.0789593E-05  0.0000000E+00  1.0000000E+00
-13  1  5  5   0   0 -9.0606403E+00  6.3399132E+01  4.8896744E+01  8.0575658E+01  7.6293945E-06  0.0000000E+00  1.0000000E+00
 13  1  5  5   0   0  1.5901563E+02  3.8819666E+02  4.4067777E+02  6.0842379E+02  1.5078915E-06  0.0000000E+00  1.0000000E+00
</event>
<event>
9 100 1.0000000E+00 1.0000000E+03 7.8125000E-03 0.0000000E+00
 21 -1  0  0 501 502  0.0000000E+00  0.0000000E+00  2.5253256E+02  2.5253256E+02  0.0000000E+00  0.0000000E+00  1.0000000E+00
 21 -1  0  0 502 501  0.0000000E+00  0.0000000E+00 -1.0009879E+03  1.0009879E+03  0.0000000E+00  0.0000000E+00  1.0000000E+00
 39  2  1  2   0   0  2.8421709E-13  3.4106051E-13 -7.4845536E+02  1.2535205E+03  1.0055487E+03  0.0000000E+00  1.0000000E+00
 23  2  3  3   0   0  1.9010115E+02  2.5149223E+02 -8.4914389E+02  9.1005725E+02  8.8159370E+01  0.0000000E+00  1.0000000E+00
 23  2  3  3   0   0 -1.9010115E+02 -2.5149223E+02  1.0068853E+02  3.4346322E+02  9.1880420E+01  0.0000000E+00  1.0000000E+00
-11  1  4  4   0   0  5.9208885E+01  5.5239558E+01 -1.2946843E+02  1.5270617E+02  2.6428998E-05  0.0000000E+00  1.0000000E+00
 11  1  4  4   0   0  1.3089227E+02  1.9625267E+02 -7.1967546E+02  7.5735108E+02  5.0463701E-06  0.0000000E+00  1.0000000E+00
-13  1  5  5   0   0 -7.0801702E+01 -4.0867259E+01  5.0993720E+01  9.6350264E+01  1.0381480E-05  0.0000000E+00  1.0000000E+00
 13  1  5  5   0   0 -1.1929945E+02 -2.1062497E+02  4.9694808E+01  2.4711295E+02  5.3098339E-06  0.0000000E+00  1.0000000E+00
</event>
<event>
9 100 1.0000000E+00 1.0000000E+03 7.8125000E-03 0.0000000E+00
 21 -1  0  0 501 502  0.0000000E+00  0.0000000E+00  1.8368610E+02  1.8368610E+02  0.0000000E+00  0.0000000E+00  1.0000000E+00
 21 -1  0  0 502 501  0.0000000E+00  0.0000000E+00 -1.3221953E+03  1.3221953E+03  0.0000000E+00  0.0000000E+00  1.0000000E+00
 39  2  1  2   0   0  5.1159077E-12 -1.5916157E-12 -1.1385092E+03  1.5058814E+03  9.8563463E+02  0.0000000E+00  1.0000000E+00
 23  2  3  3   0   0 -3.3368921E+02  1.0163908E+02 -5.1215438E+01  3.6031418E+02  7.4325579E+01  0.0000000E+00  1.0000000E+00
 23  2  3  3   0   0  3.3368921E+02 -1.0163908E+02 -1.0872938E+03  1.1455673E+03  9.1856143E+01  0.0000000E+00  1.0000000E+00
-11  1  4  4   0   0 -2.4307344E+02  9.2149110E+01 -9.5541784E+00  2.6012965E+02  3.0902580E-06  0.0000000E+00  1.0000000E+00
 11  1  4  4   0   0 -9.0615775E+01  9.4899736E+00 -4.1661259E+01  1.0018452E+02  6.2955598E-06  0.0000000E+00  1.0000000E+00
-13  1  5  5   0   0  1.9506108E+02 -1.3065539E+01 -5.5447093E+02  5.8792648E+02  7.6293945E-06  0.0000000E+00  1.0000000E+00
 13  1  5  5   0   0  1.3862813E+02 -8.8573545E+01 -5.3282287E+02  5.5764079E+02  1.5258789E-05  0.0000000E+00  1.0000000E+00
</event>
<event>
9 100 1.0000000E+00 1.0000000E+03 7.8125000E-03 0.0000000E+00
 21 -1  0  0 501 502  0.0000000E+00  0.0000000E+00  3.2357239E+02  3.2357239E+02  0.0000000E+00  0.0000000E+00  1.0000000E+00
 21 -1  0  0 502 501  0.0000000E+00  0.0000000E+00 -2.8878332E+02  2.8878332E+02  0.0000000E+00  0.0000000E+00  1.0000000E+00
 39  2  1  2   0   0  2.2737368E-13  8.8817842E-15  3.4789066E+01  6.1235571E+02  6.1136669E+02  0.0000000E+00  1.0000000E+00
 23  2  3  3   0   0  2.4781897E+02  1.2967213E+01  1.7204364E+02  3.1539141E+02  9.1051302E+01  0.0000000E+00  1.0000000E+00
 23  2  3  3   0   0 -2.4781897E+02 -1.2967213E+01 -1.3725457E+02  2.9696430E+02  8.8128236E+01  0.0000000E+00  1.0000000E+00
-11  1  4  4   0   0  1.2222399E+02 -2.5579646E+01  4.5276986E+01  1.3282706E+02  6.1805160E-06  0.0000000E+00  1.0000000E+00
 11  1  4  4   0   0  1.2559498E+02  3.8546860E+01  1.2676665E+02  1.8256436E+02  6.7434958E-07  0.0000000E+00  1.0000000E+00
-13  1  5  5   0   0 -2.5098659E+02 -5.8069672E+00 -1.4136833E+02  2.8811975E+02  7.7256449E-07  0.0000000E+00  1.0000000E+00
 13  1  5  5   0   0  3.1676218E+00 -7.1602459E+00  4.1137539E+00  8.8445418E+00  1.9073486E-06  0.0000000E+00  1.0000000E+00
</event>
<event>
9 100 1.0000000E+00 1.0000000E+03 7.8125000E-03 0.0000000E+00
 21 -1  0  0 501 502  0.0000000E+00  0.0000000E+00  8.1266059E+02  8.1266059E+02  0.0000000E+00  0.0000000E+00  1.0000000E+00
 21 -1  0  0 502 501  0.0000000E+00  0.0000000E+00 -3.0249237E+02  3.0249237E+02  0.0000000E+00  0.0000000E+00  1.0000000E+00
 39  2  1  2   0   0  2.2737368E-13 -4.5474735E-13  5.1016823E+02  1.1151530E+03  9.9161207E+02  0.0000000E+00  1.0000000E+00
 23  2  3  3   0   0  1.5703430E+02 -3.3655332E+02 -9.9797837E+01  3.9523125E+02  9.1215263E+01  0.0000000E+00  1.0000000E+00
 23  2  3  3   0   0 -1.5703430E+02  3.3655332E+02  6.0996606E+02  7.1992171E+02  9.1108525E+01  0.0000000E+00  1.0000000E+00
-11  1  4  4   0   0  4.6085382E+01 -2.0598677E+02 -5.6107096E+01  2.1840883E+02  5.9173935E-06  0.0000000E+00  1.0000000E+00
 11  1  4  4   0   0  1.1094892E+02 -1.3056655E+02 -4.3690741E+01  1.7682242E+02  8.4495760E-06  0.0000000E+00  1.0000000E+00
-13  1  5  5   0   0 -2.6384453E+01  9.0997913E+01  9.2363037E+01  1.3231663E+02  2.1579186E-05  0.0000000E+00  1.0000000E+00
 13  1  5  5   0   0 -1.3064985E+02  2.4555540E+02  5.1760303E+02  5.8760508E+02  3.0157830E-06  0.0000000E+00  1.0000000E+00
</event>
<event>
9 100 1.0000000E+00 1.0000000E+03 7.8125000E-03 0.0000000E+00
 21 -1  0  0 501 502  0.0000000E+00  0.0000000E+00  1.0838124E+03  1.0838124E+03  0.0000000E+00  0.0000000E+00  1.0000000E+00
 21 -1  0  0 502 501  0.0000000E+00  0.0000000E+00 -1.1038620E+02  1.1038620E+02  0.0000000E+00  0.0000000E+00  1.0000000E+00
 39  2  1  2   0   0  4.4622084E-12  1.7337243E-12  9.7342623E+02  1.1941986E+03  6.9177435E+02  0.0000000E+00  1.0000000E+00
 23  2  3  3   0   0  1.6556402E+02  6.4890710E+01  9.7521204E+02  9.9554640E+02  9.1933977E+01  0.0000000E+00  1.0000000E+00
 23  2  3  3   0   0 -1.6556402E+02 -6.4890710E+01 -1.7858190E+00  1.9865223E+02  8.8528366E+01  0.0000000E+00  1.0000000E+00
-11  1  4  4   0   0  2.7381348E+01 -2.1469395E+01  2.3879181E+02  2.4131350E+02  1.0789593E-05  0.0000000E+00  1.0000000E+00
 11  1  4  4   0   0  1.3818267E+02  8.6360105E+01  7.3642023E+02  7.5423290E+02  7.1366451E-06  0.0000000E+00  1.0000000E+00
-13  1  5  5   0   0 -7.8978665E+01 -6.2477704E+01  3.2018535E+01  1.0567062E+02  6.0503853E-06  0.0000000E+00  1.0000000E+00
 13  1  5  5   0   0 -8.6585353E+01 -2.4130061E+00 -3.3804354E+01  9.2981613E+01  6.3439058E-06  0.0000000E+00  1.0000000E+00
</event>
<event>
9 100 1.0000000E+00 1.0000000E+03 7.8125000E-03 0.0000000E+00
 21 -1  0  0 501 502  0.0000000E+00  0.0000000E+00  2.2451739E+02  2.2451739E+02  0.0000000E+00  0.0000000E+00  1.0000000E+00
 21 -1  0  0 502 501  0.0000000E+00  0.0000000E+00 -1.1126499E+03  1.1126499E+03  0.0000000E+00  0.0000000E+00  1.0000000E+00
 39  2  1  2   0   0  5.6843419E-14 -2.2737368E-13 -8.8813250E+02  1.3371673E+03  9.9961841E+02  0.0000000E+00  1.0000000E+00
 23  2  3  3   0   0 -4.7999335E+01  3.3970951E+02 -9.1390794E+02  9.8073100E+02  9.4334946E+01  0.0000000E+00  1.0000000E+00
 23  2  3  3   0   0  4.7999335E+01 -3.3970951E+02  2.5775435E+01  3.5643628E+02  9.3144825E+01  0.0000000E+00  1.0000000E+00
-11  1  4  4   0   0  1.7750607E+01  1.1775497E+01 -5.8938868E+01  6.2670061E+01  1.8688124E-05  0.0000000E+00  1.0000000E+00
 11  1  4  4   0   0 -6.5749942E+01  3.2793401E+02 -8.5496907E+02  9.1806094E+02  3.0157830E-06  0.0000000E+00  1.0000000E+00
-13  1  5  5   0   0 -1.6988950E+01 -1.2302620E+01  7.0050278E+00  2.2114459E+01  1.2388593E-06  0.0000000E+00  1.0000000E+00
 13  1  5  5   0   0  6.4988285E+01 -3.2740689E+02  1.8770407E+01  3.3432182E+02  9.7577009E-07  0.0000000E+00  1.0000000E+00
</event>
<event>
9 100 1.0000000E+00 1.0000000E+03 7.8125000E-03 0.0000000E+00
 21 -1  0  0 501 502  0.0000000E+00  0.0000000E+00  3.7501687E+02  3.7501687E+02  0.0000000E+00  0.0000000E+00  1.0000000E+00
 21 -1  0  0 502 501  0.0000000E+00  0.0000000E+00 -6.6840270E+02  6.6840270E+02  0.0000000E+00  0.0000000E+00  1.0000000E+00
 39  2  1  2   0   0 -7.1054274E-15 -1.1368684E-13 -2.9338584E+02  1.0434196E+03  1.0013237E+03  0.0000000E+00  1.0000000E+00
 23  2  3  3   0   0 -5.8765251E+01 -2.4872077E+02 -5.8571234E+02  6.4538436E+02  9.0258815E+01  0.0000000E+00  1.0000000E+00
 23  2  3  3   0   0  5.8765251E+01  2.4872077E+02  2.9232651E+02  3.9803521E+02  8.7532089E+01  0.0000000E+00  1.0000000E+00
-11  1  4  4   0   0 -3.3111074E+01 -1.5812638E+01 -8.2576304E+01  9.0361655E+01  1.7059845E-05  0.0000000E+00  1.0000000E+00
 11  1  4  4   0   0 -2.5654177E+01 -2.3290813E+02 -5.0313604E+02  5.5502271E+02  1.3486992E-06  0.0000000E+00  1.0000000E+00
-13  1  5  5   0   0 -2.2450628E+01  4.8230107E+01  6.8922224E+01  8.7065762E+01  1.2651920E-05  0.0000000E+00  1.0000000E+00
 13  1  5  5   0   0  8.1215879E+01  2.0049066E+02  2.2340428E+02  3.1096945E+02  4.3702847E-06  0.0000000E+00  1.0000000E+00
</event>
<event>
9 100 1.0000000E+00 1.0000000E+03 7.8125000E-03 0.0000000E+00
 21 -1  0  0 501 502  0.0000000E+00  0.0000000E+00  2.3297443E+02  2.3297443E+02  0.0000000E+00  0.0000000E+00  1.0000000E+00
 21 -1  0  0 502 501  0.0000000E+00  0.0000000E+00 -1.0311574E+03  1.0311574E+03  0.0000000E+00  0.0000000E+00  1.0000000E+00
 39  2  1  2   0   0  2.8990144E-12 -1.3073986E-12 -7.9818296E+02  1.2641318E+03  9.8027201E+02  0.0000000E+00  1.0000000E+00
 23  2  3  3   0   0 -3.0267726E+02  1.3957526E+02  4.7665479E+01  3.5047796E+02  9.7303777E+01  0.0000000E+00  1.0000000E+00
 23  2  3  3   0   0  3.0267726E+02 -1.3957526E+02 -8.4584844E+02  9.1365387E+02  9.0603669E+01  0.0000000E+00  1.0000000E+00
-11  1  4  4   0   0 -1.1125275E+01 -1.0028845E+01 -9.6369554E+00  1.7810682E+01  3.3717479E-06  0.0000000E+00  1.0000000E+00
 11  1  4  4   0   0 -2.9155198E+02  1.4960411E+02  5.7302435E+01  3.3266727E+02  1.0044753E-06  0.0000000E+00  1.0000000E+00
-13  1  5  5   0   0  2.5219476E+02 -1.4989409E+02 -7.3616730E+02  7.9247254E+02  4.0460975E-06  0.0000000E+00  1.0000000E+00
 13  1  5  5   0   0  5.0482494E+01  1.0318827E+01 -1.0968114E+02  1.2118132E+02  2.1579186E-05  0.0000000E+00  1.0000000E+00
</event>
<event>
9 100 1.0000000E+00 1.0000000E+03 7.8125000E-03 0.0000000E+00
 21 -1  0  0 501 502  0.0000000E+00  0.0000000E+00  1.6739308E+02  1.6739308E+02  0.0000000E+00  0.0000000E+00  1.0000000E+00
 21 -1  0  0 502 501  0.0000000E+00  0.0000000E+00 -1.1921071E+03  1.1921071E+03  0.0000000E+00  0.0000000E+00  1.0000000E+00
 39  2  1  2   0   0 -1.6484591E-12  3.6948222E-13 -1.0247140E+03  1.3595002E+03  8.9342149E+02  0.0000000E+00  1.0000000E+00
 23  2  3  3   0   0  2.8010416E+02 -6.1622352E+01 -8.6121888E+00  2.9978364E+02  8.6835535E+01  0.0000000E+00  1.0000000E+00
 23  2  3  3   0   0 -2.8010416E+02  6.1622352E+01 -1.0161018E+03  1.0597166E+03  9.0997635E+01  0.0000000E+00  1.0000000E+00
-11  1  4  4   0   0  1.4891882E+02 -1.1771612E+01  3.3834512E+01  1.5316710E+02  7.8786429E-06  0.0000000E+00  1.0000000E+00
 11  1  4  4   0   0  1.3118534E+02 -4.9850740E+01 -4.2446701E+01  1.4661654E+02  8.2728155E-06  0.0000000E+00  1.0000000E+00
-13  1  5  5   0   0 -2.2504264E+02  3.9616871E+01 -6.5348110E+02  6.9227974E+02  1.3214499E-05  0.0000000E+00  1.0000000E+00
 13  1  5  5   0   0 -5.5061515E+01  2.2005480E+01 -3.6262075E+02  3.6743682E+02  1.3214499E-05  0.0000000E+00  1.0000000E+00
</event>
<event>
9 100 1.0000000E+00 1.0000000E+03 7.8125000E-03 0.0000000E+00
 21 -1  0  0 501 502  0.0000000E+00  0.0000000E+00  4.3643462E+02  4.3643462E+02  0.0000000E+00  0.0000000E+00  1.0000000E+00
 21 -1  0  0 502 501  0.0000000E+00  0.0000000E+00 -5.6696498E+02  5.6696498E+02  0.0000000E+00  0.0000000E+00  1.0000000E+00
 39  2  1  2   0   0 -1.9895197E-13  8.5265128E-14 -1.3053035E+02  1.0033996E+03  9.9487315E+02  0.0000000E+00  1.0000000E+00
 23  2  3  3   0   0  2.4082966E+02 -1.0330490E+02  3.5117472E+02  4.4706086E+02  8.8706842E+01  0.0000000E+00  1.0000000E+00
 23  2  3  3   0   0 -2.4082966E+02  1.0330490E+02 -4.8170507E+02  5.5633874E+02  9.3820001E+01  0.0000000E+00  1.0000000E+00
-11  1  4  4   0   0  2.2802491E+02 -8.4727344E+01  2.7280939E+02  3.6551203E+02  1.9073486E-06  0.0000000E+00  1.0000000E+00
 11  1  4  4   0   0  1.2804752E+01 -1.8577551E+01  7.8365324E+01  8.1548826E+01  3.8146973E-06  0.0000000E+00  1.0000000E+00
-13  1  5  5   0   0 -8.4868198E+00  2.2219634E+01 -1.3366071E+01  2.7283513E+01  2.2888184E-05  0.0000000E+00  1.0000000E+00
 13  1  5  5   0   0 -2.3234284E+02  8.1085261E+01 -4.6833900E+02  5.2905523E+02  2.7183900E-06  0.0000000E+00  1.0000000E+00
</event>
<event>
9 100 1.0000000E+00 1.0000000E+03 7.8125000E-03 0.0000000E+00
 21 -1  0  0 501 502  0.0000000E+00  0.0000000E+00  6.7363138E+02  6.7363138E+02  0.0000000E+00  0.0000000E+00  1.0000000E+00
 21 -1  0  0 502 501  0.0000000E+00  0.0000000E+00 -3.6466466E+02  3.6466466E+02  0.0000000E+00  0.0000000E+00  1.0000000E+00
 39  2  1  2   0   0  2.8421709E-13 -7.9580786E-13  3.0896672E+02  1.0382960E+03  9.9126093E+02  0.0000000E+00  1.0000000E+00
 23  2  3  3   0   0 -1.9696540E+02  4.4120194E+02  8.8762726E+01  4.9949342E+02  9.0334544E+01  0.0000000E+00  1.0000000E+00
 23  2  3  3   0   0  1.9696540E+02 -4.4120194E+02  2.2020399E+02  5.3880262E+02  9.1454562E+01  0.0000000E+00  1.0000000E+00
-11  1  4  4   0   0 -6.4705966E+01  1.0731247E+02  6.0783105E+01  1.3927460E+02  1.1177738E-05  0.0000000E+00  1.0000000E+00
 11  1  4  4   0   0 -1.3225943E+02  3.3388947E+02  2.7979621E+01  3.6021882E+02  4.8628039E-06  0.0000000E+00  1.0000000E+00
-13  1  5  5   0   0  1.1795174E+02 -1.8930875E+02  1.3807979E+02  2.6232888E+02  8.2038167E-06  0.0000000E+00  1.0000000E+00
 13  1  5  5   0   0  7.9013660E+01 -2.5189319E+02  8.2124208E+01  2.7647373E+02  8.0921949E-06  0.0000000E+00  1.0000000E+00
</event>
<event>
9 100 1.0000000E+00 1.0000000E+03 7.8125000E-03 0.0000000E+00
 21 -1  0  0 501 502  0.0000000E+00  0.0000000E+00  1.8865642E+03  1.8865642E+03  0.0000000E+00  0.0000000E+00  1.0000000E+00
 21 -1  0  0 502 501  0.0000000E+00  0.0000000E+00 -1.3385640E+02  1.3385640E+02  0.0000000E+00  0.0000000E+00  1.0000000E+00
 39  2  1  2   0   0 -8.8107299E-13  8.3844043E-13  1.7527078E+03  2.0204206E+03  1.0050446E+03  0.0000000E+00  1.0000000E+00
 23  2  3  3   0   0  4.2265144E+01 -4.0171645E+01 -1.1013141E+02  1.5441448E+02  9.1185527E+01  0.0000000E+00  1.0000000E+00
 23  2  3  3   0   0 -4.2265144E+01  4.0171645E+01  1.8628392E+03  1.8660061E+03  9.1699586E+01  0.0000000E+00  1.0000000E+00
-11  1  4  4   0   0  4.8125745E+01 -4.0326191E+01 -2.2667128E+01  6.6753934E+01  9.6316385E-06  0.0000000E+00  1.0000000E+00
 11  1  4  4   0   0 -5.8606009E+00  1.5454599E-01 -8.7464281E+01  8.7660544E+01  7.9790118E-06  0.0000000E+00  1.0000000E+00
-13  1  5  5   0   0 -2.4639713E+01 -2.3404268E+01  1.0290092E+03  1.0295702E+03  1.5258789E-05  0.0000000E+00  1.0000000E+00
 13  1  5  5   0   0 -1.7625431E+01  6.3575913E+01  8.3382994E+02  8.3643584E+02  2.1579186E-05  0.0000000E+00  1.0000000E+00
</event>
<event>
9 100 1.0000000E+00 1.0000000E+03 7.8125000E-03 0.0000000E+00
 21 -1  0  0 501 502  0.0000000E+00  0.0000000E+00  6.4403182E+02  6.4403182E+02  0.0000000E+00  0.0000000E+00  1.0000000E+00
 21 -1  0  0 502 501  0.0000000E+00  0.0000000E+00 -3.8256245E+02  3.8256245E+02  0.0000000E+00  0.0000000E+00  1.0000000E+00
 39  2  1  2   0   0 -8.8107299E-13 -9.9475983E-14  2.6146937E+02  1.0265943E+03  9.9273841E+02  0.0000000E+00  1.0000000E+00
 23  2  3  3   0   0  2.4439051E+02  2.3804448E+01  5.6660181E+02  6.2418424E+02  9.0966931E+01  0.0000000E+00  1.0000000E+00
 23  2  3  3   0   0 -2.4439051E+02 -2.3804448E+01 -3.0513244E+02  4.0241003E+02  9.2383207E+01  0.0000000E+00  1.0000000E+00
-11  1  4  4   0   0  5.6437379E+00 -3.7031122E+00 -1.8659498E+00  7.0033268E+00  2.1579186E-05  0.0000000E+00  1.0000000E+00
 11  1  4  4   0   0  2.3874677E+02  2.7507560E+01  5.6846776E+02  6.1718091E+02  1.8500258E-06  0.0000000E+00  1.0000000E+00
-13  1  5  5   0   0 -4.8982766E+01  1.7332323E+01 -2.3154910E+01  5.6884713E+01  1.1444092E-05  0.0000000E+00  1.0000000E+00
 13  1  5  5   0   0 -1.9540774E+02 -4.1136770E+01 -2.8197753E+02  3.4552532E+02  4.0880270E-06  0.0000000E+00  1.0000000E+00
</event>
<event>
9 100 1.0000000E+00 1.0000000E+03 7.8125000E-03 0.0000000E+00
 21 -1  0  0 501 502  0.0000000E+00  0.0000000E+00  2.1394769E+02  2.1394769E+02  0.0000000E+00  0.0000000E+00  1.0000000E+00
 21 -1  0  0 502 501  0.0000000E+00  0.0000000E+00 -1.1818153E+03  1.1818153E+03  0.0000000E+00  0.0000000E+00  1.0000000E+00
 39  2  1  2   0   0  9.6633812E-13  2.6716407E-12 -9.6786762E+02  1.3957630E+03  1.0056772E+03  0.0000000E+00  1.0000000E+00
 23  2  3  3   0   0  8.4305254E+01  2.3535339E+02 -1.0758232E+03  1.1081663E+03  9.0212828E+01  0.0000000E+00  1.0000000E+00
 23  2  3  3   0   0 -8.4305254E+01 -2.3535339E+02  1.0795559E+02  2.8759671E+02  9.2514122E+01  0.0000000E+00  1.0000000E+00
-11  1  4  4   0   0  8.2360304E+01  9.6339803E+01 -5.1050676E+02  5.2600545E+02  0.0000000E+00  0.0000000E+00  1.0000000E+00
 11  1  4  4   0   0  1.9449499E+00  1.3901359E+02 -5.6531645E+02  5.8216084E+02  1.4273290E-05  0.0000000E+00  1.0000000E+00
-13  1  5  5   0   0  3.0053907E-01 -1.8125798E+01  4.1345124E+01  4.5144813E+01  1.1203137E-05  0.0000000E+00  1.0000000E+00
 13  1  5  5   0   0 -8.4605793E+01 -2.1722759E+02  6.6610467E+01  2.4245189E+02  3.6000416E-06  0.0000000E+00  1.0000000E+00
</event>
<event>
9 100 1.0000000E+00 1.0000000E+03 7.8125000E-03 0.0000000E+00
 21 -1  0  0 501 502  0.0000000E+00  0.0000000E+00  8.8668759E+02  8.8668759E+02  0.0000000E+00  0.0000000E+00  1.0000000E+00
 21 -1  0  0 502 501  0.0000000E+00  0.0000000E+00 -2.9861663E+02  2.9861663E+02  0.0000000E+00  0.0000000E+00  1.0000000E+00
 39  2  1  2   0   0 -5.6843419E-13 -4.5474735E-13  5.8807096E+02  1.1853042E+03  1.0291349E+03  0.0000000E+00  1.0000000E+00
 23  2  3  3   0   0  2.8011127E+02  2.7328970E+02  6.3765237E+02  7.8064472E+02  2.2283636E+02  0.0000000E+00  1.0000000E+00
 23  2  3  3   0   0 -2.8011127E+02 -2.7328970E+02 -4.9581408E+01  4.0465950E+02  9.0229724E+01  0.0000000E+00  1.0000000E+00
-11  1  4  4   0   0  1.6301036E+02  1.6027662E+02  5.5040433E+02  5.9599152E+02  1.5958024E-05  0.0000000E+00  1.0000000E+00
 11  1  4  4   0   0  1.1710092E+02  1.1301308E+02  8.7248045E+01  1.8465320E+02  3.3255760E-05  0.0000000E+00  1.0000000E+00
-13  1  5  5   0   0 -1.4535329E+02 -1.9675601E+02 -5.0017432E+01  2.4968430E+02  8.0882101E-06  0.0000000E+00  1.0000000E+00
 13  1  5  5   0   0 -1.3475799E+02 -7.6533691E+01  4.3602361E-01  1.5497519E+02  1.3231694E-05  0.0000000E+00  1.0000000E+00
</event>
<event>
9 100 1.0000000E+00 1.0000000E+03 7.8125000E-03 0.0000000E+00
 21 -1  0  0 501 502  0.0000000E+00  0.0000000E+00  9.3626507E+02  9.3626507E+02  0.0000000E+00  0.0000000E+00  1.0000000E+00
 21 -1  0  0 502 501  0.0000000E+00  0.0000000E+00 -2.6971225E+02  2.6971225E+02  0.0000000E+00  0.0000000E+00  1.0000000E+00
 39  2  1  2   0   0 -4.2064130E-12  5.5422333E-13  6.6655282E+02  1.2059773E+03  1.0050317E+03  0.0000000E+00  1.0000000E+00
 23  2  3  3   0   0  3.8444886E+02 -5.1948405E+01 -3.4650036E+01  3.9966024E+02  8.9599770E+01  0.0000000E+00  1.0000000E+00
 23  2  3  3   0   0 -3.8444886E+02  5.1948405E+01  7.0120286E+02  8.0631707E+02  8.9231198E+01  0.0000000E+00  1.0000000E+00
-11  1  4  4   0   0  2.8033103E+02 -7.0720427E+01 -4.7837792E+01  2.9304491E+02  5.4367801E-06  0.0000000E+00  1.0000000E+00
 11  1  4  4   0   0  1.0411784E+02  1.8772022E+01  1.3187756E+01  1.0661533E+02  1.2741460E-05  0.0000000E+00  1.0000000E+00
-13  1  5  5   0   0 -2.3133976E+02 -2.7886279E-01  4.7358379E+02  5.2706714E+02  7.1366451E-06  0.0000000E+00  1.0000000E+00
 13  1  5  5   0   0 -1.5310910E+02  5.2227268E+01  2.2761907E+02  2.7924994E+02  1.5258789E-05  0.0000000E+00  1.0000000E+00
</event>
<event>
9 100 1.0000000E+00 1.0000000E+03 7.8125000E-03 0.0000000E+00
 21 -1  0  0 501 502  0.0000000E+00  0.0000000E+00  8.4862878E+02  8.4862878E+02  0.0000000E+00  0.0000000E+00  1.0000000E+00
 21 -1  0  0 502 501  0.0000000E+00  0.0000000E+00 -2.9452533E+02  2.9452533E+02  0.0000000E+00  0.0000000E+00  1.0000000E+00
 39  2  1  2   0   0 -1.6484591E-12  5.4001248E-13  5.5410345E+02  1.1431541E+03  9.9988533E+02  0.0000000E+00  1.0000000E+00
 23  2  3  3   0   0  2.9024585E+02 -9.4631644E+01  7.1766249E+02  7.8465923E+02  8.6329927E+01  0.0000000E+00  1.0000000E+00
 23  2  3  3   0   0 -2.9024585E+02  9.4631644E+01 -1.6355904E+02  3.5849488E+02  9.2570057E+01  0.0000000E+00  1.0000000E+00
-11  1  4  4   0   0  2.0412669E+02 -4.8611780E+01  3.9141782E+02  4.4411566E+02  0.0000000E+00  0.0000000E+00  1.0000000E+00
 11  1  4  4   0   0  8.6119158E+01 -4.6019864E+01  3.2624467E+02  3.4054357E+02  1.0789593E-05  0.0000000E+00  1.0000000E+00
-13  1  5  5   0   0 -8.3204023E+01  4.8258397E+01 -9.5827757E+01  1.3577460E+02  9.5843083E-06  0.0000000E+00  1.0000000E+00
 13  1  5  5   0   0 -2.0704183E+02  4.6373247E+01 -6.7731285E+01  2.2272028E+02  4.0460975E-06  0.0000000E+00  1.0000000E+00
</event>
<event>
9 100 1.0000000E+00 1.0000000E+03 7.8125000E-03 0.0000000E+00
 21 -1  0  0 501 502  0.0000000E+00  0.0000000E+00  4.1663972E+02  4.1663972E+02  0.0000000E+00  0.0000000E+00  1.0000000E+00
 21 -1  0  0 502 501  0.0000000E+00  0.0000000E+00 -6.0291271E+02  6.0291271E+02  0.0000000E+00  0.0000000E+00  1.0000000E+00
 39  2  1  2   0   0  1.7053026E-13  3.4106051E-13 -1.8627299E+02  1.0195524E+03  1.0023919E+03  0.0000000E+00  1.0000000E+00
 23  2  3  3   0   0  1.5412305E+02  3.5012670E+02 -4.0944544E+02  5.6764996E+02  9.0764991E+01  0.0000000E+00  1.0000000E+00
 23  2  3  3   0   0 -1.5412305E+02 -3.5012670E+02  2.2317245E+02  4.5190247E+02  8.9818061E+01  0.0000000E+00  1.0000000E+00
-11  1  4  4   0   0  1.4140498E+00 -6.3944160E-01  4.0424992E+00  4.3301527E+00  2.1579186E-05  0.0000000E+00  1.0000000E+00
 11  1  4  4   0   0  1.5270900E+02  3.5076614E+02 -4.1348794E+02  5.6331980E+02  1.1371841E-06  0.0000000E+00  1.0000000E+00
-13  1  5  5   0   0 -1.4113862E+02 -2.1625395E+02  1.3964078E+02  2.9357355E+02  3.8146973E-06  0.0000000E+00  1.0000000E+00
 13  1  5  5   0   0 -1.2984427E+01 -1.3387275E+02  8.3531665E+01  1.5832893E+02  3.3036247E-06  0.0000000E+00  1.0000000E+00
</event>
<event>
9 100 1.0000000E+00 1.0000000E+03 7.8125000E-03 0.0000000E+00
 21 -1  0  0 501 502  0.0000000E+00  0.0000000E+00  2.3355341E+02  2.3355341E+02  0.0000000E+00  0.0000000E+00  1.0000000E+00
 21 -1  0  0 502 501  0.0000000E+00  0.0000000E+00 -1.0339011E+03  1.0339011E+03  0.0000000E+00  0.0000000E+00  1.0000000E+00
 39  2  1  2   0   0  0.0000000E+00 -5.6843419E-14 -8.0034765E+02  1.2674545E+03  9.8279421E+02  0.0000000E+00  1.0000000E+00
 23  2  3  3   0   0  1.5989494E+02 -4.5045247E+02 -4.8834365E+02  6.8945043E+02  9.1589016E+01  0.0000000E+00  1.0000000E+00
 23  2  3  3   0   0 -1.5989494E+02  4.5045247E+02 -3.1200400E+02  5.7800404E+02  9.0930472E+01  0.0000000E+00  1.0000000E+00
-11  1  4  4   0   0  1.1764870E+02 -3.1569139E+02 -3.9954141E+02  5.2262378E+02  8.7924428E-06  0.0000000E+00  1.0000000E+00
 11  1  4  4   0   0  4.2246239E+01 -1.3476108E+02 -8.8802237E+01  1.6682665E+02  2.4722064E-05  0.0000000E+00  1.0000000E+00
-13  1  5  5   0   0 -1.5652477E+02  4.3207307E+02 -2.7241223E+02  5.3422427E+02  4.1295309E-06  0.0000000E+00  1.0000000E+00
 13  1  5  5   0   0 -3.3701745E+00  1.8379399E+01 -3.9591766E+01  4.3779770E+01  2.6152247E-05  0.0000000E+00  1.0000000E+00
</event>
<event>
9 100 1.0000000E+00 1.0000000E+03 7.8125000E-03 0.0000000E+00
 21 -1  0  0 501 502  0.0000000E+00  0.0000000E+00  2.5349957E+02  2.5349957E+02  0.0000000E+00  0.0000000E+00  1.0000000E+00
 21 -1  0  0 502 501  0.0000000E+00  0.0000000E+00 -9.7748193E+02  9.7748193E+02  0.0000000E+00  0.0000000E+00  1.0000000E+00
 39  2  1  2   0   0  1.5347723E-12  9.0949470E-13 -7.2398236E+02  1.2309815E+03  9.9557269E+02  0.0000000E+00  1.0000000E+00
 23  2  3  3   0   0  4.0954205E+02  2.4634964E+02 -4.9244221E+02  6.9212970E+02  9.0173966E+01  0.0000000E+00  1.0000000E+00
 23  2  3  3   0   0 -4.0954205E+02 -2.4634964E+02 -2.3154014E+02  5.3885180E+02  9.1310376E+01  0.0000000E+00  1.0000000E+00
-11  1  4  4   0   0  1.9474265E+02  1.4737830E+02 -1.9758347E+02  3.1414056E+02  5.3947966E-06  0.0000000E+00  1.0000000E+00
 11  1  4  4   0   0  2.1479940E+02  9.8971343E+01 -2.9485874E+02  3.7798913E+02  4.6720309E-06  0.0000000E+00  1.0000000E+00
-13  1  5  5   0   0 -2.2103106E+02 -1.5421525E+02 -8.3819302E+01  2.8224590E+02  1.4650623E-05  0.0000000E+00  1.0000000E+00
 13  1  5  5   0   0 -1.8851100E+02 -9.2134392E+01 -1.4772084E+02  2.5660590E+02  1.5347936E-05  0.0000000E+00  1.0000000E+00
</event>
<event>
9 100 1.0000000E+00 1.0000000E+03 7.8125000E-03 0.0000000E+00
 21 -1  0  0 501 502  0.0000000E+00  0.0000000E+00  1.6093265E+03  1.6093265E+03  0.0000000E+00  0.0000000E+00  1.0000000E+00
 21 -1  0  0 502 501  0.0000000E+00  0.0000000E+00 -1.5547512E+02  1.5547512E+02  0.0000000E+00  0.0000000E+00  1.0000000E+00
 39  2  1  2   0   0  3.0127012E-12  2.0747848E-12  1.4538514E+03  1.7648016E+03  1.0004204E+03  0.0000000E+00  1.0000000E+00
 23  2  3  3   0   0  3.3017537E+02  2.2437497E+02  2.2071698E+02  4.6517660E+02  9.1177734E+01  0.0000000E+00  1.0000000E+00
 23  2  3  3   0   0 -3.3017537E+02 -2.2437497E+02  1.2331344E+03  1.2996250E+03  9.5104448E+01  0.0000000E+00  1.0000000E+00
-11  1  4  4   0   0  2.6499963E+02  2.0051776E+02  1.4531931E+02  3.6269805E+02  2.5231851E-06  0.0000000E+00  1.0000000E+00
 11  1  4  4   0   0  6.5175742E+01  2.3857215E+01  7.5397672E+01  1.0247855E+02  7.3871295E-06  0.0000000E+00  1.0000000E+00
-13  1  5  5   0   0 -1.5805938E+02 -1.5258549E+02  7.5827227E+02  7.8945673E+02  1.2063132E-05  0.0000000E+00  1.0000000E+00
 13  1  5  5   0   0 -1.7211599E+02 -7.1789483E+01  4.7486211E+02  5.1016827E+02  1.5258789E-05  0.0000000E+00  1.0000000E+00
</event>
<event>
9 100 1.0000000E+00 1.0000000E+03 7.8125000E-03 0.0000000E+00
 21 -1  0  0 501 502  0.0000000E+00  0.0000000E+00  1.1242296E+03  1.1242296E+03  0.0000000E+00  0.0000000E+00  1.0000000E+00
 21 -1  0  0 502 501  0.0000000E+00  0.0000000E+00 -2.1766620E+02  2.1766620E+02  0.0000000E+00  0.0000000E+00  1.0000000E+00
 39  2  1  2   0   0  0.0000000E+00 -2.8421709E-14  9.0656341E+02  1.3418958E+03  9.8935692E+02  0.0000000E+00  1.0000000E+00
 23  2  3  3   0   0 -2.7698319E+02  1.5531442E+02  9.5280520E+02  1.0083136E+03  8.9534284E+01  0.0000000E+00  1.0000000E+00
 23  2  3  3   0   0  2.7698319E+02 -1.5531442E+02 -4.6241792E+01  3.3358216E+02  9.1085101E+01  0.0000000E+00  1.0000000E+00
-11  1  4  4   0   0 -1.6602596E+02  7.5644663E+01  4.1318557E+02  4.5167361E+02  2.7508173E-05  0.0000000E+00  1.0000000E+00
 11  1  4  4   0   0 -1.1095723E+02  7.9669756E+01  5.3961963E+02  5.5664003E+02  1.5258789E-05  0.0000000E+00  1.0000000E+00
-13  1  5  5   0   0  1.6514711E+02 -4.7401076E+01 -4.7154573E+01  1.7816841E+02  7.3741404E-06  0.0000000E+00  1.0000000E+00
 13  1  5  5   0   0  1.1183609E+02 -1.0791334E+02  9.1278135E-01  1.5541375E+02  7.8352340E-06  0.0000000E+00  1.0000000E+00
</event>
<event>
9 100 1.0000000E+00 1.0000000E+03 7.8125000E-03 0.0000000E+00
 21 -1  0  0 501 502  0.0000000E+00  0.0000000E+00  1.4218552E+03  1.4218552E+03  0.0000000E+00  0.0000000E+00  1.0000000E+00
 21 -1  0  0 502 501  0.0000000E+00  0.0000000E+00 -1.7620323E+02  1.7620323E+02  0.0000000E+00  0.0000000E+00  1.0000000E+00
 39  2  1  2   0   0  1.7763568E-13 -2.1600499E-12  1.2456520E+03  1.5980585E+03  1.0010704E+03  0.0000000E+00  1.0000000E+00
 23  2  3  3   0   0  4.0245784E+01 -4.8475343E+02  7.3921965E+02  8.8964150E+02  9.1709847E+01  0.0000000E+00  1.0000000E+00
 23  2  3  3   0   0 -4.0245784E+01  4.8475343E+02  5.0643236E+02  7.0841698E+02  9.3676420E+01  0.0000000E+00  1.0000000E+00
-11  1  4  4   0   0  8.9947323E+00 -1.8820581E+02  2.0955462E+02  2.8180751E+02  7.6293945E-06  0.0000000E+00  1.0000000E+00
 11  1  4  4   0   0  3.1251052E+01 -2.9654762E+02  5.2966503E+02  6.0783399E+02  7.1366451E-06  0.0000000E+00  1.0000000E+00
-13  1  5  5   0   0 -3.9014595E+01  6.6483297E+01  7.8090285E+01  1.0972812E+02  1.5258789E-05  0.0000000E+00  1.0000000E+00
 13  1  5  5   0   0 -1.2311890E+00  4.1827013E+02  4.2834207E+02  5.9868886E+02  4.5736613E-06  0.0000000E+00  1.0000000E+00
</event>
<event>
9 100 1.0000000E+00 1.0000000E+03 7.8125000E-03 0.0000000E+00
 21 -1  0  0 501 502  0.0000000E+00  0.0000000E+00  5.6605098E+02  5.6605098E+02  0.0000000E+00  0.0000000E+00  1.0000000E+00
 21 -1  0  0 502 501  0.0000000E+00  0.0000000E+00 -4.4041962E+02  4.4041962E+02  0.0000000E+00  0.0000000E+00  1.0000000E+00
 39  2  1  2   0   0 -1.7053026E-13 -5.6843419E-14  1.2563136E+02  1.0064706E+03  9.9859893E+02  0.0000000E+00  1.0000000E+00
 23  2  3  3   0   0  2.5628975E+02  7.8451153E+01 -3.5136160E+02  4.5163325E+02  9.3159005E+01  0.0000000E+00  1.0000000E+00
 23  2  3  3   0   0 -2.5628975E+02 -7.8451153E+01  4.7699296E+02  5.5483735E+02  9.2104199E+01  0.0000000E+00  1.0000000E+00
-11  1  4  4   0   0  6.3849386E+01  3.1953912E+01 -3.7763135E+01  8.0770359E+01  1.6627880E-05  0.0000000E+00  1.0000000E+00
 11  1  4  4   0   0  1.9244036E+02  4.6497241E+01 -3.1359846E+02  3.7086289E+02  4.9093390E-06  0.0000000E+00  1.0000000E+00
-13  1  5  5   0   0 -2.4463049E+02 -6.4084901E+01  3.8241901E+02  4.5847055E+02  4.4731290E-06  0.0000000E+00  1.0000000E+00
 13  1  5  5   0   0 -1.1659261E+01 -1.4366252E+01  9.4573948E+01  9.6366795E+01  1.7892516E-05  0.0000000E+00  1.0000000E+00
</event>
<event>
9 100 1.0000000E+00 1.0000000E+03 7.8125000E-03 0.0000000E+00
 21 -1  0  0 501 502  0.0000000E+00  0.0000000E+00  3.0915945E+02  3.0915945E+02  0.0000000E+00  0.0000000E+00  1.0000000E+00
 21 -1  0  0 502 501  0.0000000E+00  0.0000000E+00 -8.1853424E+02  8.1853424E+02  0.0000000E+00  0.0000000E+00  1.0000000E+00
 39  2  1  2   0   0 -5.2580162E-13  1.1652901E-12 -5.0937479E+02  1.1276937E+03  1.0060966E+03  0.0000000E+00  1.0000000E+00
 23  2  3  3   0   0 -1.1999815E+02  2.5511038E+02 -7.1028563E+02  7.6956981E+02  9.0835818E+01  0.0000000E+00  1.0000000E+00
 23  2  3  3   0   0  1.1999815E+02 -2.5511038E+02  2.0091085E+02  3.5812388E+02  9.1687989E+01  0.0000000E+00  1.0000000E+00
-11  1  4  4   0   0 -5.1309057E+01  2.7899929E+01 -1.2444287E+02  1.3746655E+02  1.5258789E-05  0.0000000E+00  1.0000000E+00
 11  1  4  4   0   0 -6.8689090E+01  2.2721045E+02 -5.8584277E+02  6.3210326E+02  2.6973983E-06  0.0000000E+00  1.0000000E+00
-13  1  5  5   0   0  1.0782832E+02 -1.5845708E+02  1.6923357E+02  2.5568652E+02  5.6721579E-06  0.0000000E+00  1.0000000E+00
 13  1  5  5   0   0  1.2169824E+01 -9.6653297E+01  3.1677281E+01  1.0243737E+02  1.5018478E-05  0.0000000E+00  1.0000000E+00
</event>
<event>
9 100 1.0000000E+00 1.0000000E+03 7.8125000E-03 0.0000000E+00
 21 -1  0  0 501 502  0.0000000E+00  0.0000000E+00  1.0098720E+03  1.0098720E+03  0.0000000E+00  0.0000000E+00  1.0000000E+00
 21 -1  0  0 502 501  0.0000000E+00  0.0000000E+00 -2.4503165E+02  2.4503165E+02  0.0000000E+00  0.0000000E+00  1.0000000E+00
 39  2  1  2   0   0 -1.8758328E-12  2.4158453E-12  7.6484039E+02  1.2549037E+03  9.9488817E+02  0.0000000E+00  1.0000000E+00
 23  2  3  3   0   0 -1.5937642E+02  2.1085947E+02  8.9412169E+02  9.3665453E+02  8.9473723E+01  0.0000000E+00  1.0000000E+00
 23  2  3  3   0   0  1.5937642E+02 -2.1085947E+02 -1.2928130E+02  3.1824918E+02  1.2126964E+02  0.0000000E+00  1.0000000E+00
-11  1  4  4   0   0 -1.7047237E+02  1.9104015E+02  8.0870607E+02  8.4827041E+02  4.1569700E-06  0.0000000E+00  1.0000000E+00
 11  1  4  4   0   0  1.1095946E+01  1.9819317E+01  8.5415616E+01  8.8384121E+01  2.6428998E-05  0.0000000E+00  1.0000000E+00
-13  1  5  5   0   0  1.2262713E+02 -2.1829498E+02 -1.2684190E+02  2.8067593E+02  4.0606690E-06  0.0000000E+00  1.0000000E+00
 13  1  5  5   0   0  3.6749298E+01  7.4355182E+00 -2.4393933E+00  3.7573242E+01  1.6899152E-05  0.0000000E+00  1.0000000E+00
</event>
<event>
9 100 1.0000000E+00 1.0000000E+03 7.8125000E-03 0.0000000E+00
 21 -1  0  0 501 502  0.0000000E+00  0.0000000E+00  1.0622867E+03  1.0622867E+03  0.0000000E+00  0.0000000E+00  1.0000000E+00
 21 -1  0  0 502 501  0.0000000E+00  0.0000000E+00 -2.3725989E+02  2.3725989E+02  0.0000000E+00  0.0000000E+00  1.0000000E+00
 39  2  1  2   0   0  6.5369932E-13 -5.3290705E-14  8.2502683E+02  1.2995466E+03  1.0040678E+03  0.0000000E+00  1.0000000E+00
 23  2  3  3   0   0 -2.2040296E+02  1.8702194E+01 -1.6396592E+02  2.8192621E+02  6.0583247E+01  0.0000000E+00  1.0000000E+00
 23  2  3  3   0   0  2.2040296E+02 -1.8702194E+01  9.8899275E+02  1.0176204E+03  9.2289814E+01  0.0000000E+00  1.0000000E+00
-11  1  4  4   0   0 -1.9280285E+01 -1.5648874E+01 -1.2398478E+01  2.7754980E+01  1.3351440E-05  0.0000000E+00  1.0000000E+00
 11  1  4  4   0   0 -2.0112267E+02  3.4351068E+01 -1.5156744E+02  2.5417123E+02  2.5288109E-06  0.0000000E+00  1.0000000E+00
-13  1  5  5   0   0  2.1340439E+02 -1.0376904E+01  7.9155063E+02  8.1987896E+02  4.6720309E-06  0.0000000E+00  1.0000000E+00
 13  1  5  5   0   0  6.9985675E+00 -8.3252900E+00  1.9744212E+02  1.9774145E+02  2.4126264E-05  0.0000000E+00  1.0000000E+00
</event>
<event>
9 100 1.0000000E+00 1.0000000E+03 7.8125000E-03 0.0000000E+00
 21 -1  0  0 501 502  0.0000000E+00  0.0000000E+00  1.3210614E+02  1.3210614E+02  0.0000000E+00  0.0000000E+00  1.0000000E+00
 21 -1  0  0 502 501  0.0000000E+00  0.0000000E+00 -1.9033473E+03  1.9033473E+03  0.0000000E+00  0.0000000E+00  1.0000000E+00
 39  2  1  2   0   0  1.2903456E-11  1.6058266E-12 -1.7712411E+03  2.0354534E+03  1.0028836E+03  0.0000000E+00  1.0000000E+00
 23  2  3  3   0   0  4.2928449E+02  5.3936980E+01 -1.3683038E+03  1.4379257E+03  9.0446526E+01  0.0000000E+00  1.0000000E+00
 23  2  3  3   0   0 -4.2928449E+02 -5.3936980E+01 -4.0293729E+02  5.9752770E+02  8.6524675E+01  0.0000000E+00  1.0000000E+00
-11  1  4  4   0   0  2.6346919E-01  1.3600293E+00  1.1997294E+00  1.8326064E+00  2.1579186E-05  0.0000000E+00  1.0000000E+00
 11  1  4  4   0   0  4.2902102E+02  5.2576950E+01 -1.3695036E+03  1.4360931E+03  1.2069021E-06  0.0000000E+00  1.0000000E+00
-13  1  5  5   0   0 -2.5483470E+02  4.2027075E+00 -2.0251623E+02  3.2553219E+02  1.1121658E-05  0.0000000E+00  1.0000000E+00
 13  1  5  5   0   0 -1.7444979E+02 -5.8139687E+01 -2.0042106E+02  2.7199551E+02  1.1121658E-05  0.0000000E+00  1.0000000E+00
</event>
<event>
9 100 1.0000000E+00 1.0000000E+03 7.8125000E-03 0.0000000E+00
 21 -1  0  0 501 502  0.0000000E+00  0.0000000E+00  3.3060713E+02  3.3060713E+02  0.0000000E+00  0.0000000E+00  1.0000000E+00
 21 -1  0  0 502 501  0.0000000E+00  0.0000000E+00 -7.6527917E+02  7.6527917E+02  0.0000000E+00  0.0000000E+00  1.0000000E+00
 39  2  1  2   0   0  1.8189894E-12 -4.1211479E-13 -4.3467204E+02  1.0958863E+03  1.0059955E+03  0.0000000E+00  1.0000000E+00
 23  2  3  3   0   0  3.2031243E+02 -7.4833042E+01  1.8260014E+02  3.8719356E+02  9.1520498E+01  0.0000000E+00  1.0000000E+00
 23  2  3  3   0   0 -3.2031243E+02  7.4833042E+01 -6.1727218E+02  7.0869274E+02  1.1410701E+02  0.0000000E+00  1.0000000E+00
-11  1  4  4   0   0  1.8165440E+02 -1.9493092E+01  5.4989781E+01  1.9079355E+02  6.7434958E-06  0.0000000E+00  1.0000000E+00
 11  1  4  4   0   0  1.3865803E+02 -5.5339951E+01  1.2761036E+02  1.9640001E+02  4.5236745E-06  0.0000000E+00  1.0000000E+00
-13  1  5  5   0   0 -1.7885453E+02  3.7052602E+01 -2.2387639E+02  2.8893334E+02  5.3947966E-06  0.0000000E+00  1.0000000E+00
 13  1  5  5   0   0 -1.4145790E+02  3.7780440E+01 -3.9339579E+02  4.1975939E+02  3.8146973E-06  0.0000000E+00  1.0000000E+00
</event>
<event>
9 100 1.0000000E+00 1.0000000E+03 7.8125000E-03 0.0000000E+00
 21 -1  0  0 501 502  0.0000000E+00  0.0000000E+00  8.2450163E+02  8.2450163E+02  0.0000000E+00  0.0000000E+00  1.0000000E+00
 21 -1  0  0 502 501  0.0000000E+00  0.0000000E+00 -2.3743843E+02  2.3743843E+02  0.0000000E+00  0.0000000E+00  1.0000000E+00
 39  2  1  2   0   0 -7.1054274E-14 -8.5265128E-14  5.8706320E+02  1.0619401E+03  8.8491439E+02  0.0000000E+00  1.0000000E+00
 23  2  3  3   0   0  9.5891334E+01  7.9641872E+01  7.9068586E+02  8.0569696E+02  9.1790472E+01  0.0000000E+00  1.0000000E+00
 23  2  3  3   0   0 -9.5891334E+01 -7.9641872E+01 -2.0362266E+02  2.5624309E+02  9.3061048E+01  0.0000000E+00  1.0000000E+00
-11  1  4  4   0   0  9.5611118E+01  3.6135845E+01  6.6227447E+02  6.7011548E+02  4.2649612E-06  0.0000000E+00  1.0000000E+00
 11  1  4  4   0   0  2.8021686E-01  4.3506027E+01  1.2841139E+02  1.3558148E+02  7.6293945E-06  0.0000000E+00  1.0000000E+00
-13  1  5  5   0   0 -1.0139449E+02 -6.5847773E+01 -2.0815268E+02  2.4071625E+02  2.9802322E-07  0.0000000E+00  1.0000000E+00
 13  1  5  5   0   0  5.5031580E+00 -1.3794099E+01  4.5300195E+00  1.5526848E+01  4.6720309E-06  0.0000000E+00  1.0000000E+00
</event>
<event>
9 100 1.0000000E+00 1.0000000E+03 7.8125000E-03 0.0000000E+00
 21 -1  0  0 501 502  0.0000000E+00  0.0000000E+00  2.4330898E+02  2.4330898E+02  0.0000000E+00  0.0000000E+00  1.0000000E+00
 21 -1  0  0 502 501  0.0000000E+00  0.0000000E+00 -1.0339865E+03  1.0339865E+03  0.0000000E+00  0.0000000E+00  1.0000000E+00
 39  2  1  2   0   0  9.0949470E-13 -1.4210855E-13 -7.9067747E+02  1.2772954E+03  1.0031514E+03  0.0000000E+00  1.0000000E+00
 23  2  3  3   0   0  3.1831775E+02 -4.9998182E+01  7.9388075E+01  3.4510201E+02  9.4693829E+01  0.0000000E+00  1.0000000E+00
 23  2  3  3   0   0 -3.1831775E+02  4.9998182E+01 -8.7006554E+02  9.3219343E+02  9.0247081E+01  0.0000000E+00  1.0000000E+00
-11  1  4  4   0   0  3.2128428E+02 -5.5969029E+01  8.4274698E+01  3.3683578E+02  2.1810740E-06  0.0000000E+00  1.0000000E+00
 11  1  4  4   0   0 -2.9665331E+00  5.9708472E+00 -4.8866222E+00  8.2662211E+00  1.4681629E-05  0.0000000E+00  1.0000000E+00
-13  1  5  5   0   0 -2.8713425E+02  7.2401854E+01 -7.7730311E+02  8.3179819E+02  3.5683226E-06  0.0000000E+00  1.0000000E+00
 13  1  5  5   0   0 -3.1183496E+01 -2.2403672E+01 -9.2762435E+01  1.0039524E+02  1.5258789E-05  0.0000000E+00  1.0000000E+00
</event>
<event>
9 100 1.0000000E+00 1.0000000E+03 7.8125000E-03 0.0000000E+00
 21 -1  0  0 501 502  0.0000000E+00  0.0000000E+00  1.6968464E+02  1.6968464E+02  0.0000000E+00  0.0000000E+00  1.0000000E+00
 21 -1  0  0 502 501  0.0000000E+00  0.0000000E+00 -1.4754334E+03  1.4754334E+03  0.0000000E+00  0.0000000E+00  1.0000000E+00
 39  2  1  2   0   0 -1.8189894E-12  2.4158453E-13 -1.3057488E+03  1.6451181E+03  1.0007165E+03  0.0000000E+00  1.0000000E+00
 23  2  3  3   0   0 -3.7129446E+02  4.4788997E+01 -1.2785356E+02  4.0596338E+02  9.2704394E+01  0.0000000E+00  1.0000000E+00
 23  2  3  3   0   0  3.7129446E+02 -4.4788997E+01 -1.1778952E+03  1.2391547E+03  9.0562237E+01  0.0000000E+00  1.0000000E+00
-11  1  4  4   0   0 -1.8810233E+02  1.9803497E+01 -1.5870894E+01  1.8980661E+02  1.1444092E-05  0.0000000E+00  1.0000000E+00
 11  1  4  4   0   0 -1.8319213E+02  2.4985500E+01 -1.1198266E+02  2.1615677E+02  1.1489945E-05  0.0000000E+00  1.0000000E+00
-13  1  5  5   0   0  2.8407703E+02 -7.2353512E+01 -8.8138703E+02  9.2885838E+02  1.4273290E-05  0.0000000E+00  1.0000000E+00
 13  1  5  5   0   0  8.7217432E+01  2.7564515E+01 -2.9650822E+02  3.1029632E+02  3.2368780E-05  0.0000000E+00  1.0000000E+00
</event>
<event>
9 100 1.0000000E+00 1.0000000E+03 7.8125000E-03 0.0000000E+00
 21 -1  0  0 501 502  0.0000000E+00  0.0000000E+00  9.7936426E+02  9.7936426E+02  0.0000000E+00  0.0000000E+00  1.0000000E+00
 21 -1  0  0 502 501  0.0000000E+00  0.0000000E+00 -2.5728966E+02  2.5728966E+02  0.0000000E+00  0.0000000E+00  1.0000000E+00
 39  2  1  2   0   0  1.1368684E-13 -4.5474735E-13  7.2207459E+02  1.2366539E+03  1.0039528E+03  0.0000000E+00  1.0000000E+00
 23  2  3  3   0   0  1.3274532E+02 -4.7561542E+02  3.8188812E+02  6.3075362E+02  9.0444720E+01  0.0000000E+00  1.0000000E+00
 23  2  3  3   0   0 -1.3274532E+02  4.7561542E+02  3.4018647E+02  6.0590030E+02  8.6930945E+01  0.0000000E+00  1.0000000E+00
-11  1  4  4   0   0  4.6453063E+01 -2.8058169E+02  1.7682378E+02  3.3488897E+02  8.0921949E-06  0.0000000E+00  1.0000000E+00
 11  1  4  4   0   0  8.6292262E+01 -1.9503373E+02  2.0506434E+02  2.9586465E+02  7.8641999E-06  0.0000000E+00  1.0000000E+00
-13  1  5  5   0   0 -9.7861084E+00  1.3959924E+02  1.2952754E+02  1.9068586E+02  6.6072495E-06  0.0000000E+00  1.0000000E+00
 13  1  5  5   0   0 -1.2295922E+02  3.3601617E+02  2.1065894E+02  4.1521443E+02  3.8146973E-06  0.0000000E+00  1.0000000E+00
</event>
<event>
9 100 1.0000000E+00 1.0000000E+03 7.8125000E-03 0.0000000E+00
 21 -1  0  0 501 502  0.0000000E+00  0.0000000E+00  3.0344581E+02  3.0344581E+02  0.0000000E+00  0.0000000E+00  1.0000000E+00
 21 -1  0  0 502 501  0.0000000E+00  0.0000000E+00 -8.3243217E+02  8.3243217E+02  0.0000000E+00  0.0000000E+00  1.0000000E+00
 39  2  1  2   0   0 -8.5265128E-13 -8.8817842E-16 -5.2898636E+02  1.1358780E+03  1.0051827E+03  0.0000000E+00  1.0000000E+00
 23  2  3  3   0   0  3.1166569E+02 -6.6234607E-02 -6.9701399E+02  7.6931884E+02  9.4273376E+01  0.0000000E+00  1.0000000E+00
 23  2  3  3   0   0 -3.1166569E+02  6.6234607E-02  1.6802763E+02  3.6655914E+02  9.4851519E+01  0.0000000E+00  1.0000000E+00
-11  1  4  4   0   0  2.8400870E+02 -2.1458254E+01 -5.6467898E+02  6.3244269E+02  4.2649612E-06  0.0000000E+00  1.0000000E+00
 11  1  4  4   0   0  2.7656994E+01  2.1392020E+01 -1.3233501E+02  1.3687616E+02  1.5258789E-05  0.0000000E+00  1.0000000E+00
-13  1  5  5   0   0 -2.9720945E+02  4.9930312E+00  1.7969019E+02  3.4734270E+02  1.3167096E-06  0.0000000E+00  1.0000000E+00
 13  1  5  5   0   0 -1.4456238E+01 -4.9267966E+00 -1.1662559E+01  1.9216436E+01  7.1366451E-06  0.0000000E+00  1.0000000E+00
</event>
<event>
9 100 1.0000000E+00 1.0000000E+03 7.8125000E-03 0.0000000E+00
 21 -1  0  0 501 502  0.0000000E+00  0.0000000E+00  1.6299369E+02  1.6299369E+02  0.0000000E+00  0.0000000E+00  1.0000000E+00
 21 -1  0  0 502 501  0.0000000E+00  0.0000000E+00 -1.5073013E+03  1.5073013E+03  0.0000000E+00  0.0000000E+00  1.0000000E+00
 39  2  1  2   0   0  1.4921397E-12  6.1959327E-12 -1.3443077E+03  1.6702950E+03  9.9132359E+02  0.0000000E+00  1.0000000E+00
 23  2  3  3   0   0  9.9270324E+01  4.1019595E+02 -2.6166663E+02  5.0475569E+02  9.0518290E+01  0.0000000E+00  1.0000000E+00
 23  2  3  3   0   0 -9.9270324E+01 -4.1019595E+02 -1.0826410E+03  1.1655394E+03  9.0857491E+01  0.0000000E+00  1.0000000E+00
-11  1  4  4   0   0  1.8131226E+01  9.8708984E+01 -1.1009184E+02  1.4897120E+02  1.0789593E-05  0.0000000E+00  1.0000000E+00
 11  1  4  4   0   0  8.1139098E+01  3.1148697E+02 -1.5157479E+02  3.5578449E+02  3.5683226E-06  0.0000000E+00  1.0000000E+00
-13  1  5  5   0   0  1.3013006E+01 -1.2684848E+01 -5.7671292E+01  6.0466698E+01  1.5258789E-05  0.0000000E+00  1.0000000E+00
 13  1  5  5   0   0 -1.1228333E+02 -3.9751111E+02 -1.0249697E+03  1.1050727E+03  1.5078915E-06  0.0000000E+00  1.0000000E+00
</event>
<event>
9 100 1.0000000E+00 1.0000000E+03 7.8125000E-03 0.0000000E+00
 21 -1  0  0 501 502  0.0000000E+00  0.0000000E+00  6.2508209E+02  6.2508209E+02  0.0000000E+00  0.0000000E+00  1.0000000E+00
 21 -1  0  0 502 501  0.0000000E+00  0.0000000E+00 -3.9187474E+02  3.9187474E+02  0.0000000E+00  0.0000000E+00  1.0000000E+00
 39  2  1  2   0   0 -1.4210855E-13 -1.4210855E-13  2.3320735E+02  1.0169568E+03  9.8985632E+02  0.0000000E+00  1.0000000E+00
 23  2  3  3   0   0 -1.4162085E+02 -1.4156488E+02 -3.3889810E+02  4.0427745E+02  9.2148006E+01  0.0000000E+00  1.0000000E+00
 23  2  3  3   0   0  1.4162085E+02  1.4156488E+02  5.7210544E+02  6.1267938E+02  8.9298987E+01  0.0000000E+00  1.0000000E+00
-11  1  4  4   0   0 -9.3609096E+01 -8.9847259E+01 -1.2954007E+02  1.8334618E+02  8.0921949E-06  0.0000000E+00  1.0000000E+00
 11  1  4  4   0   0 -4.8011750E+01 -5.1717624E+01 -2.0935803E+02  2.2093127E+02  1.9073486E-06  0.0000000E+00  1.0000000E+00
-13  1  5  5   0   0  1.3362391E+02  1.1088902E+02  5.4132617E+02  5.6849428E+02  2.5456138E-06  0.0000000E+00  1.0000000E+00
 13  1  5  5   0   0  7.9969373E+00  3.0675867E+01  3.0779273E+01  4.4185104E+01  1.5258789E-05  0.0000000E+00  1.0000000E+00
</event>
<event>
9 100 1.0000000E+00 1.0000000E+03 7.8125000E-03 0.0000000E+00
 21 -1  0  0 501 502  0.0000000E+00  0.0000000E+00  2.5509256E+03  2.5509256E+03  0.0000000E+00  0.0000000E+00  1.0000000E+00
 21 -1  0  0 502 501  0.0000000E+00  0.0000000E+00 -9.9217294E+01  9.9217294E+01  0.0000000E+00  0.0000000E+00  1.0000000E+00
 39  2  1  2   0   0  1.9895197E-13  2.2737368E-13  2.4517083E+03  2.6501429E+03  1.0061728E+03  0.0000000E+00  1.0000000E+00
 23  2  3  3   0   0  2.4578800E+02  2.6980334E+02  2.1049112E+03  2.1381042E+03  8.7366006E+01  0.0000000E+00  1.0000000E+00
 23  2  3  3   0   0 -2.4578800E+02 -2.6980334E+02  3.4679711E+02  5.1203870E+02  9.3326341E+01  0.0000000E+00  1.0000000E+00
-11  1  4  4   0   0  1.6499684E+02  2.2360521E+02  1.4239287E+03  1.4507916E+03  1.5258789E-05  0.0000000E+00  1.0000000E+00
 11  1  4  4   0   0  8.0791162E+01  4.6198131E+01  6.8098248E+02  6.8731260E+02  3.4119690E-05  0.0000000E+00  1.0000000E+00
-13  1  5  5   0   0 -1.0240439E+02 -5.7603441E+01  1.4071213E+02  1.8331590E+02  1.0789593E-05  0.0000000E+00  1.0000000E+00
 13  1  5  5   0   0 -1.4338361E+02 -2.1219990E+02  2.0608498E+02  3.2872280E+02  7.8641999E-06  0.0000000E+00  1.0000000E+00
</event>
<event>
9 100 1.0000000E+00 1.0000000E+03 7.8125000E-03 0.0000000E+00
 21 -1  0  0 501 502  0.0000000E+00  0.0000000E+00  4.7646815E+02  4.7646815E+02  0.0000000E+00  0.0000000E+00  1.0000000E+00
 21 -1  0  0 502 501  0.0000000E+00  0.0000000E+00 -5.2364830E+02  5.2364830E+02  0.0000000E+00  0.0000000E+00  1.0000000E+00
 39  2  1  2   0   0 -6.2527761E-13  4.2632564E-13 -4.7180155E+01  1.0001165E+03  9.9900298E+02  0.0000000E+00  1.0000000E+00
 23  2  3  3   0   0 -2.0354243E+02  1.3829426E+02  4.0167754E+02  4.7998001E+02  9.2093109E+01  0.0000000E+00  1.0000000E+00
 23  2  3  3   0   0  2.0354243E+02 -1.3829426E+02 -4.4885770E+02  5.2013644E+02  9.2270582E+01  0.0000000E+00  1.0000000E+00
-11  1  4  4   0   0 -5.6004057E+01 -3.3949903E+00  1.1315349E+02  1.2630001E+02  8.5299224E-06  0.0000000E+00  1.0000000E+00
 11  1  4  4   0   0 -1.4753837E+02  1.4168925E+02  2.8852406E+02  3.5368001E+02  2.3360155E-06  0.0000000E+00  1.0000000E+00
-13  1  5  5   0   0  1.2392724E+02 -3.1039137E+01 -1.9194010E+02  2.3056971E+02  0.0000000E+00  0.0000000E+00  1.0000000E+00
 13  1  5  5   0   0  7.9615192E+01 -1.0725512E+02 -2.5691760E+02  2.8956673E+02  6.6072495E-06  0.0000000E+00  1.0000000E+00
</event>
<event>
9 100 1.0000000E+00 1.0000000E+03 7.8125000E-03 0.0000000E+00
 21 -1  0  0 501 502  0.0000000E+00  0.0000000E+00  2.3903878E+02  2.3903878E+02  0.0000000E+00  0.0000000E+00  1.0000000E+00
 21 -1  0  0 502 501  0.0000000E+00  0.0000000E+00 -1.0936093E+03  1.0936093E+03  0.0000000E+00  0.0000000E+00  1.0000000E+00
 39  2  1  2   0   0 -1.8474111E-13 -2.3874236E-12 -8.5457053E+02  1.3326481E+03  1.0225753E+03  0.0000000E+00  1.0000000E+00
 23  2  3  3   0   0 -3.9706507E+01 -4.9418281E+02 -3.1887626E+02  5.9706086E+02  9.4901746E+01  0.0000000E+00  1.0000000E+00
 23  2  3  3   0   0  3.9706507E+01  4.9418281E+02 -5.3569427E+02  7.3558723E+02  9.1252229E+01  0.0000000E+00  1.0000000E+00
-11  1  4  4   0   0 -7.0423035E+01 -3.2991286E+02 -2.2308918E+02  4.0443872E+02  6.6072495E-06  0.0000000E+00  1.0000000E+00
 11  1  4  4   0   0  3.0716528E+01 -1.6426995E+02 -9.5787083E+01  1.9262214E+02  1.1444092E-05  0.0000000E+00  1.0000000E+00
-13  1  5  5   0   0  6.3594302E+01  3.7429849E+02 -3.7451668E+02  5.3329760E+02  4.6720309E-06  0.0000000E+00  1.0000000E+00
 13  1  5  5   0   0 -2.3887795E+01  1.1988433E+02 -1.6117759E+02  2.0228963E+02  1.3214499E-05  0.0000000E+00  1.0000000E+00
</event>
<event>
9 100 1.0000000E+00 1.0000000E+03 7.8125000E-03 0.0000000E+00
 21 -1  0  0 501 502  0.0000000E+00  0.0000000E+00  3.0382862E+02  3.0382862E+02  0.0000000E+00  0.0000000E+00  1.0000000E+00
 21 -1  0  0 502 501  0.0000000E+00  0.0000000E+00 -8.2737669E+02  8.2737669E+02  0.0000000E+00  0.0000000E+00  1.0000000E+00
 39  2  1  2   0   0 -6.8212103E-13 -6.2527761E-13 -5.2354807E+02  1.1312053E+03  1.0027576E+03  0.0000000E+00  1.0000000E+00
 23  2  3  3   0   0  2.1045156E+02  1.9447310E+02 -7.1799885E+02  7.7734429E+02  8.1438037E+01  0.0000000E+00  1.0000000E+00
 23  2  3  3   0   0 -2.1045156E+02 -1.9447310E+02  1.9445078E+02  3.5386102E+02  7.2779597E+01  0.0000000E+00  1.0000000E+00
-11  1  4  4   0   0  1.6067538E+02  9.5849633E+01 -4.3356163E+02  4.7220697E+02  5.3947966E-06  0.0000000E+00  1.0000000E+00
 11  1  4  4   0   0  4.9776177E+01  9.8623471E+01 -2.8443722E+02  3.0513733E+02  0.0000000E+00  0.0000000E+00  1.0000000E+00
-13  1  5  5   0   0 -1.6697390E+02 -1.8642555E+02  1.7595182E+02  3.0593106E+02  2.1457672E-06  0.0000000E+00  1.0000000E+00
 13  1  5  5   0   0 -4.3477658E+01 -8.0475556E+00  1.8498956E+01  4.7929962E+01  8.7405695E-06  0.0000000E+00  1.0000000E+00
</event>
<event>
9 100 1.0000000E+00 1.0000000E+03 7.8125000E-03 0.0000000E+00
 21 -1  0  0 501 502  0.0000000E+00  0.0000000E+00  4.5335186E+02  4.5335186E+02  0.0000000E+00  0.0000000E+00  1.0000000E+00
 21 -1  0  0 502 501  0.0000000E+00  0.0000000E+00 -5.5971695E+02  5.5971695E+02  0.0000000E+00  0.0000000E+00  1.0000000E+00
 39  2  1  2   0   0  1.9895197E-13  3.1263880E-13 -1.0636510E+02  1.0130688E+03  1.0074695E+03  0.0000000E+00  1.0000000E+00
 23  2  3  3   0   0  1.4750968E+02  2.3010981E+02  3.6227196E+02  4.6274126E+02  9.0437112E+01  0.0000000E+00  1.0000000E+00
 23  2  3  3   0   0 -1.4750968E+02 -2.3010981E+02 -4.6863706E+02  5.5032755E+02  9.2358475E+01  0.0000000E+00  1.0000000E+00
-11  1  4  4   0   0  7.0438129E+01  6.5329534E+01  1.8646063E+02  2.0975473E+02  7.1366451E-06  0.0000000E+00  1.0000000E+00
 11  1  4  4   0   0  7.7071549E+01  1.6478028E+02  1.7581133E+02  2.5298653E+02  0.0000000E+00  0.0000000E+00  1.0000000E+00
-13  1  5  5   0   0 -1.1267887E+01 -9.0172410E+01 -1.1763093E+02  1.4864409E+02  1.2651920E-05  0.0000000E+00  1.0000000E+00
 13  1  5  5   0   0 -1.3624179E+02 -1.3993740E+02 -3.5100612E+02  4.0168346E+02  2.3360155E-06  0.0000000E+00  1.0000000E+00
</event>
<event>
9 100 1.0000000E+00 1.0000000E+03 7.8125000E-03 0.0000000E+00
 21 -1  0  0 501 502  0.0000000E+00  0.0000000E+00  7.0328533E+02  7.0328533E+02  0.0000000E+00  0.0000000E+00  1.0000000E+00
 21 -1  0  0 502 501  0.0000000E+00  0.0000000E+00 -3.5465474E+02  3.5465474E+02  0.0000000E+00  0.0000000E+00  1.0000000E+00
 39  2  1  2   0   0  1.1368684E-12  3.9790393E-13  3.4863059E+02  1.0579401E+03  9.9884628E+02  0.0000000E+00  1.0000000E+00
 23  2  3  3   0   0  4.4795722E+02  1.5865808E+02  4.2944497E+01  4.8581687E+02  9.1300266E+01  0.0000000E+00  1.0000000E+00
 23  2  3  3   0   0 -4.4795722E+02 -1.5865808E+02  3.0568609E+02  5.7212320E+02  8.9682281E+01  0.0000000E+00  1.0000000E+00
-11  1  4  4   0   0  1.8075167E+02  1.9831683E+01  3.1022759E+01  1.8446374E+02  5.0266191E-06  0.0000000E+00  1.0000000E+00
 11  1  4  4   0   0  2.6720556E+02  1.3882640E+02  1.1921738E+01  3.0135312E+02  3.1629799E-06  0.0000000E+00  1.0000000E+00
-13  1  5  5   0   0 -4.4847161E+02 -1.6308012E+02  3.0706824E+02  5.6746173E+02  1.3420148E-06  0.0000000E+00  1.0000000E+00
 13  1  5  5   0   0  5.1438334E-01  4.4220397E+00 -1.3821474E+00  4.6614758E+00  6.6072495E-06  0.0000000E+00  1.0000000E+00
</event>
<event>
9 100 1.0000000E+00 1.0000000E+03 7.8125000E-03 0.0000000E+00
 21 -1  0  0 501 502  0.0000000E+00  0.0000000E+00  2.0627946E+03  2.0627946E+03  0.0000000E+00  0.0000000E+00  1.0000000E+00
 21 -1  0  0 502 501  0.0000000E+00  0.0000000E+00 -1.2184300E+02  1.2184300E+02  0.0000000E+00  0.0000000E+00  1.0000000E+00
 39  2  1  2   0   0  1.3500312E-13  6.1390892E-12  1.9409516E+03  2.1846376E+03  1.0026706E+03  0.0000000E+00  1.0000000E+00
 23  2  3  3   0   0  7.3112001E+00  3.2717149E+02  1.7698730E+03  1.8022552E+03  9.2621117E+01  0.0000000E+00  1.0000000E+00
 23  2  3  3   0   0 -7.3112001E+00 -3.2717149E+02  1.7107860E+02  3.8238241E+02  9.9266241E+01  0.0000000E+00  1.0000000E+00
-11  1  4  4   0   0  1.8498281E+01  1.1128662E+02  8.4252100E+02  8.5004031E+02  1.0789593E-05  0.0000000E+00  1.0000000E+00
 11  1  4  4   0   0 -1.1187080E+01  2.1588486E+02  9.2735197E+02  9.5221484E+02  1.0789593E-05  0.0000000E+00  1.0000000E+00
-13  1  5  5   0   0 -1.6255658E+01 -1.4345142E+02  1.2919445E+02  1.9373632E+02  1.3712696E-05  0.0000000E+00  1.0000000E+00
 13  1  5  5   0   0  8.9444576E+00 -1.8372007E+02  4.1884157E+01  1.8864610E+02  1.3885708E-05  0.0000000E+00  1.0000000E+00
</event>
<event>
9 100 1.0000000E+00 1.0000000E+03 7.8125000E-03 0.0000000E+00
 21 -1  0  0 501 502  0.0000000E+00  0.0000000E+00  3.2166043E+02  3.2166043E+02  0.0000000E+00  0.0000000E+00  1.0000000E+00
 21 -1  0  0 502 501  0.0000000E+00  0.0000000E+00 -7.7696131E+02  7.7696131E+02  0.0000000E+00  0.0000000E+00  1.0000000E+00
 39  2  1  2   0   0  6.8212103E-13 -3.4106051E-13 -4.5530088E+02  1.0986217E+03  9.9983540E+02  0.0000000E+00  1.0000000E+00
 23  2  3  3   0   0 -4.0847099E+02  1.8104736E+02 -4.5530810E+02  6.4361192E+02  8.5464241E+01  0.0000000E+00  1.0000000E+00
 23  2  3  3   0   0  4.0847099E+02 -1.8104736E+02  7.2196571E-03  4.5500982E+02  8.6065345E+01  0.0000000E+00  1.0000000E+00
-11  1  4  4   0   0 -2.7681805E+02  1.3266708E+02 -3.6442200E+02  4.7647894E+02  3.8146973E-06  0.0000000E+00  1.0000000E+00
 11  1  4  4   0   0 -1.3165294E+02  4.8380282E+01 -9.0886099E+01  1.6713298E+02  9.3440618E-06  0.0000000E+00  1.0000000E+00
-13  1  5  5   0   0  1.6887785E+02 -3.6767835E+01  2.3128795E+01  1.7437472E+02  1.2365630E-05  0.0000000E+00  1.0000000E+00
 13  1  5  5   0   0  2.3959314E+02 -1.4427953E+02 -2.3121575E+01  2.8063511E+02  8.2314856E-06  0.0000000E+00  1.0000000E+00
</event>
<event>
9 100 1.0000000E+00 1.0000000E+03 7.8125000E-03 0.0000000E+00
 21 -1  0  0 501 502  0.0000000E+00  0.0000000E+00  2.9560337E+03  2.9560337E+03  0.0000000E+00  0.0000000E+00  1.0000000E+00
 21 -1  0  0 502 501  0.0000000E+00  0.0000000E+00 -8.4360334E+01  8.4360334E+01  0.0000000E+00  0.0000000E+00  1.0000000E+00
 39  2  1  2   0   0 -5.3645977E-13 -5.6559202E-12  2.8716733E+03  3.0403940E+03  9.9874318E+02  0.0000000E+00  1.0000000E+00
 23  2  3  3   0   0 -1.5725994E+01 -1.6789973E+02  2.8397086E+03  2.8460359E+03  8.6820242E+01  0.0000000E+00  1.0000000E+00
 23  2  3  3   0   0  1.5725994E+01  1.6789973E+02  3.1964741E+01  1.9435811E+02  9.1190482E+01  0.0000000E+00  1.0000000E+00
-11  1  4  4   0   0  3.3408887E+01 -9.8444751E+01  1.6764685E+03  1.6796887E+03  2.1579186E-05  0.0000000E+00  1.0000000E+00
 11  1  4  4   0   0 -4.9134880E+01 -6.9454984E+01  1.1632401E+03  1.1663471E+03  4.3158373E-05  0.0000000E+00  1.0000000E+00
-13  1  5  5   0   0  4.3526921E+00  1.5319232E+02 -4.6162228E+00  1.5332365E+02  4.8393686E-06  0.0000000E+00  1.0000000E+00
 13  1  5  5   0   0  1.1373302E+01  1.4707412E+01  3.6580963E+01  4.1034459E+01  1.0558942E-05  0.0000000E+00  1.0000000E+00
</event>
<event>
9 100 1.0000000E+00 1.0000000E+03 7.8125000E-03 0.0000000E+00
 21 -1  0  0 501 502  0.0000000E+00  0.0000000E+00  1.7984352E+02  1.7984352E+02  0.0000000E+00  0.0000000E+00  1.0000000E+00
 21 -1  0  0 502 501  0.0000000E+00  0.0000000E+00 -1.3929180E+03  1.3929180E+03  0.0000000E+00  0.0000000E+00  1.0000000E+00
 39  2  1  2   0   0  2.3305802E-12 -4.7961635E-14 -1.2130745E+03  1.5727616E+03  1.0010141E+03  0.0000000E+00  1.0000000E+00
 23  2  3  3   0   0  2.3626621E+02 -5.3556728E+00  7.1175274E+01  2.6390937E+02  9.3444251E+01  0.0000000E+00  1.0000000E+00
 23  2  3  3   0   0 -2.3626621E+02  5.3556728E+00 -1.2842498E+03  1.3088522E+03  8.9141191E+01  0.0000000E+00  1.0000000E+00
-11  1  4  4   0   0  1.3915859E+02  4.0363568E+01  2.4862037E+01  1.4701174E+02  6.7434958E-06  0.0000000E+00  1.0000000E+00
 11  1  4  4   0   0  9.7107622E+01 -4.5719241E+01  4.6313237E+01  1.1689763E+02  7.7329992E-06  0.0000000E+00  1.0000000E+00
-13  1  5  5   0   0 -2.1017966E+02 -7.7168783E+00 -1.2236501E+03  1.2415936E+03  9.5367432E-07  0.0000000E+00  1.0000000E+00
 13  1  5  5   0   0 -2.6086550E+01  1.3072551E+01 -6.0599657E+01  6.7258591E+01  3.4119690E-05  0.0000000E+00  1.0000000E+00
</event>
<event>
9 100 1.0000000E+00 1.0000000E+03 7.8125000E-03 0.0000000E+00
 21 -1  0  0 501 502  0.0000000E+00  0.0000000E+00  1.5412216E+02  1.5412216E+02  0.0000000E+00  0.0000000E+00  1.0000000E+00
 21 -1  0  0 502 501  0.0000000E+00  0.0000000E+00 -1.6175656E+03  1.6175656E+03  0.0000000E+00  0.0000000E+00  1.0000000E+00
 39  2  1  2   0   0 -2.8421709E-13 -3.9790393E-13 -1.4634435E+03  1.7716878E+03  9.9860443E+02  0.0000000E+00  1.0000000E+00
 23  2  3  3   0   0  2.1928336E+02  3.2556605E+02 -2.0920261E+02  4.5417337E+02  9.1811080E+01  0.0000000E+00  1.0000000E+00
 23  2  3  3   0   0 -2.1928336E+02 -3.2556605E+02 -1.2542408E+03  1.3175144E+03  9.2982038E+01  0.0000000E+00  1.0000000E+00
-11  1  4  4   0   0  2.1069970E+02  2.7052542E+02 -2.0208133E+02  3.9801411E+02  4.3014571E-06  0.0000000E+00  1.0000000E+00
 11  1  4  4   0   0  8.5836613E+00  5.5040628E+01 -7.1212763E+00  5.6159261E+01  1.9451216E-05  0.0000000E+00  1.0000000E+00
-13  1  5  5   0   0 -1.8014663E+02 -2.2474947E+02 -1.0127472E+03  1.0529113E+03  3.8146973E-06  0.0000000E+00  1.0000000E+00
 13  1  5  5   0   0 -3.9136723E+01 -1.0081657E+02 -2.4149360E+02  2.6460314E+02  3.0517578E-05  0.0000000E+00  1.0000000E+00
</event>
<event>
9 100 1.0000000E+00 1.0000000E+03 7.8125000E-03 0.0000000E+00
 21 -1  0  0 501 502  0.0000000E+00  0.0000000E+00  7.6135136E+02  7.6135136E+02  0.0000000E+00  0.0000000E+00  1.0000000E+00
 21 -1  0  0 502 501  0.0000000E+00  0.0000000E+00 -3.2655425E+02  3.2655425E+02  0.0000000E+00  0.0000000E+00  1.0000000E+00
 39  2  1  2   0   0  2.3447910E-13 -2.0463631E-12  4.3479711E+02  1.0879056E+03  9.9724123E+02  0.0000000E+00  1.0000000E+00
 23  2  3  3   0   0  4.9813180E+01 -4.6599203E+02  6.2448733E+01  4.8164265E+02  9.1923227E+01  0.0000000E+00  1.0000000E+00
 23  2  3  3   0   0 -4.9813180E+01  4.6599203E+02  3.7234838E+02  6.0626295E+02  9.6340689E+01  0.0000000E+00  1.0000000E+00
-11  1  4  4   0   0 -7.6029759E+00 -1.6962294E+02 -1.3582777E+01  1.7033567E+02  1.3951053E-05  0.0000000E+00  1.0000000E+00
 11  1  4  4   0   0  5.7416156E+01 -2.9636909E+02  7.6031510E+01  3.1130699E+02  8.5115767E-06  0.0000000E+00  1.0000000E+00
-13  1  5  5   0   0 -7.2861908E+01  2.3375426E+02  1.8141457E+02  3.0473129E+02  1.2651920E-05  0.0000000E+00  1.0000000E+00
 13  1  5  5   0   0  2.3048729E+01  2.3223776E+02  1.9093381E+02  3.0153166E+02  1.0446979E-05  0.0000000E+00  1.0000000E+00
</event>
<event>
9 100 1.0000000E+00 1.0000000E+03 7.8125000E-03 0.0000000E+00
 21 -1  0  0 501 502  0.0000000E+00  0.0000000E+00  3.3254747E+02  3.3254747E+02  0.0000000E+00  0.0000000E+00  1.0000000E+00
 21 -1  0  0 502 501  0.0000000E+00  0.0000000E+00 -7.5877183E+02  7.5877183E+02  0.0000000E+00  0.0000000E+00  1.0000000E+00
 39  2  1  2   0   0 -1.4779289E-12 -1.0800250E-12 -4.2622436E+02  1.0913193E+03  1.0046445E+03  0.0000000E+00  1.0000000E+00
 23  2  3  3   0   0 -3.8904170E+02 -2.7178048E+02 -6.4278082E+01  4.8729155E+02  9.0018392E+01  0.0000000E+00  1.0000000E+00
 23  2  3  3   0   0  3.8904170E+02  2.7178048E+02 -3.6194627E+02  6.0402775E+02  9.2878143E+01  0.0000000E+00  1.0000000E+00
-11  1  4  4   0   0 -9.6426369E+01 -8.3918912E+01  2.0280983E+01  1.2942854E+02  1.0446979E-05  0.0000000E+00  1.0000000E+00
 11  1  4  4   0   0 -2.9261533E+02 -1.8786157E+02 -8.4559065E+01  3.5786301E+02  4.6353870E-06  0.0000000E+00  1.0000000E+00
-13  1  5  5   0   0  1.5592831E+02  7.4318051E+01 -1.7485702E+02  2.4578810E+02  1.2361032E-05  0.0000000E+00  1.0000000E+00
 13  1  5  5   0   0  2.3311339E+02  1.9746243E+02 -1.8708925E+02  3.5823966E+02  1.2794884E-05  0.0000000E+00  1.0000000E+00
</event>
<event>
9 100 1.0000000E+00 1.0000000E+03 7.8125000E-03 0.0000000E+00
 21 -1  0  0 501 502  0.0000000E+00  0.0000000E+00  3.1771103E+02  3.1771103E+02  0.0000000E+00  0.0000000E+00  1.0000000E+00
 21 -1  0  0 502 501  0.0000000E+00  0.0000000E+00 -7.8121987E+02  7.8121987E+02  0.0000000E+00  0.0000000E+00  1.0000000E+00
 39  2  1  2   0   0  4.9737992E-13  9.3791641E-13 -4.6350884E+02  1.0989309E+03  9.9639785E+02  0.0000000E+00  1.0000000E+00
 23  2  3  3   0   0  9.0373712E+01  1.8533856E+02 -7.2212678E+02  7.5581193E+02  8.5245514E+01  0.0000000E+00  1.0000000E+00
 23  2  3  3   0   0 -9.0373712E+01 -1.8533856E+02  2.5861794E+02  3.4311896E+02  9.1266622E+01  0.0000000E+00  1.0000000E+00
-11  1  4  4   0   0  7.1833546E+01  1.0182909E+02 -5.4560232E+02  5.5965268E+02  1.9073486E-06  0.0000000E+00  1.0000000E+00
 11  1  4  4   0   0  1.8540167E+01  8.3509471E+01 -1.7652446E+02  1.9615926E+02  7.6293945E-06  0.0000000E+00  1.0000000E+00
-13  1  5  5   0   0  8.0214516E+00 -8.1017094E+01  1.0663852E+02  1.3416366E+02  1.0619668E-05  0.0000000E+00  1.0000000E+00
 13  1  5  5   0   0 -9.8395164E+01 -1.0432146E+02  1.5197942E+02  2.0895531E+02  7.3871295E-06  0.0000000E+00  1.0000000E+00
</event>
<event>
9 100 1.0000000E+00 1.0000000E+03 7.8125000E-03 0.0000000E+00
 21 -1  0  0 501 502  0.0000000E+00  0.0000000E+00  6.7261267E+02  6.7261267E+02  0.0000000E+00  0.0000000E+00  1.0000000E+00
 21 -1  0  0 502 501  0.0000000E+00  0.0000000E+00 -3.8301610E+02  3.8301610E+02  0.0000000E+00  0.0000000E+00  1.0000000E+00
 39  2  1  2   0   0  4.5474735E-13  1.7053026E-13  2.8959657E+02  1.0556288E+03  1.0151285E+03  0.0000000E+00  1.0000000E+00
 23  2  3  3   0   0 -4.5044352E+02 -1.5848899E+02  3.0451082E+02  5.7394028E+02  9.3072455E+01  0.0000000E+00  1.0000000E+00
 23  2  3  3   0   0  4.5044352E+02  1.5848899E+02 -1.4914245E+01  4.8168850E+02  6.1508080E+01  0.0000000E+00  1.0000000E+00
-11  1  4  4   0   0 -3.6084032E+01 -2.3577444E+01  6.1170359E+01  7.4831584E+01  2.0185481E-05  0.0000000E+00  1.0000000E+00
 11  1  4  4   0   0 -4.1435949E+02 -1.3491155E+02  2.4334046E+02  4.9910870E+02  4.1019083E-06  0.0000000E+00  1.0000000E+00
-13  1  5  5   0   0  2.8302120E+02  7.0686182E+01  3.5811284E+00  2.9173680E+02  8.5996098E-06  0.0000000E+00  1.0000000E+00
 13  1  5  5   0   0  1.6742232E+02  8.7802810E+01 -1.8495374E+01  1.8995169E+02  1.0745050E-05  0.0000000E+00  1.0000000E+00
</event>
<event>
9 100 1.0000000E+00 1.0000000E+03 7.8125000E-03 0.0000000E+00
 21 -1  0  0 501 502  0.0000000E+00  0.0000000E+00  1.5025630E+03  1.5025630E+03  0.0000000E+00  0.0000000E+00  1.0000000E+00
 21 -1  0  0 502 501  0.0000000E+00  0.0000000E+00 -1.6753798E+02  1.6753798E+02  0.0000000E+00  0.0000000E+00  1.0000000E+00
 39  2  1  2   0   0 -9.0949470E-13  1.4779289E-12  1.3350250E+03  1.6701010E+03  1.0034667E+03  0.0000000E+00  1.0000000E+00
 23  2  3  3   0   0  2.2263018E+02 -3.4187439E+02  2.0533571E+02  4.6586063E+02  9.1766416E+01  0.0000000E+00  1.0000000E+00
 23  2  3  3   0   0 -2.2263018E+02  3.4187439E+02  1.1296893E+03  1.2042404E+03  8.6917050E+01  0.0000000E+00  1.0000000E+00
-11  1  4  4   0   0 -3.3897034E+00 -4.1570059E+01  2.8262775E+01  5.0381984E+01  1.8977879E-05  0.0000000E+00  1.0000000E+00
 11  1  4  4   0   0  2.2601988E+02 -3.0030433E+02  1.7707294E+02  4.1547864E+02  4.1295309E-06  0.0000000E+00  1.0000000E+00
-13  1  5  5   0   0 -7.7165264E+01  1.6842557E+02  4.1296410E+02  4.5261573E+02  2.2888184E-05  0.0000000E+00  1.0000000E+00
 13  1  5  5   0   0 -1.4546492E+02  1.7344882E+02  7.1672523E+02  7.5162463E+02  7.6293945E-06  0.0000000E+00  1.0000000E+00
</event>
<event>
9 100 1.0000000E+00 1.0000000E+03 7.8125000E-03 0.0000000E+00
 21 -1  0  0 501 502  0.0000000E+00  0.0000000E+00  6.5236496E+02  6.5236496E+02  0.0000000E+00  0.0000000E+00  1.0000000E+00
 21 -1  0  0 502 501  0.0000000E+00  0.0000000E+00 -3.8103017E+02  3.8103017E+02  0.0000000E+00  0.0000000E+00  1.0000000E+00
 39  2  1  2   0   0 -1.1084467E-12 -2.7000624E-13  2.7133480E+02  1.0333951E+03  9.9713737E+02  0.0000000E+00  1.0000000E+00
 23  2  3  3   0   0  1.4237991E+02  3.7215309E+01  6.0445150E+02  6.3184380E+02  1.1048959E+02  0.0000000E+00  1.0000000E+00
 23  2  3  3   0   0 -1.4237991E+02 -3.7215309E+01 -3.3311671E+02  4.0155133E+02  1.6917362E+02  0.0000000E+00  1.0000000E+00
-11  1  4  4   0   0 -9.9968417E+00  2.5192398E+01  5.2031135E+01  5.8667136E+01  1.0789593E-05  0.0000000E+00  1.0000000E+00
 11  1  4  4   0   0  1.5237675E+02  1.2022910E+01  5.5242037E+02  5.7317666E+02  2.6117447E-06  0.0000000E+00  1.0000000E+00
-13  1  5  5   0   0 -1.6563156E+02 -3.0123485E+01 -3.3721223E+02  3.7689962E+02  6.2513879E-07  0.0000000E+00  1.0000000E+00
 13  1  5  5   0   0  2.3251654E+01 -7.0918235E+00  4.0955242E+00  2.4651707E+01  1.7059845E-05  0.0000000E+00  1.0000000E+00
</event>
<event>
9 100 1.0000000E+00 1.0000000E+03 7.8125000E-03 0.0000000E+00
 21 -1  0  0 501 502  0.0000000E+00  0.0000000E+00  1.1731108E+03  1.1731108E+03  0.0000000E+00  0.0000000E+00  1.0000000E+00
 21 -1  0  0 502 501  0.0000000E+00  0.0000000E+00 -2.1190481E+02  2.1190481E+02  0.0000000E+00  0.0000000E+00  1.0000000E+00
 39  2  1  2   0   0 -4.2632564E-13 -1.7621460E-12  9.6120601E+02  1.3850156E+03  9.9717164E+02  0.0000000E+00  1.0000000E+00
 23  2  3  3   0   0  9.7395175E+01  3.9584562E+02  1.0215315E+02  4.2977943E+02  8.9975112E+01  0.0000000E+00  1.0000000E+00
 23  2  3  3   0   0 -9.7395175E+01 -3.9584562E+02  8.5905286E+02  9.5523619E+02  9.1240284E+01  0.0000000E+00  1.0000000E+00
-11  1  4  4   0   0  7.5780655E+00  2.1139687E+02  3.8766326E+01  2.1505556E+02  6.4328850E-06  0.0000000E+00  1.0000000E+00
 11  1  4  4   0   0  8.9817110E+01  1.8444875E+02  6.3386824E+01  2.1472387E+02  5.9747525E-06  0.0000000E+00  1.0000000E+00
-13  1  5  5   0   0 -3.8971646E+01 -3.5599581E+01  1.0795407E+02  1.2016738E+02  2.8546580E-05  0.0000000E+00  1.0000000E+00
 13  1  5  5   0   0 -5.8423529E+01 -3.6024604E+02  7.5109879E+02  8.3506881E+02  2.3360155E-06  0.0000000E+00  1.0000000E+00
</event>
<event>
9 100 1.0000000E+00 1.0000000E+03 7.8125000E-03 0.0000000E+00
 21 -1  0  0 501 502  0.0000000E+00  0.0000000E+00  3.4735721E+02  3.4735721E+02  0.0000000E+00  0.0000000E+00  1.0000000E+00
 21 -1  0  0 502 501  0.0000000E+00  0.0000000E+00 -7.3513673E+02  7.3513673E+02  0.0000000E+00  0.0000000E+00  1.0000000E+00
 39  2  1  2   0   0 -1.2789769E-12  1.3926638E-12 -3.8777952E+02  1.0824939E+03  1.0106533E+03  0.0000000E+00  1.0000000E+00
 23  2  3  3   0   0 -2.3078135E+02  2.5124921E+02  1.9299013E+02  4.0272545E+02  9.2500843E+01  0.0000000E+00  1.0000000E+00
 23  2  3  3   0   0  2.3078135E+02 -2.5124921E+02 -5.8076964E+02  6.7976849E+02  9.1682189E+01  0.0000000E+00  1.0000000E+00
-11  1  4  4   0   0  2.8707506E+00  1.5431446E+00 -6.1744890E+00  6.9818922E+00  1.4273290E-05  0.0000000E+00  1.0000000E+00
 11  1  4  4   0   0 -2.3365210E+02  2.4970606E+02  1.9916461E+02  3.9574356E+02  1.6837653E-06  0.0000000E+00  1.0000000E+00
-13  1  5  5   0   0  5.2363180E+01 -1.0392299E+01 -8.1275643E+01  9.7240077E+01  1.0789593E-05  0.0000000E+00  1.0000000E+00
 13  1  5  5   0   0  1.7841817E+02 -2.4085691E+02 -4.9949400E+02  5.8252841E+02  3.5683226E-06  0.0000000E+00  1.0000000E+00
</event>
<event>
9 100 1.0000000E+00 1.0000000E+03 7.8125000E-03 0.0000000E+00
 21 -1  0  0 501 502  0.0000000E+00  0.0000000E+00  1.5447884E+03  1.5447884E+03  0.0000000E+00  0.0000000E+00  1.0000000E+00
 21 -1  0  0 502 501  0.0000000E+00  0.0000000E+00 -1.6227237E+02  1.6227237E+02  0.0000000E+00  0.0000000E+00  1.0000000E+00
 39  2  1  2   0   0  5.7980287E-12 -3.5527137E-12  1.3825161E+03  1.7070608E+03  1.0013520E+03  0.0000000E+00  1.0000000E+00
 23  2  3  3   0   0  2.8715476E+02 -1.7617179E+02  1.3035637E+03  1.3493283E+03  8.8962686E+01  0.0000000E+00  1.0000000E+00
 23  2  3  3   0   0 -2.8715476E+02  1.7617179E+02  7.8952404E+01  3.5773248E+02  9.0800255E+01  0.0000000E+00  1.0000000E+00
-11  1  4  4   0   0  2.2014960E+02 -1.7408634E+02  1.0851805E+03  1.1208875E+03  2.6973983E-06  0.0000000E+00  1.0000000E+00
 11  1  4  4   0   0  6.7005161E+01 -2.0854500E+00  2.1838311E+02  2.2844085E+02  3.4119690E-05  0.0000000E+00  1.0000000E+00
-13  1  5  5   0   0 -1.9673567E+02  1.6521945E+02  6.9621454E+01  2.6617576E+02  4.7504565E-06  0.0000000E+00  1.0000000E+00
 13  1  5  5   0   0 -9.0419089E+01  1.0952349E+01  9.3309498E+00  9.1556716E+01  1.0182455E-05  0.0000000E+00  1.0000000E+00
</event>
<event>
9 100 1.0000000E+00 1.0000000E+03 7.8125000E-03 0.0000000E+00
 21 -1  0  0 501 502  0.0000000E+00  0.0000000E+00  3.1888360E+02  3.1888360E+02  0.0000000E+00  0.0000000E+00  1.0000000E+00
 21 -1  0  0 502 501  0.0000000E+00  0.0000000E+00 -7.7884505E+02  7.7884505E+02  0.0000000E+00  0.0000000E+00  1.0000000E+00
 39  2  1  2   0   0  9.9475983E-13 -2.5579538E-12 -4.5996145E+02  1.0977287E+03  9.9671644E+02  0.0000000E+00  1.0000000E+00
 23  2  3  3   0   0 -1.1363009E+02  3.0222397E+02  1.7528578E+02  3.7930079E+02  9.4301977E+01  0.0000000E+00  1.0000000E+00
 23  2  3  3   0   0  1.1363009E+02 -3.0222397E+02 -6.3524723E+02  7.1842786E+02  9.1369686E+01  0.0000000E+00  1.0000000E+00
-11  1  4  4   0   0 -1.1229663E+02  1.7299233E+02  9.4266830E+01  2.2676665E+02  5.6420133E-06  0.0000000E+00  1.0000000E+00
 11  1  4  4   0   0 -1.3334638E+00  1.2923163E+02  8.1018954E+01  1.5253414E+02  9.1473227E-06  0.0000000E+00  1.0000000E+00
-13  1  5  5   0   0  7.4883885E+01 -2.8201318E+02 -5.5740921E+02  6.2916139E+02  4.3702847E-06  0.0000000E+00  1.0000000E+00
 13  1  5  5   0   0  3.8746207E+01 -2.0210786E+01 -7.7838020E+01  8.9266465E+01  2.0185481E-05  0.0000000E+00  1.0000000E+00
</event>
<event>
9 100 1.0000000E+00 1.0000000E+03 7.8125000E-03 0.0000000E+00
 21 -1  0  0 501 502  0.0000000E+00  0.0000000E+00  9.1195321E+01  9.1195321E+01  0.0000000E+00  0.0000000E+00  1.0000000E+00
 21 -1  0  0 502 501  0.0000000E+00  0.0000000E+00 -2.6853172E+03  2.6853172E+03  0.0000000E+00  0.0000000E+00  1.0000000E+00
 39  2  1  2   0   0 -3.1548097E-12  7.7875484E-12 -2.5941219E+03  2.7765125E+03  9.8972393E+02  0.0000000E+00  1.0000000E+00
 23  2  3  3   0   0 -1.3265656E+02  3.2979121E+02 -2.2303024E+03  2.2602084E+03  8.9069385E+01  0.0000000E+00  1.0000000E+00
 23  2  3  3   0   0  1.3265656E+02 -3.2979121E+02 -3.6381952E+02  5.1630413E+02  8.8573732E+01  0.0000000E+00  1.0000000E+00
-11  1  4  4   0   0 -4.6218552E+01  5.9681616E+01 -6.8022006E+02  6.8439563E+02  2.1579186E-05  0.0000000E+00  1.0000000E+00
 11  1  4  4   0   0 -8.6438009E+01  2.7010959E+02 -1.5500823E+03  1.5758128E+03  7.6293945E-06  0.0000000E+00  1.0000000E+00
-13  1  5  5   0   0  1.2874534E+02 -3.2639153E+02 -3.2862408E+02  4.8072922E+02  6.7434958E-07  0.0000000E+00  1.0000000E+00
 13  1  5  5   0   0  3.9112220E+00 -3.3996804E+00 -3.5195442E+01  3.5574915E+01  1.1444092E-05  0.0000000E+00  1.0000000E+00
</event>
<event>
9 100 1.0000000E+00 1.0000000E+03 7.8125000E-03 0.0000000E+00
 21 -1  0  0 501 502  0.0000000E+00  0.0000000E+00  5.4286363E+02  5.4286363E+02  0.0000000E+00  0.0000000E+00  1.0000000E+00
 21 -1  0  0 502 501  0.0000000E+00  0.0000000E+00 -4.6681132E+02  4.6681132E+02  0.0000000E+00  0.0000000E+00  1.0000000E+00
 39  2  1  2   0   0 -4.5474735E-13  1.2505552E-12  7.6052316E+01  1.0096749E+03  1.0068066E+03  0.0000000E+00  1.0000000E+00
 23  2  3  3   0   0  1.0673691E+02 -3.0963861E+02  3.8115758E+02  5.5276714E+02  2.3022072E+02  0.0000000E+00  1.0000000E+00
 23  2  3  3   0   0 -1.0673691E+02  3.0963861E+02 -3.0510526E+02  4.5690781E+02  9.1687981E+01  0.0000000E+00  1.0000000E+00
-11  1  4  4   0   0 -1.4375219E+01 -2.4913837E+01  1.8320767E+02  1.8545187E+02  3.0036956E-05  0.0000000E+00  1.0000000E+00
 11  1  4  4   0   0  1.2111213E+02 -2.8472477E+02  1.9794991E+02  3.6731527E+02  7.1366451E-06  0.0000000E+00  1.0000000E+00
-13  1  5  5   0   0 -1.1089857E+02  3.0142820E+02 -2.6688394E+02  4.1759369E+02  1.7841613E-06  0.0000000E+00  1.0000000E+00
 13  1  5  5   0   0  4.1616596E+00  8.2104082E+00 -3.8221322E+01  3.9314115E+01  1.7892516E-05  0.0000000E+00  1.0000000E+00
</event>
<event>
9 100 1.0000000E+00 1.0000000E+03 7.8125000E-03 0.0000000E+00
 21 -1  0  0 501 502  0.0000000E+00  0.0000000E+00  5.7721032E+02  5.7721032E+02  0.0000000E+00  0.0000000E+00  1.0000000E+00
 21 -1  0  0 502 501  0.0000000E+00  0.0000000E+00 -4.1922913E+02  4.1922913E+02  0.0000000E+00  0.0000000E+00  1.0000000E+00
 39  2  1  2   0   0  4.2632564E-14  8.5265128E-14  1.5798119E+02  9.9643945E+02  9.8383612E+02  0.0000000E+00  1.0000000E+00
 23  2  3  3   0   0  7.9062089E+01  1.3604093E+02  5.4078922E+02  5.7057329E+02  9.1339754E+01  0.0000000E+00  1.0000000E+00
 23  2  3  3   0   0 -7.9062089E+01 -1.3604093E+02 -3.8280803E+02  4.2586616E+02  1.0030976E+02  0.0000000E+00  1.0000000E+00
-11  1  4  4   0   0  2.0466137E+01  1.5740844E+01  2.3972254E+02  2.4110896E+02  1.0092740E-05  0.0000000E+00  1.0000000E+00
 11  1  4  4   0   0  5.8595953E+01  1.2030008E+02  3.0106668E+02  3.2946433E+02  7.1366451E-06  0.0000000E+00  1.0000000E+00
-13  1  5  5   0   0 -6.1846815E+01 -8.3587990E+01 -1.2684370E+02  1.6401617E+02  6.6072495E-06  0.0000000E+00  1.0000000E+00
 13  1  5  5   0   0 -1.7215274E+01 -5.2452937E+01 -2.5596433E+02  2.6184999E+02  4.0460975E-06  0.0000000E+00  1.0000000E+00
</event>
<event>
9 100 1.0000000E+00 1.0000000E+03 7.8125000E-03 0.0000000E+00
 21 -1  0  0 501 502  0.0000000E+00  0.0000000E+00  1.8472372E+02  1.8472372E+02  0.0000000E+00  0.0000000E+00  1.0000000E+00
 21 -1  0  0 502 501  0.0000000E+00  0.0000000E+00 -1.3360001E+03  1.3360001E+03  0.0000000E+00  0.0000000E+00  1.0000000E+00
 39  2  1  2   0   0 -2.8421709E-14  5.6843419E-14 -1.1512764E+03  1.5207238E+03  9.9356108E+02  0.0000000E+00  1.0000000E+00
 23  2  3  3   0   0  1.5784038E+02  4.5958036E+02 -4.9558842E+02  6.9983073E+02  8.9596131E+01  0.0000000E+00  1.0000000E+00
 23  2  3  3   0   0 -1.5784038E+02 -4.5958036E+02 -6.5568794E+02  8.2089307E+02  8.8380233E+01  0.0000000E+00  1.0000000E+00
-11  1  4  4   0   0  7.6323017E+01  1.0679726E+02 -1.1489943E+02  1.7444981E+02  1.7892516E-05  0.0000000E+00  1.0000000E+00
 11  1  4  4   0   0  8.1517367E+01  3.5278311E+02 -3.8068899E+02  5.2538092E+02  7.1366451E-06  0.0000000E+00  1.0000000E+00
-13  1  5  5   0   0  1.7769474E+00 -1.0485777E+02 -1.3458242E+02  1.7061869E+02  2.7508173E-05  0.0000000E+00  1.0000000E+00
 13  1  5  5   0   0 -1.5961733E+02 -3.5472259E+02 -5.2110552E+02  6.5027439E+02  8.3139399E-06  0.0000000E+00  1.0000000E+00
</event>
<event>
9 100 1.0000000E+00 1.0000000E+03 7.8125000E-03 0.0000000E+00
 21 -1  0  0 501 502  0.0000000E+00  0.0000000E+00  2.1354588E+02  2.1354588E+02  0.0000000E+00  0.0000000E+00  1.0000000E+00
 21 -1  0  0 502 501  0.0000000E+00  0.0000000E+00 -1.1774573E+03  1.1774573E+03  0.0000000E+00  0.0000000E+00  1.0000000E+00
 39  2  1  2   0   0  2.8990144E-12 -2.7853275E-12 -9.6391142E+02  1.3910032E+03  1.0028782E+03  0.0000000E+00  1.0000000E+00
 23  2  3  3   0   0 -2.7711615E+02  2.6068669E+02 -5.6126005E+01  4.0246640E+02  1.1865143E+02  0.0000000E+00  1.0000000E+00
 23  2  3  3   0   0  2.7711615E+02 -2.6068669E+02 -9.0778541E+02  9.8853679E+02  9.1540748E+01  0.0000000E+00  1.0000000E+00
-11  1  4  4   0   0 -2.7417055E+02  2.0420645E+02 -5.1514249E+01  3.4572168E+02  1.4342319E-06  0.0000000E+00  1.0000000E+00
 11  1  4  4   0   0 -2.9456019E+00  5.6480247E+01 -4.6117554E+00  5.6744720E+01  8.8696839E-06  0.0000000E+00  1.0000000E+00
-13  1  5  5   0   0  2.5090269E+02 -1.9351541E+02 -7.7831443E+02  8.4034143E+02  4.2649612E-06  0.0000000E+00  1.0000000E+00
 13  1  5  5   0   0  2.6213455E+01 -6.7171283E+01 -1.2947098E+02  1.4819535E+02  1.0789593E-05  0.0000000E+00  1.0000000E+00
</event>
<event>
9 100 1.0000000E+00 1.0000000E+03 7.8125000E-03 0.0000000E+00
 21 -1  0  0 501 502  0.0000000E+00  0.0000000E+00  4.4829503E+02  4.4829503E+02  0.0000000E+00  0.0000000E+00  1.0000000E+00
 21 -1  0  0 502 501  0.0000000E+00  0.0000000E+00 -5.6641882E+02  5.6641882E+02  0.0000000E+00  0.0000000E+00  1.0000000E+00
 39  2  1  2   0   0  2.8421709E-14  5.6843419E-14 -1.1812379E+02  1.0147139E+03  1.0078150E+03  0.0000000E+00  1.0000000E+00
 23  2  3  3   0   0 -1.8261835E+02 -2.3443786E+02  3.4032610E+02  4.6117673E+02  9.2474601E+01  0.0000000E+00  1.0000000E+00
 23  2  3  3   0   0  1.8261835E+02  2.3443786E+02 -4.5844989E+02  5.5353712E+02  8.8974571E+01  0.0000000E+00  1.0000000E+00
-11  1  4  4   0   0 -4.5786690E+01 -1.0308629E+02  7.6685393E+01  1.3639594E+02  1.0092740E-05  0.0000000E+00  1.0000000E+00
 11  1  4  4   0   0 -1.3683166E+02 -1.3135157E+02  2.6364071E+02  3.2478079E+02  4.6720309E-06  0.0000000E+00  1.0000000E+00
-13  1  5  5   0   0  4.5316914E+01  1.2796023E+02 -1.8267471E+02  2.2759063E+02  1.0789593E-05  0.0000000E+00  1.0000000E+00
 13  1  5  5   0   0  1.3730143E+02  1.0647763E+02 -2.7577518E+02  3.2594650E+02  4.6720309E-06  0.0000000E+00  1.0000000E+00
</event>
<event>
9 100 1.0000000E+00 1.0000000E+03 7.8125000E-03 0.0000000E+00
 21 -1  0  0 501 502  0.0000000E+00  0.0000000E+00  1.1169796E+03  1.1169796E+03  0.0000000E+00  0.0000000E+00  1.0000000E+00
 21 -1  0  0 502 501  0.0000000E+00  0.0000000E+00 -2.2810654E+02  2.2810654E+02  0.0000000E+00  0.0000000E+00  1.0000000E+00
 39  2  1  2   0   0 -8.5265128E-14 -3.9790393E-13  8.8887304E+02  1.3450861E+03  1.0095352E+03  0.0000000E+00  1.0000000E+00
 23  2  3  3   0   0  8.3241690E+01  4.8792494E+02  4.9344154E+02  7.0490569E+02  9.1692717E+01  0.0000000E+00  1.0000000E+00
 23  2  3  3   0   0 -8.3241690E+01 -4.8792494E+02  3.9543150E+02  6.4018043E+02  9.2005361E+01  0.0000000E+00  1.0000000E+00
-11  1  4  4   0   0  4.5938052E+01  2.5672791E+02  3.2358981E+02  4.1560785E+02  4.6720309E-06  0.0000000E+00  1.0000000E+00
 11  1  4  4   0   0  3.7303638E+01  2.3119703E+02  1.6985173E+02  2.8929784E+02  5.3947966E-06  0.0000000E+00  1.0000000E+00
-13  1  5  5   0   0  1.1436751E+01 -5.9649691E+01  2.3581775E+01  6.5153550E+01  1.8688124E-05  0.0000000E+00  1.0000000E+00
 13  1  5  5   0   0 -9.4678441E+01 -4.2827525E+02  3.7184972E+02  5.7502688E+02  3.7394493E-06  0.0000000E+00  1.0000000E+00
</event>
<event>
9 100 1.0000000E+00 1.0000000E+03 7.8125000E-03 0.0000000E+00
 21 -1  0  0 501 502  0.0000000E+00  0.0000000E+00  2.4006013E+03  2.4006013E+03  0.0000000E+00  0.0000000E+00  1.0000000E+00
 21 -1  0  0 502 501  0.0000000E+00  0.0000000E+00 -1.0416730E+02  1.0416730E+02  0.0000000E+00  0.0000000E+00  1.0000000E+00
 39  2  1  2   0   0  8.8107299E-13  5.9685590E-12  2.2964340E+03  2.5047686E+03  1.0001283E+03  0.0000000E+00  1.0000000E+00
 23  2  3  3   0   0 -7.1150026E+01 -4.8200545E+02  9.8431231E+02  1.1024250E+03  9.5281100E+01  0.0000000E+00  1.0000000E+00
 23  2  3  3   0   0  7.1150026E+01  4.8200545E+02  1.3121217E+03  1.4023436E+03  8.6676154E+01  0.0000000E+00  1.0000000E+00
-11  1  4  4   0   0 -4.3101872E+01 -4.1804313E+02  7.7280669E+02  8.7968632E+02  7.1366451E-06  0.0000000E+00  1.0000000E+00
 11  1  4  4   0   0 -2.8048154E+01 -6.3962322E+01  2.1150562E+02  2.2273865E+02  1.5258789E-05  0.0000000E+00  1.0000000E+00
-13  1  5  5   0   0  4.6038410E+01  8.6506415E+01  2.3380093E+02  2.5350694E+02  2.6428998E-05  0.0000000E+00  1.0000000E+00
 13  1  5  5   0   0  2.5111616E+01  3.9549904E+02  1.0783207E+03  1.1488367E+03  1.2651920E-05  0.0000000E+00  1.0000000E+00
</event>
<event>
9 100 1.0000000E+00 1.0000000E+03 7.8125000E-03 0.0000000E+00
 21 -1  0  0 501 502  0.0000000E+00  0.0000000E+00  7.8786014E+01  7.8786014E+01  0.0000000E+00  0.0000000E+00  1.0000000E+00
 21 -1  0  0 502 501  0.0000000E+00  0.0000000E+00 -3.2195669E+03  3.2195669E+03  0.0000000E+00  0.0000000E+00  1.0000000E+00
 39  2  1  2   0   0  1.7450930E-11  1.3073986E-11 -3.1407809E+03  3.2983529E+03  1.0072871E+03  0.0000000E+00  1.0000000E+00
 23  2  3  3   0   0 -3.4468272E+02 -2.5820205E+02 -2.3737086E+03  2.4141419E+03  9.0077015E+01  0.0000000E+00  1.0000000E+00
 23  2  3  3   0   0  3.4468272E+02  2.5820205E+02 -7.6707229E+02  8.8421107E+02  8.9189922E+01  0.0000000E+00  1.0000000E+00
-11  1  4  4   0   0 -1.8837920E+02 -1.4253046E+02 -1.5430782E+03  1.5610547E+03  2.1579186E-05  0.0000000E+00  1.0000000E+00
 11  1  4  4   0   0 -1.5630352E+02 -1.1567159E+02 -8.3063044E+02  8.5308712E+02  4.8252528E-05  0.0000000E+00  1.0000000E+00
-13  1  5  5   0   0  1.4735610E+02  1.4175043E+02 -4.3626495E+02  4.8180298E+02  0.0000000E+00  0.0000000E+00  1.0000000E+00
 13  1  5  5   0   0  1.9732662E+02  1.1645162E+02 -3.3080733E+02  4.0240808E+02  7.6293945E-06  0.0000000E+00  1.0000000E+00
</event>
<event>
9 100 1.0000000E+00 1.0000000E+03 7.8125000E-03 0.0000000E+00
 21 -1  0  0 501 502  0.0000000E+00  0.0000000E+00  1.6483232E+03  1.6483232E+03  0.0000000E+00  0.0000000E+00  1.0000000E+00
 21 -1  0  0 502 501  0.0000000E+00  0.0000000E+00 -1.5147776E+02  1.5147776E+02  0.0000000E+00  0.0000000E+00  1.0000000E+00
 39  2  1  2   0   0  3.4390268E-12  3.9079850E-12  1.4968455E+03  1.7998010E+03  9.9936843E+02  0.0000000E+00  1.0000000E+00
 23  2  3  3   0   0  1.0341565E+02  1.1736818E+02 -9.1014712E+01  2.0179775E+02  8.9266836E+01  0.0000000E+00  1.0000000E+00
 23  2  3  3   0   0 -1.0341565E+02 -1.1736818E+02  1.5878602E+03  1.5980032E+03  8.8568183E+01  0.0000000E+00  1.0000000E+00
-11  1  4  4   0   0  1.1597299E+02  8.4641422E+01 -8.2999841E+01  1.6583992E+02  4.1071017E-06  0.0000000E+00  1.0000000E+00
 11  1  4  4   0   0 -1.2557342E+01  3.2726756E+01 -8.0148708E+00  3.5957830E+01  1.0271387E-05  0.0000000E+00  1.0000000E+00
-13  1  5  5   0   0 -2.1623797E+01 -5.8504446E+01  9.6780152E+02  9.6980933E+02  2.6428998E-05  0.0000000E+00  1.0000000E+00
 13  1  5  5   0   0 -8.1791851E+01 -5.8863732E+01  6.2005866E+02  6.2819391E+02  2.8546580E-05  0.0000000E+00  1.0000000E+00
</event>
<event>
9 100 1.0000000E+00 1.0000000E+03 7.8125000E-03 0.0000000E+00
 21 -1  0  0 501 502  0.0000000E+00  0.0000000E+00  1.6219663E+02  1.6219663E+02  0.0000000E+00  0.0000000E+00  1.0000000E+00
 21 -1  0  0 502 501  0.0000000E+00  0.0000000E+00 -1.6002159E+03  1.6002159E+03  0.0000000E+00  0.0000000E+00  1.0000000E+00
 39  2  1  2   0   0  4.7606363E-13 -2.9558578E-12 -1.4380192E+03  1.7624125E+03  1.0189203E+03  0.0000000E+00  1.0000000E+00
 23  2  3  3   0   0  6.1692607E+01 -3.7617898E+02 -1.2815239E+03  1.3403333E+03  9.4197405E+01  0.0000000E+00  1.0000000E+00
 23  2  3  3   0   0 -6.1692607E+01  3.7617898E+02 -1.5649531E+02  4.2207921E+02  9.1342639E+01  0.0000000E+00  1.0000000E+00
-11  1  4  4   0   0 -3.2866182E+00  3.0285949E+00 -4.7875479E+01  4.8083633E+01  3.0517578E-05  0.0000000E+00  1.0000000E+00
 11  1  4  4   0   0  6.4979225E+01 -3.7920757E+02 -1.2336485E+03  1.2922497E+03  2.6973983E-06  0.0000000E+00  1.0000000E+00
-13  1  5  5   0   0 -3.3917118E-02  9.2933151E+01 -7.9118941E+01  1.2205072E+02  1.2579828E-05  0.0000000E+00  1.0000000E+00
 13  1  5  5   0   0 -6.1658690E+01  2.8324583E+02 -7.7376366E+01  3.0002849E+02  6.6072495E-06  0.0000000E+00  1.0000000E+00
</event>
<event>
9 100 1.0000000E+00 1.0000000E+03 7.8125000E-03 0.0000000E+00
 21 -1  0  0 501 502  0.0000000E+00  0.0000000E+00  4.3613462E+02  4.3613462E+02  0.0000000E+00  0.0000000E+00  1.0000000E+00
 21 -1  0  0 502 501  0.0000000E+00  0.0000000E+00 -5.7703475E+02  5.7703475E+02  0.0000000E+00  0.0000000E+00  1.0000000E+00
 39  2  1  2   0   0  3.6948222E-13  4.2632564E-13 -1.4090013E+02  1.0131694E+03  1.0033241E+03  0.0000000E+00  1.0000000E+00
 23  2  3  3   0   0  9.2296851E+01  1.0797907E+02  4.0662860E+02  4.4014482E+02  9.0567414E+01  0.0000000E+00  1.0000000E+00
 23  2  3  3   0   0 -9.2296851E+01 -1.0797907E+02 -5.4752873E+02  5.7302455E+02  9.1603685E+01  0.0000000E+00  1.0000000E+00
-11  1  4  4   0   0  7.3754786E+01  1.2295633E+02  3.2766855E+02  3.5766564E+02  3.1629799E-06  0.0000000E+00  1.0000000E+00
 11  1  4  4   0   0  1.8542065E+01 -1.4977262E+01  7.8960045E+01  8.2479181E+01  1.0789593E-05  0.0000000E+00  1.0000000E+00
-13  1  5  5   0   0  1.7478086E+01 -6.4924750E+00 -4.4440206E+01  4.8193024E+01  1.5258789E-05  0.0000000E+00  1.0000000E+00
 13  1  5  5   0   0 -1.0977494E+02 -1.0148660E+02 -5.0308852E+02  5.2483152E+02  3.7546195E-06  0.0000000E+00  1.0000000E+00
</event>
<event>
9 100 1.0000000E+00 1.0000000E+03 7.8125000E-03 0.0000000E+00
 21 -1  0  0 501 502  0.0000000E+00  0.0000000E+00  6.2009306E+02  6.2009306E+02  0.0000000E+00  0.0000000E+00  1.0000000E+00
 21 -1  0  0 502 501  0.0000000E+00  0.0000000E+00 -3.9668971E+02  3.9668971E+02  0.0000000E+00  0.0000000E+00  1.0000000E+00
 39  2  1  2   0   0  1.4210855E-13  2.8421709E-13  2.2340335E+02  1.0167828E+03  9.9193656E+02  0.0000000E+00  1.0000000E+00
 23  2  3  3   0   0 -1.8839538E+02 -3.1450387E+02  4.4126071E+02  5.8093229E+02  9.1464838E+01  0.0000000E+00  1.0000000E+00
 23  2  3  3   0   0  1.8839538E+02  3.1450387E+02 -2.1785736E+02  4.3585047E+02  8.9990601E+01  0.0000000E+00  1.0000000E+00
-11  1  4  4   0   0 -1.3381855E+02 -2.8340222E+02  3.8647360E+02  4.9758022E+02  3.1629799E-06  0.0000000E+00  1.0000000E+00
 11  1  4  4   0   0 -5.4576824E+01 -3.1101644E+01  5.4787105E+01  8.3352078E+01  0.0000000E+00  0.0000000E+00  1.0000000E+00
-13  1  5  5   0   0  1.8733372E+02  2.5227877E+02 -1.9345491E+02  3.6900312E+02  3.1268304E-06  0.0000000E+00  1.0000000E+00
 13  1  5  5   0   0  1.0616607E+00  6.2225095E+01 -2.4402448E+01  6.6847356E+01  8.5299224E-06  0.0000000E+00  1.0000000E+00
</event>
<event>
9 100 1.0000000E+00 1.0000000E+03 7.8125000E-03 0.0000000E+00
 21 -1  0  0 501 502  0.0000000E+00  0.0000000E+00  3.2557931E+02  3.2557931E+02  0.0000000E+00  0.0000000E+00  1.0000000E+00
 21 -1  0  0 502 501  0.0000000E+00  0.0000000E+00 -7.5473084E+02  7.5473084E+02  0.0000000E+00  0.0000000E+00  1.0000000E+00
 39  2  1  2   0   0 -4.2632564E-14  2.8421709E-13 -4.2915153E+02  1.0803102E+03  9.9141262E+02  0.0000000E+00  1.0000000E+00
 23  2  3  3   0   0  3.0638716E+01 -2.8728926E+02 -6.4165683E+02  7.0903212E+02  8.6771015E+01  0.0000000E+00  1.0000000E+00
 23  2  3  3   0   0 -3.0638716E+01  2.8728926E+02  2.1250530E+02  3.7127804E+02  9.5994941E+01  0.0000000E+00  1.0000000E+00
-11  1  4  4   0   0 -2.8774945E+01 -1.3803016E+02 -2.9585267E+02  3.2773332E+02  5.3947966E-06  0.0000000E+00  1.0000000E+00
 11  1  4  4   0   0  5.9413661E+01 -1.4925909E+02 -3.4580416E+02  3.8129880E+02  7.6293945E-06  0.0000000E+00  1.0000000E+00
-13  1  5  5   0   0 -3.0362172E+01  1.5795517E+02  6.0873890E+01  1.7198060E+02  6.6072495E-06  0.0000000E+00  1.0000000E+00
 13  1  5  5   0   0 -2.7654426E-01  1.2933409E+02  1.5163141E+02  1.9929744E+02  5.7220459E-06  0.0000000E+00  1.0000000E+00
</event>
<event>
9 100 1.0000000E+00 1.0000000E+03 7.8125000E-03 0.0000000E+00
 21 -1  0  0 501 502  0.0000000E+00  0.0000000E+00  5.4751901E+02  5.4751901E+02  0.0000000E+00  0.0000000E+00  1.0000000E+00
 21 -1  0  0 502 501  0.0000000E+00  0.0000000E+00 -4.5357268E+02  4.5357268E+02  0.0000000E+00  0.0000000E+00  1.0000000E+00
 39  2  1  2   0   0 -1.4210855E-14 -1.1368684E-13  9.3946335E+01  1.0010917E+03  9.9667379E+02  0.0000000E+00  1.0000000E+00
 23  2  3  3   0   0  5.5327494E+01  2.7471249E+02  4.5085993E+02  5.3813651E+02  8.8250464E+01  0.0000000E+00  1.0000000E+00
 23  2  3  3   0   0 -5.5327494E+01 -2.7471249E+02 -3.5691359E+02  4.6295517E+02  9.1717477E+01  0.0000000E+00  1.0000000E+00
-11  1  4  4   0   0  7.1834426E+01  2.6167662E+02  4.3034474E+02  5.0875479E+02  8.5963041E-07  0.0000000E+00  1.0000000E+00
 11  1  4  4   0   0 -1.6506932E+01  1.3035873E+01  2.0515190E+01  2.9381725E+01  9.3440618E-06  0.0000000E+00  1.0000000E+00
-13  1  5  5   0   0  1.9936384E+01 -1.3124389E+02 -1.6659025E+02  2.1301345E+02  8.5299224E-06  0.0000000E+00  1.0000000E+00
 13  1  5  5   0   0 -7.5263878E+01 -1.4346860E+02 -1.9032334E+02  2.4994172E+02  5.7220459E-06  0.0000000E+00  1.0000000E+00
</event>
<event>
9 100 1.0000000E+00 1.0000000E+03 7.8125000E-03 0.0000000E+00
 21 -1  0  0 501 502  0.0000000E+00  0.0000000E+00  2.8550697E+02  2.8550697E+02  0.0000000E+00  0.0000000E+00  1.0000000E+00
 21 -1  0  0 502 501  0.0000000E+00  0.0000000E+00 -8.7866266E+02  8.7866266E+02  0.0000000E+00  0.0000000E+00  1.0000000E+00
 39  2  1  2   0   0  2.1032065E-12 -2.4868996E-13 -5.9315569E+02  1.1641696E+03  1.0017271E+03  0.0000000E+00  1.0000000E+00
 23  2  3  3   0   0 -4.9148746E+02  6.1485460E+01 -3.1557272E+02  5.8895718E+02  4.4091134E+01  0.0000000E+00  1.0000000E+00
 23  2  3  3   0   0  4.9148746E+02 -6.1485460E+01 -2.7758297E+02  5.7521245E+02  9.2068812E+01  0.0000000E+00  1.0000000E+00
-11  1  4  4   0   0 -4.0368107E+02  4.3884730E+01 -2.7644606E+02  4.9122978E+02  2.7804145E-06  0.0000000E+00  1.0000000E+00
 11  1  4  4   0   0 -8.7806395E+01  1.7600729E+01 -3.9126665E+01  9.7727399E+01  1.4774259E-05  0.0000000E+00  1.0000000E+00
-13  1  5  5   0   0  4.1700350E+02 -7.1067677E+01 -2.0238525E+02  4.6893744E+02  5.0463701E-06  0.0000000E+00  1.0000000E+00
 13  1  5  5   0   0  7.4483964E+01  9.5822177E+00 -7.5197726E+01  1.0627501E+02  1.9821748E-05  0.0000000E+00  1.0000000E+00
</event>
<event>
9 100 1.0000000E+00 1.0000000E+03 7.8125000E-03 0.0000000E+00
 21 -1  0  0 501 502  0.0000000E+00  0.0000000E+00  1.4979393E+02  1.4979393E+02  0.0000000E+00  0.0000000E+00  1.0000000E+00
 21 -1  0  0 502 501  0.0000000E+00  0.0000000E+00 -1.6377715E+03  1.6377715E+03  0.0000000E+00  0.0000000E+00  1.0000000E+00
 39  2  1  2   0   0 -1.2931878E-12  4.4906301E-12 -1.4879776E+03  1.7875654E+03  9.9061237E+02  0.0000000E+00  1.0000000E+00
 23  2  3  3   0   0 -1.0566184E+02  3.6254209E+02 -1.3003492E+03  1.3575067E+03  9.6515166E+01  0.0000000E+00  1.0000000E+00
 23  2  3  3   0   0  1.0566184E+02 -3.6254209E+02 -1.8762834E+02  4.3005871E+02  8.4527538E+01  0.0000000E+00  1.0000000E+00
-11  1  4  4   0   0  1.0746937E+01  8.3302032E+01 -2.1634304E+02  2.3207549E+02  4.5776367E-05  0.0000000E+00  1.0000000E+00
 11  1  4  4   0   0 -1.1640877E+02  2.7924006E+02 -1.0840062E+03  1.1254312E+03  4.6720309E-06  0.0000000E+00  1.0000000E+00
-13  1  5  5   0   0  1.5571054E+01 -1.4508399E+02 -1.0813027E+02  1.8161491E+02  1.1404286E-05  0.0000000E+00  1.0000000E+00
 13  1  5  5   0   0  9.0090784E+01 -2.1745810E+02 -7.9498078E+01  2.4844379E+02  9.1473227E-06  0.0000000E+00  1.0000000E+00
</event>
<event>
9 100 1.0000000E+00 1.0000000E+03 7.8125000E-03 0.0000000E+00
 21 -1  0  0 501 502  0.0000000E+00  0.0000000E+00  3.4665114E+02  3.4665114E+02  0.0000000E+00  0.0000000E+00  1.0000000E+00
 21 -1  0  0 502 501  0.0000000E+00  0.0000000E+00 -7.1980305E+02  7.1980305E+02  0.0000000E+00  0.0000000E+00  1.0000000E+00
 39  2  1  2   0   0 -9.0949470E-13 -1.4779289E-12 -3.7315191E+02  1.0664542E+03  9.9904063E+02  0.0000000E+00  1.0000000E+00
 23  2  3  3   0   0  2.6488834E+02  4.1281743E+02 -1.8761748E+02  5.3325765E+02  9.2624711E+01  0.0000000E+00  1.0000000E+00
 23  2  3  3   0   0 -2.6488834E+02 -4.1281743E+02 -1.8553443E+02  5.3319654E+02  9.6392190E+01  0.0000000E+00  1.0000000E+00
-11  1  4  4   0   0  1.6906170E+02  3.0025210E+02 -9.0103796E+01  3.5616271E+02  9.3440618E-06  0.0000000E+00  1.0000000E+00
 11  1  4  4   0   0  9.5826644E+01  1.1256533E+02 -9.7513684E+01  1.7709494E+02  1.6352108E-05  0.0000000E+00  1.0000000E+00
-13  1  5  5   0   0 -1.5310255E+02 -1.6345710E+02 -1.1091553E+02  2.4992173E+02  1.2250168E-05  0.0000000E+00  1.0000000E+00
 13  1  5  5   0   0 -1.1178580E+02 -2.4936033E+02 -7.4618904E+01  2.8327481E+02  1.0956884E-05  0.0000000E+00  1.0000000E+00
</event>
<event>
9 100 1.0000000E+00 1.0000000E+03 7.8125000E-03 0.0000000E+00
 21 -1  0  0 501 502  0.0000000E+00  0.0000000E+00  1.3504665E+02  1.3504665E+02  0.0000000E+00  0.0000000E+00  1.0000000E+00
 21 -1  0  0 502 501  0.0000000E+00  0.0000000E+00 -1.8521837E+03  1.8521837E+03  0.0000000E+00  0.0000000E+00  1.0000000E+00
 39  2  1  2   0   0 -5.0590643E-12  3.1974423E-13 -1.7171370E+03  1.9872303E+03  1.0002624E+03  0.0000000E+00  1.0000000E+00
 23  2  3  3   0   0 -3.8744216E+02  2.5511222E+01 -2.5957363E+02  4.7604214E+02  9.2061948E+01  0.0000000E+00  1.0000000E+00
 23  2  3  3   0   0  3.8744216E+02 -2.5511222E+01 -1.4575634E+03  1.5111882E+03  9.1849958E+01  0.0000000E+00  1.0000000E+00
-11  1  4  4   0   0 -4.5334417E+01  3.3901849E+01 -4.2550964E+01  7.0817578E+01  2.6973983E-06  0.0000000E+00  1.0000000E+00
 11  1  4  4   0   0 -3.4210774E+02 -8.3906273E+00 -2.1702267E+02  4.0522457E+02  3.2340670E-06  0.0000000E+00  1.0000000E+00
-13  1  5  5   0   0  3.1048070E+02  9.9528031E+00 -1.0539774E+03  1.0988020E+03  5.3947966E-06  0.0000000E+00  1.0000000E+00
 13  1  5  5   0   0  7.6961463E+01 -3.5464025E+01 -4.0358599E+02  4.1238625E+02  2.1579186E-05  0.0000000E+00  1.0000000E+00
</event>
<event>
9 100 1.0000000E+00 1.0000000E+03 7.8125000E-03 0.0000000E+00
 21 -1  0  0 501 502  0.0000000E+00  0.0000000E+00  2.3295143E+02  2.3295143E+02  0.0000000E+00  0.0000000E+00  1.0000000E+00
 21 -1  0  0 502 501  0.0000000E+00  0.0000000E+00 -1.0843189E+03  1.0843189E+03  0.0000000E+00  0.0000000E+00  1.0000000E+00
 39  2  1  2   0   0  1.2789769E-12 -1.5631940E-12 -8.5136750E+02  1.3172704E+03  1.0051739E+03  0.0000000E+00  1.0000000E+00
 23  2  3  3   0   0  1.4888886E+02 -1.8493862E+02 -9.9291763E+02  1.0262008E+03  1.0407898E+02  0.0000000E+00  1.0000000E+00
 23  2  3  3   0   0 -1.4888886E+02  1.8493862E+02  1.4155013E+02  2.9106959E+02  9.1185966E+01  0.0000000E+00  1.0000000E+00
-11  1  4  4   0   0  1.2415875E+02 -1.1650961E+02 -5.0603251E+02  5.3390896E+02  7.6293945E-06  0.0000000E+00  1.0000000E+00
 11  1  4  4   0   0  2.4730111E+01 -6.8429014E+01 -4.8688512E+02  4.9229181E+02  5.3947966E-06  0.0000000E+00  1.0000000E+00
-13  1  5  5   0   0 -3.8314840E+01  1.5365397E+01 -4.3838633E+00  4.1513138E+01  1.3076123E-05  0.0000000E+00  1.0000000E+00
 13  1  5  5   0   0 -1.1057402E+02  1.6957323E+02  1.4593399E+02  2.4955645E+02  3.9796982E-06  0.0000000E+00  1.0000000E+00
</event>
<event>
9 100 1.0000000E+00 1.0000000E+03 7.8125000E-03 0.0000000E+00
 21 -1  0  0 501 502  0.0000000E+00  0.0000000E+00  1.8750580E+02  1.8750580E+02  0.0000000E+00  0.0000000E+00  1.0000000E+00
 21 -1  0  0 502 501  0.0000000E+00  0.0000000E+00 -1.3336564E+03  1.3336564E+03  0.0000000E+00  0.0000000E+00  1.0000000E+00
 39  2  1  2   0   0  1.3073986E-12 -1.4210855E-13 -1.1461506E+03  1.5211622E+03  1.0001366E+03  0.0000000E+00  1.0000000E+00
 23  2  3  3   0   0 -2.7547297E+02  2.9744239E+01 -1.1912094E+03  1.2264080E+03  9.1250402E+01  0.0000000E+00  1.0000000E+00
 23  2  3  3   0   0  2.7547297E+02 -2.9744239E+01  4.5058830E+01  2.9475418E+02  8.9886875E+01  0.0000000E+00  1.0000000E+00
-11  1  4  4   0   0 -5.0801195E+01 -1.1540846E+00 -1.0341891E+02  1.1522831E+02  3.7376247E-05  0.0000000E+00  1.0000000E+00
 11  1  4  4   0   0 -2.2467177E+02  3.0898324E+01 -1.0877905E+03  1.1111797E+03  4.0460975E-06  0.0000000E+00  1.0000000E+00
-13  1  5  5   0   0  1.0306120E+02  1.0754682E+01  5.5110807E+01  1.1736471E+02  6.2263321E-06  0.0000000E+00  1.0000000E+00
 13  1  5  5   0   0  1.7241176E+02 -4.0498922E+01 -1.0051978E+01  1.7738946E+02  2.6973983E-06  0.0000000E+00  1.0000000E+00
</event>
<event>
9 100 1.0000000E+00 1.0000000E+03 7.8125000E-03 0.0000000E+00
 21 -1  0  0 501 502  0.0000000E+00  0.0000000E+00  4.9293560E+02  4.9293560E+02  0.0000000E+00  0.0000000E+00  1.0000000E+00
 21 -1  0  0 502 501  0.0000000E+00  0.0000000E+00 -5.0744301E+02  5.0744301E+02  0.0000000E+00  0.0000000E+00  1.0000000E+00
 39  2  1  2   0   0  4.9737992E-14  2.2737368E-13 -1.4507417E+01  1.0003786E+03  1.0002734E+03  0.0000000E+00  1.0000000E+00
 23  2  3  3   0   0  3.8943543E+01  2.0704477E+02  4.3589623E+02  4.9516557E+02  1.0391960E+02  0.0000000E+00  1.0000000E+00
 23  2  3  3   0   0 -3.8943543E+01 -2.0704477E+02 -4.5040364E+02  5.0521304E+02  8.9401562E+01  0.0000000E+00  1.0000000E+00
-11  1  4  4   0   0  4.6100086E+01  1.0380150E+02  1.3203693E+02  1.7416578E+02  1.3754087E-05  0.0000000E+00  1.0000000E+00
 11  1  4  4   0   0 -7.1565428E+00  1.0324327E+02  3.0385930E+02  3.2099979E+02  7.8641999E-06  0.0000000E+00  1.0000000E+00
-13  1  5  5   0   0 -3.9553087E+01 -1.8922199E+02 -3.2195370E+02  3.7553108E+02  6.0315660E-06  0.0000000E+00  1.0000000E+00
 13  1  5  5   0   0  6.0954376E-01 -1.7822782E+01 -1.2844995E+02  1.2968196E+02  5.3947966E-06  0.0000000E+00  1.0000000E+00
</event>
<event>
9 100 1.0000000E+00 1.0000000E+03 7.8125000E-03 0.0000000E+00
 21 -1  0  0 501 502  0.0000000E+00  0.0000000E+00  1.2639904E+03  1.2639904E+03  0.0000000E+00  0.0000000E+00  1.0000000E+00
 21 -1  0  0 502 501  0.0000000E+00  0.0000000E+00 -1.9694366E+02  1.9694366E+02  0.0000000E+00  0.0000000E+00  1.0000000E+00
 39  2  1  2   0   0  4.2632564E-12 -3.1974423E-14  1.0670468E+03  1.4609341E+03  9.9786753E+02  0.0000000E+00  1.0000000E+00
 23  2  3  3   0   0  4.1030895E+02 -3.8501278E+00  9.2712899E+02  1.0179128E+03  9.0609540E+01  0.0000000E+00  1.0000000E+00
 23  2  3  3   0   0 -4.1030895E+02  3.8501278E+00  1.3991779E+02  4.4302127E+02  9.1228311E+01  0.0000000E+00  1.0000000E+00
-11  1  4  4   0   0  5.0966985E+00  8.5354558E+00  5.8484732E+01  5.9323639E+01  2.4126264E-05  0.0000000E+00  1.0000000E+00
 11  1  4  4   0   0  4.0521225E+02 -1.2385584E+01  8.6864426E+02  9.5858918E+02  2.3360155E-06  0.0000000E+00  1.0000000E+00
-13  1  5  5   0   0 -3.5770068E+01 -2.1777235E+01  3.1071465E+01  5.2145773E+01  1.4957797E-05  0.0000000E+00  1.0000000E+00
 13  1  5  5   0   0 -3.7453888E+02  2.5627362E+01  1.0884632E+02  3.9087550E+02  2.3360155E-06  0.0000000E+00  1.0000000E+00
</event>
<event>
9 100 1.0000000E+00 1.0000000E+03 7.8125000E-03 0.0000000E+00
 21 -1  0  0 501 502  0.0000000E+00  0.0000000E+00  1.2491189E+03  1.2491189E+03  0.0000000E+00  0.0000000E+00  1.0000000E+00
 21 -1  0  0 502 501  0.0000000E+00  0.0000000E+00 -2.0456863E+02  2.0456863E+02  0.0000000E+00  0.0000000E+00  1.0000000E+00
 39  2  1  2   0   0 -4.1779913E-12  5.8548721E-12  1.0445503E+03  1.4536875E+03  1.0110006E+03  0.0000000E+00  1.0000000E+00
 23  2  3  3   0   0 -2.4975179E+02  3.5071203E+02  8.8068172E+02  9.8384977E+02  8.3577391E+01  0.0000000E+00  1.0000000E+00
 23  2  3  3   0   0  2.4975179E+02 -3.5071203E+02  1.6386853E+02  4.6983776E+02  9.2302403E+01  0.0000000E+00  1.0000000E+00
-11  1  4  4   0   0 -2.1544713E+02  2.4142425E+02  6.3008310E+02  7.0831338E+02  1.0789593E-05  0.0000000E+00  1.0000000E+00
 11  1  4  4   0   0 -3.4304658E+01  1.0928779E+02  2.5059862E+02  2.7553639E+02  1.8688124E-05  0.0000000E+00  1.0000000E+00
-13  1  5  5   0   0  2.3606075E+01 -7.8695939E+01  5.8074570E+01  1.0061289E+02  1.7271776E-05  0.0000000E+00  1.0000000E+00
 13  1  5  5   0   0  2.2614572E+02 -2.7201610E+02  1.0579396E+02  3.6922487E+02  5.2234894E-06  0.0000000E+00  1.0000000E+00
</event>
<event>
9 100 1.0000000E+00 1.0000000E+03 7.8125000E-03 0.0000000E+00
 21 -1  0  0 501 502  0.0000000E+00  0.0000000E+00  2.8964846E+02  2.8964846E+02  0.0000000E+00  0.0000000E+00  1.0000000E+00
 21 -1  0  0 502 501  0.0000000E+00  0.0000000E+00 -8.6120878E+02  8.6120878E+02  0.0000000E+00  0.0000000E+00  1.0000000E+00
 39  2  1  2   0   0 -9.9475983E-13 -1.6484591E-12 -5.7156032E+02  1.1508572E+03  9.9889498E+02  0.0000000E+00  1.0000000E+00
 23  2  3  3   0   0 -2.3007643E+02 -3.7988748E+02 -4.4179492E+01  4.5547511E+02  9.0863028E+01  0.0000000E+00  1.0000000E+00
 23  2  3  3   0   0  2.3007643E+02  3.7988748E+02 -5.2738083E+02  6.9538213E+02  9.0421839E+01  0.0000000E+00  1.0000000E+00
-11  1  4  4   0   0 -9.0451647E+00 -7.8951278E+01  1.3808721E-01  7.9467845E+01  1.5078915E-05  0.0000000E+00  1.0000000E+00
 11  1  4  4   0   0 -2.2103126E+02 -3.0093620E+02 -4.4317579E+01  3.7600726E+02  5.2379870E-06  0.0000000E+00  1.0000000E+00
-13  1  5  5   0   0  8.0329447E+01  1.4036025E+02 -2.6140578E+02  3.0738705E+02  9.3440618E-06  0.0000000E+00  1.0000000E+00
 13  1  5  5   0   0  1.4974698E+02  2.3952723E+02 -2.6597505E+02  3.8799508E+02  1.0789593E-05  0.0000000E+00  1.0000000E+00
</event>
<event>
9 100 1.0000000E+00 1.0000000E+03 7.8125000E-03 0.0000000E+00
 21 -1  0  0 501 502  0.0000000E+00  0.0000000E+00  4.3141417E+02  4.3141417E+02  0.0000000E+00  0.0000000E+00  1.0000000E+00
 21 -1  0  0 502 501  0.0000000E+00  0.0000000E+00 -5.7739105E+02  5.7739105E+02  0.0000000E+00  0.0000000E+00  1.0000000E+00
 39  2  1  2   0   0 -5.6843419E-13  1.5916157E-12 -1.4597688E+02  1.0088052E+03  9.9818771E+02  0.0000000E+00  1.0000000E+00
 23  2  3  3   0   0 -1.5806942E+02  4.6037924E+02 -5.4933368E+01  4.9807298E+02  9.0133387E+01  0.0000000E+00  1.0000000E+00
 23  2  3  3   0   0  1.5806942E+02 -4.6037924E+02 -9.1043514E+01  5.1073224E+02  1.2499402E+02  0.0000000E+00  1.0000000E+00
-11  1  4  4   0   0  1.8932321E+00  4.9199566E+01 -2.6607123E+01  5.5965352E+01  2.4079096E-06  0.0000000E+00  1.0000000E+00
 11  1  4  4   0   0 -1.5996265E+02  4.1117968E+02 -2.8326245E+01  4.4210763E+02  2.8610229E-06  0.0000000E+00  1.0000000E+00
-13  1  5  5   0   0  5.6192077E+01 -5.2661490E+01 -4.1743009E+01  8.7597151E+01  4.8158192E-06  0.0000000E+00  1.0000000E+00
 13  1  5  5   0   0  1.0187734E+02 -4.0771775E+02 -4.9300505E+01  4.2313508E+02  4.0740985E-06  0.0000000E+00  1.0000000E+00
</event>
<event>
9 100 1.0000000E+00 1.0000000E+03 7.8125000E-03 0.0000000E+00
 21 -1  0  0 501 502  0.0000000E+00  0.0000000E+00  4.7355435E+02  4.7355435E+02  0.0000000E+00  0.0000000E+00  1.0000000E+00
 21 -1  0  0 502 501  0.0000000E+00  0.0000000E+00 -5.1634461E+02  5.1634461E+02  0.0000000E+00  0.0000000E+00  1.0000000E+00
 39  2  1  2   0   0  1.1368684E-13  4.5474735E-13 -4.2790256E+01  9.8989896E+02  9.8897368E+02  0.0000000E+00  1.0000000E+00
 23  2  3  3   0   0 -1.3864101E+02 -4.6537657E+02  3.9258043E+01  4.9647177E+02  9.5636535E+01  0.0000000E+00  1.0000000E+00
 23  2  3  3   0   0  1.3864101E+02  4.6537657E+02 -8.2048299E+01  4.9342718E+02  3.0688444E+01  0.0000000E+00  1.0000000E+00
-11  1  4  4   0   0 -1.2791750E+02 -4.3875712E+02  6.0163105E+01  4.6096670E+02  2.6973983E-06  0.0000000E+00  1.0000000E+00
 11  1  4  4   0   0 -1.0723510E+01 -2.6619445E+01 -2.0905062E+01  3.5505072E+01  1.2597890E-05  0.0000000E+00  1.0000000E+00
-13  1  5  5   0   0  1.2596481E+02  4.1454359E+02 -6.3697391E+01  4.3791652E+02  2.0647655E-06  0.0000000E+00  1.0000000E+00
 13  1  5  5   0   0  1.2676204E+01  5.0832976E+01 -1.8350908E+01  5.5510660E+01  1.3110854E-05  0.0000000E+00  1.0000000E+00
</event>
<event>
9 100 1.0000000E+00 1.0000000E+03 7.8125000E-03 0.0000000E+00
 21 -1  0  0 501 502  0.0000000E+00  0.0000000E+00  5.9028264E+02  5.9028264E+02  0.0000000E+00  0.0000000E+00  1.0000000E+00
 21 -1  0  0 502 501  0.0000000E+00  0.0000000E+00 -4.1953614E+02  4.1953614E+02  0.0000000E+00  0.0000000E+00  1.0000000E+00
 39  2  1  2   0   0  2.5579538E-12  4.2632564E-14  1.7074650E+02  1.0098188E+03  9.9527866E+02  0.0000000E+00  1.0000000E+00
 23  2  3  3   0   0  4.8139402E+02  9.7300191E+00  5.9200869E+01  5.0715705E+02  1.4788054E+02  0.0000000E+00  1.0000000E+00
 23  2  3  3   0   0 -4.8139402E+02 -9.7300191E+00  1.1154563E+02  5.0266174E+02  9.1605230E+01  0.0000000E+00  1.0000000E+00
-11  1  4  4   0   0  3.1965549E+02  3.9147223E+01  1.0104407E+02  3.3752340E+02  7.4788986E-06  0.0000000E+00  1.0000000E+00
 11  1  4  4   0   0  1.6173853E+02 -2.9417204E+01 -4.1843200E+01  1.6963365E+02  1.1203137E-05  0.0000000E+00  1.0000000E+00
-13  1  5  5   0   0 -4.6657873E+02  8.4094823E+00  1.0779091E+02  4.7894187E+02  3.5325496E-06  0.0000000E+00  1.0000000E+00
 13  1  5  5   0   0 -1.4815289E+01 -1.8139501E+01  3.7547223E+00  2.3719870E+01  1.9121111E-05  0.0000000E+00  1.0000000E+00
</event>
<event>
9 100 1.0000000E+00 1.0000000E+03 7.8125000E-03 0.0000000E+00
 21 -1  0  0 501 502  0.0000000E+00  0.0000000E+00  5.5308962E+02  5.5308962E+02  0.0000000E+00  0.0000000E+00  1.0000000E+00
 21 -1  0  0 502 501  0.0000000E+00  0.0000000E+00 -4.3987123E+02  4.3987123E+02  0.0000000E+00  0.0000000E+00  1.0000000E+00
 39  2  1  2   0   0 -3.6948222E-13 -2.9842795E-13  1.1321839E+02  9.9296085E+02  9.8648509E+02  0.0000000E+00  1.0000000E+00
 23  2  3  3   0   0 -1.1671106E+02 -9.2771480E+01  5.2105284E+02  5.4960840E+02  9.1352678E+01  0.0000000E+00  1.0000000E+00
 23  2  3  3   0   0  1.1671106E+02  9.2771480E+01 -4.0783445E+02  4.4335245E+02  8.9467530E+01  0.0000000E+00  1.0000000E+00
-11  1  4  4   0   0 -1.2786718E+02 -9.5559116E+01  5.0650956E+02  5.3106826E+02  2.1056559E-06  0.0000000E+00  1.0000000E+00
 11  1  4  4   0   0  1.1156117E+01  2.7876361E+00  1.4543278E+01  1.8540140E+01  2.2243316E-05  0.0000000E+00  1.0000000E+00
-13  1  5  5   0   0  8.5677123E+01  1.2133648E+01 -2.2707774E+02  2.4300637E+02  7.3871295E-06  0.0000000E+00  1.0000000E+00
 13  1  5  5   0   0  3.1033939E+01  8.0637833E+01 -1.8075671E+02  2.0034608E+02  8.9462581E-06  0.0000000E+00  1.0000000E+00
</event>
<event>
9 100 1.0000000E+00 1.0000000E+03 7.8125000E-03 0.0000000E+00
 21 -1  0  0 501 502  0.0000000E+00  0.0000000E+00  2.0025229E+03  2.0025229E+03  0.0000000E+00  0.0000000E+00  1.0000000E+00
 21 -1  0  0 502 501  0.0000000E+00  0.0000000E+00 -1.2716945E+02  1.2716945E+02  0.0000000E+00  0.0000000E+00  1.0000000E+00
 39  2  1  2   0   0  1.4352963E-12  9.4928509E-12  1.8753534E+03  2.1296923E+03  1.0092765E+03  0.0000000E+00  1.0000000E+00
 23  2  3  3   0   0 -6.5562489E+01 -4.2258514E+02  1.4656075E+03  1.5293880E+03  9.0252218E+01  0.0000000E+00  1.0000000E+00
 23  2  3  3   0   0  6.5562489E+01  4.2258514E+02  4.0974592E+02  6.0030439E+02  9.7964295E+01  0.0000000E+00  1.0000000E+00
-11  1  4  4   0   0 -7.6266118E+01 -4.1487260E+02  1.4409415E+03  1.5014154E+03  3.3378601E-06  0.0000000E+00  1.0000000E+00
 11  1  4  4   0   0  1.0703629E+01 -7.7125454E+00  2.4665980E+01  2.7972515E+01  0.0000000E+00  0.0000000E+00  1.0000000E+00
-13  1  5  5   0   0  4.0981376E+01  1.2742855E+02  7.5366379E+01  1.5361511E+02  2.0185481E-05  0.0000000E+00  1.0000000E+00
 13  1  5  5   0   0  2.4581112E+01  2.9515659E+02  3.3437954E+02  4.4668929E+02  8.5299224E-06  0.0000000E+00  1.0000000E+00
</event>
<event>
9 100 1.0000000E+00 1.0000000E+03 7.8125000E-03 0.0000000E+00
 21 -1  0  0 501 502  0.0000000E+00  0.0000000E+00  5.1524146E+02  5.1524146E+02  0.0000000E+00  0.0000000E+00  1.0000000E+00
 21 -1  0  0 502 501  0.0000000E+00  0.0000000E+00 -4.8302851E+02  4.8302851E+02  0.0000000E+00  0.0000000E+00  1.0000000E+00
 39  2  1  2   0   0 -4.6895821E-13 -3.8369308E-13  3.2212943E+01  9.9826997E+02  9.9775010E+02  0.0000000E+00  1.0000000E+00
 23  2  3  3   0   0 -1.0349572E+02 -8.5295383E+01  4.8767682E+02  5.1470046E+02  9.5400274E+01  0.0000000E+00  1.0000000E+00
 23  2  3  3   0   0  1.0349572E+02  8.5295383E+01 -4.5546388E+02  4.8356951E+02  9.1681302E+01  0.0000000E+00  1.0000000E+00
-11  1  4  4   0   0  7.9909913E+00 -2.3240490E+01  2.6255721E+01  3.5963025E+01  1.2063132E-05  0.0000000E+00  1.0000000E+00
 11  1  4  4   0   0 -1.1148671E+02 -6.2054892E+01  4.6142110E+02  4.7873743E+02  1.1680077E-06  0.0000000E+00  1.0000000E+00
-13  1  5  5   0   0 -2.3975343E+00 -4.3189438E-01  3.8049173E+00  4.5179752E+00  1.4273290E-05  0.0000000E+00  1.0000000E+00
 13  1  5  5   0   0  1.0589326E+02  8.5727277E+01 -4.5926880E+02  4.7905154E+02  6.9125971E-07  0.0000000E+00  1.0000000E+00
</event>
<event>
9 100 1.0000000E+00 1.0000000E+03 7.8125000E-03 0.0000000E+00
 21 -1  0  0 501 502  0.0000000E+00  0.0000000E+00  9.2114808E+02  9.2114808E+02  0.0000000E+00  0.0000000E+00  1.0000000E+00
 21 -1  0  0 502 501  0.0000000E+00  0.0000000E+00 -2.7026907E+02  2.7026907E+02  0.0000000E+00  0.0000000E+00  1.0000000E+00
 39  2  1  2   0   0 -3.4106051E-13  7.3896445E-13  6.5087900E+02  1.1914172E+03  9.9791350E+02  0.0000000E+00  1.0000000E+00
 23  2  3  3   0   0  9.5649346E+01 -2.0527658E+02  8.4482183E+02  8.7944354E+02  9.1704686E+01  0.0000000E+00  1.0000000E+00
 23  2  3  3   0   0 -9.5649346E+01  2.0527658E+02 -1.9394282E+02  3.1197361E+02  9.1795657E+01  0.0000000E+00  1.0000000E+00
-11  1  4  4   0   0  1.3487296E+01 -1.6432715E+00  1.1894093E+01  1.8057601E+01  2.1579186E-05  0.0000000E+00  1.0000000E+00
 11  1  4  4   0   0  8.2162050E+01 -2.0363331E+02  8.3292774E+02  8.6138594E+02  8.2590618E-07  0.0000000E+00  1.0000000E+00
-13  1  5  5   0   0  5.9056585E+00  7.5803540E+01 -8.7865185E+01  1.1619529E+02  6.3259598E-06  0.0000000E+00  1.0000000E+00
 13  1  5  5   0   0 -1.0155500E+02  1.2947304E+02 -1.0607764E+02  1.9577832E+02  1.9073486E-06  0.0000000E+00  1.0000000E+00
</event>
<event>
9 100 1.0000000E+00 1.0000000E+03 7.8125000E-03 0.0000000E+00
 21 -1  0  0 501 502  0.0000000E+00  0.0000000E+00  1.0774835E+03  1.0774835E+03  0.0000000E+00  0.0000000E+00  1.0000000E+00
 21 -1  0  0 502 501  0.0000000E+00  0.0000000E+00 -2.3334365E+02  2.3334365E+02  0.0000000E+00  0.0000000E+00  1.0000000E+00
 39  2  1  2   0   0 -5.6843419E-14  2.8421709E-13  8.4413982E+02  1.3108271E+03  1.0028438E+03  0.0000000E+00  1.0000000E+00
 23  2  3  3   0   0 -2.4566303E+02  4.2642287E+02  4.2696955E+02  6.5873518E+02  9.7171283E+01  0.0000000E+00  1.0000000E+00
 23  2  3  3   0   0  2.4566303E+02 -4.2642287E+02  4.1717028E+02  6.5209195E+02  9.4900379E+01  0.0000000E+00  1.0000000E+00
-11  1  4  4   0   0  4.5252832E+00  5.3213192E+00 -2.3818034E+00  7.3802177E+00  1.9451216E-05  0.0000000E+00  1.0000000E+00
 11  1  4  4   0   0 -2.5018831E+02  4.2110155E+02  4.2935135E+02  6.5135496E+02  1.5269147E-06  0.0000000E+00  1.0000000E+00
-13  1  5  5   0   0  2.2785761E+02 -3.1960195E+02  3.3731969E+02  5.1754137E+02  2.8610229E-06  0.0000000E+00  1.0000000E+00
 13  1  5  5   0   0  1.7805417E+01 -1.0682092E+02  7.9850590E+01  1.3455058E+02  1.8688124E-05  0.0000000E+00  1.0000000E+00
</event>
<event>
9 100 1.0000000E+00 1.0000000E+03 7.8125000E-03 0.0000000E+00
 21 -1  0  0 501 502  0.0000000E+00  0.0000000E+00  2.8271377E+02  2.8271377E+02  0.0000000E+00  0.0000000E+00  1.0000000E+00
 21 -1  0  0 502 501  0.0000000E+00  0.0000000E+00 -8.8927830E+02  8.8927830E+02  0.0000000E+00  0.0000000E+00  1.0000000E+00
 39  2  1  2   0   0  1.9895197E-12 -1.4779289E-12 -6.0656454E+02  1.1719921E+03  1.0028185E+03  0.0000000E+00  1.0000000E+00
 23  2  3  3   0   0 -3.4282549E+02  2.6570198E+02 -2.9733109E+01  4.4445209E+02  9.2340355E+01  0.0000000E+00  1.0000000E+00
 23  2  3  3   0   0  3.4282549E+02 -2.6570198E+02 -5.7683143E+02  7.2753999E+02  9.1940620E+01  0.0000000E+00  1.0000000E+00
-11  1  4  4   0   0 -4.8530106E+01  7.0347765E+01 -3.1873056E+01  9.1213327E+01  1.5282083E-05  0.0000000E+00  1.0000000E+00
 11  1  4  4   0   0 -2.9429539E+02  1.9535421E+02  2.1399468E+00  3.5323876E+02  6.3169676E-06  0.0000000E+00  1.0000000E+00
-13  1  5  5   0   0 -3.0748957E+00 -1.1048281E+01 -5.3978596E+00  1.2675030E+01  2.4126264E-05  0.0000000E+00  1.0000000E+00
 13  1  5  5   0   0  3.4590039E+02 -2.5465370E+02 -5.7143357E+02  7.1486496E+02  7.7256449E-07  0.0000000E+00  1.0000000E+00
</event>
<event>
9 100 1.0000000E+00 1.0000000E+03 7.8125000E-03 0.0000000E+00
 21 -1  0  0 501 502  0.0000000E+00  0.0000000E+00  4.3944568E+02  4.3944568E+02  0.0000000E+00  0.0000000E+00  1.0000000E+00
 21 -1  0  0 502 501  0.0000000E+00  0.0000000E+00 -5.4248654E+02  5.4248654E+02  0.0000000E+00  0.0000000E+00  1.0000000E+00
 39  2  1  2   0   0  6.8212103E-13 -1.5347723E-12 -1.0304087E+02  9.8193222E+02  9.7651086E+02  0.0000000E+00  1.0000000E+00
 23  2  3  3   0   0  1.2028700E+02 -2.7847910E+02 -4.2509620E+02  5.2982127E+02  8.9354524E+01  0.0000000E+00  1.0000000E+00
 23  2  3  3   0   0 -1.2028700E+02  2.7847910E+02  3.2205533E+02  4.5211095E+02  9.3086527E+01  0.0000000E+00  1.0000000E+00
-11  1  4  4   0   0 -9.9425159E+00 -3.0710793E+01 -7.4508435E+01  8.1200451E+01  1.0789593E-05  0.0000000E+00  1.0000000E+00
 11  1  4  4   0   0  1.3022952E+02 -2.4776830E+02 -3.5058776E+02  4.4862082E+02  3.0157830E-06  0.0000000E+00  1.0000000E+00
-13  1  5  5   0   0 -1.1693991E+02  2.0949031E+02  2.0212274E+02  3.1371123E+02  8.6358882E-06  0.0000000E+00  1.0000000E+00
 13  1  5  5   0   0 -3.3470954E+00  6.8988785E+01  1.1993259E+02  1.3839972E+02  1.5495374E-05  0.0000000E+00  1.0000000E+00
</event>
<event>
9 100 1.0000000E+00 1.0000000E+03 7.8125000E-03 0.0000000E+00
 21 -1  0  0 501 502  0.0000000E+00  0.0000000E+00  5.7307492E+02  5.7307492E+02  0.0000000E+00  0.0000000E+00  1.0000000E+00
 21 -1  0  0 502 501  0.0000000E+00  0.0000000E+00 -4.3516774E+02  4.3516774E+02  0.0000000E+00  0.0000000E+00  1.0000000E+00
 39  2  1  2   0   0 -4.5474735E-13 -3.4106051E-13  1.3790718E+02  1.0082427E+03  9.9876667E+02  0.0000000E+00  1.0000000E+00
 23  2  3  3   0   0  2.4030714E+02  1.7934715E+02  4.6138486E+02  5.5773555E+02  9.0994688E+01  0.0000000E+00  1.0000000E+00
 23  2  3  3   0   0 -2.4030714E+02 -1.7934715E+02 -3.2347768E+02  4.5050711E+02  9.1683826E+01  0.0000000E+00  1.0000000E+00
-11  1  4  4   0   0 -3.1442059E+00  8.3232966E+00  1.8699716E-01  8.8993407E+00  1.4273290E-05  0.0000000E+00  1.0000000E+00
 11  1  4  4   0   0  2.4345134E+02  1.7102385E+02  4.6119786E+02  5.4883621E+02  8.5341270E-07  0.0000000E+00  1.0000000E+00
-13  1  5  5   0   0 -6.1400748E+01 -7.0773660E+01 -1.5808925E+02  1.8376935E+02  4.2649612E-06  0.0000000E+00  1.0000000E+00
 13  1  5  5   0   0 -1.7890639E+02 -1.0857349E+02 -1.6538843E+02  2.6673776E+02  0.0000000E+00  0.0000000E+00  1.0000000E+00
</event>
<event>
9 100 1.0000000E+00 1.0000000E+03 7.8125000E-03 0.0000000E+00
 21 -1  0  0 501 502  0.0000000E+00  0.0000000E+00  1.0175321E+03  1.0175321E+03  0.0000000E+00  0.0000000E+00  1.0000000E+00
 21 -1  0  0 502 501  0.0000000E+00  0.0000000E+00 -2.4740353E+02  2.4740353E+02  0.0000000E+00  0.0000000E+00  1.0000000E+00
 39  2  1  2   0   0 -3.2400749E-12 -3.6948222E-13  7.7012856E+02  1.2649356E+03  1.0034760E+03  0.0000000E+00  1.0000000E+00
 23  2  3  3   0   0 -4.0974650E+02 -4.6842139E+01  7.2690422E+02  8.4060976E+02  9.0269825E+01  0.0000000E+00  1.0000000E+00
 23  2  3  3   0   0  4.0974650E+02  4.6842139E+01  4.3224332E+01  4.2432585E+02  8.9987264E+01  0.0000000E+00  1.0000000E+00
-11  1  4  4   0   0 -2.2701981E+02 -2.8761848E+01  4.9066042E+02  5.4139901E+02  8.0921949E-06  0.0000000E+00  1.0000000E+00
 11  1  4  4   0   0 -1.8272669E+02 -1.8080291E+01  2.3624380E+02  2.9921075E+02  1.5258789E-05  0.0000000E+00  1.0000000E+00
-13  1  5  5   0   0  2.2591789E+02  1.6088823E+01  6.7581496E+01  2.3635778E+02  8.0992163E-06  0.0000000E+00  1.0000000E+00
 13  1  5  5   0   0  1.8382861E+02  3.0753316E+01 -2.4357164E+01  1.8796807E+02  9.1473227E-06  0.0000000E+00  1.0000000E+00
</event>
<event>
9 100 1.0000000E+00 1.0000000E+03 7.8125000E-03 0.0000000E+00
 21 -1  0  0 501 502  0.0000000E+00  0.0000000E+00  4.6792908E+02  4.6792908E+02  0.0000000E+00  0.0000000E+00  1.0000000E+00
 21 -1  0  0 502 501  0.0000000E+00  0.0000000E+00 -5.4227040E+02  5.4227040E+02  0.0000000E+00  0.0000000E+00  1.0000000E+00
 39  2  1  2   0   0 -4.5474735E-13  2.2737368E-13 -7.4341321E+01  1.0101995E+03  1.0074604E+03  0.0000000E+00  1.0000000E+00
 23  2  3  3   0   0 -4.1161810E+02  2.0541725E+02  1.1706523E+02  4.8317609E+02  9.0161855E+01  0.0000000E+00  1.0000000E+00
 23  2  3  3   0   0  4.1161810E+02 -2.0541725E+02 -1.9140655E+02  5.2702339E+02  1.7173085E+02  0.0000000E+00  1.0000000E+00
-11  1  4  4   0   0 -2.0791436E+02  1.3595055E+02  9.8221704E+01  2.6713000E+02  7.2668794E-06  0.0000000E+00  1.0000000E+00
 11  1  4  4   0   0 -2.0370373E+02  6.9466702E+01  1.8843527E+01  2.1604609E+02  1.0002221E-05  0.0000000E+00  1.0000000E+00
-13  1  5  5   0   0  9.7153125E+01 -4.1121440E+01 -1.2922234E+02  1.6681761E+02  1.3869323E-05  0.0000000E+00  1.0000000E+00
 13  1  5  5   0   0  3.1446497E+02 -1.6429581E+02 -6.2184217E+01  3.6020579E+02  8.3139399E-06  0.0000000E+00  1.0000000E+00
</event>
<event>
9 100 1.0000000E+00 1.0000000E+03 7.8125000E-03 0.0000000E+00
 21 -1  0  0 501 502  0.0000000E+00  0.0000000E+00  3.7443912E+02  3.7443912E+02  0.0000000E+00  0.0000000E+00  1.0000000E+00
 21 -1  0  0 502 501  0.0000000E+00  0.0000000E+00 -6.6499945E+02  6.6499945E+02  0.0000000E+00  0.0000000E+00  1.0000000E+00
 39  2  1  2   0   0  2.1316282E-14  8.5265128E-14 -2.9056033E+02  1.0394386E+03  9.9800162E+02  0.0000000E+00  1.0000000E+00
 23  2  3  3   0   0  4.6623277E+01  1.3341949E+02 -6.3432618E+02  6.5646914E+02  9.2776849E+01  0.0000000E+00  1.0000000E+00
 23  2  3  3   0   0 -4.6623277E+01 -1.3341949E+02  3.4376585E+02  3.8296943E+02  9.2282906E+01  0.0000000E+00  1.0000000E+00
-11  1  4  4   0   0 -3.6058693E+00  1.0658093E+02 -4.8653394E+02  4.9808411E+02  6.0315660E-06  0.0000000E+00  1.0000000E+00
 11  1  4  4   0   0  5.0229146E+01  2.6838559E+01 -1.4779223E+02  1.5838503E+02  1.4273290E-05  0.0000000E+00  1.0000000E+00
-13  1  5  5   0   0 -2.8696554E+01 -1.0584225E+02  3.2922122E+02  3.4700531E+02  2.5898887E-06  0.0000000E+00  1.0000000E+00
 13  1  5  5   0   0 -1.7926723E+01 -2.7577239E+01  1.4544627E+01  3.5964117E+01  1.7892516E-05  0.0000000E+00  1.0000000E+00
</event>
<event>
9 100 1.0000000E+00 1.0000000E+03 7.8125000E-03 0.0000000E+00
 21 -1  0  0 501 502  0.0000000E+00  0.0000000E+00  1.2136824E+02  1.2136824E+02  0.0000000E+00  0.0000000E+00  1.0000000E+00
 21 -1  0  0 502 501  0.0000000E+00  0.0000000E+00 -2.0689504E+03  2.0689504E+03  0.0000000E+00  0.0000000E+00  1.0000000E+00
 39  2  1  2   0   0  1.3073986E-12  2.0463631E-12 -1.9475822E+03  2.1903186E+03  1.0022073E+03  0.0000000E+00  1.0000000E+00
 23  2  3  3   0   0 -2.7442599E+02 -3.9594326E+02 -1.2002199E+03  1.2965293E+03  9.1539825E+01  0.0000000E+00  1.0000000E+00
 23  2  3  3   0   0  2.7442599E+02  3.9594326E+02 -7.4736223E+02  8.9378939E+02  9.0711000E+01  0.0000000E+00  1.0000000E+00
-11  1  4  4   0   0 -4.8846671E+01 -9.2349303E+01 -1.7558124E+02  2.0431144E+02  5.2857996E-05  0.0000000E+00  1.0000000E+00
 11  1  4  4   0   0 -2.2557932E+02 -3.0359396E+02 -1.0246387E+03  1.0922178E+03  9.3440618E-06  0.0000000E+00  1.0000000E+00
-13  1  5  5   0   0  1.8673774E+02  3.2282710E+02 -5.2710259E+02  6.4569765E+02  7.6293945E-06  0.0000000E+00  1.0000000E+00
 13  1  5  5   0   0  8.7688248E+01  7.3116165E+01 -2.2025964E+02  2.4809174E+02  2.0185481E-05  0.0000000E+00  1.0000000E+00
</event>
<event>
9 100 1.0000000E+00 1.0000000E+03 7.8125000E-03 0.0000000E+00
 21 -1  0  0 501 502  0.0000000E+00  0.0000000E+00  3.6529562E+02  3.6529562E+02  0.0000000E+00  0.0000000E+00  1.0000000E+00
 21 -1  0  0 502 501  0.0000000E+00  0.0000000E+00 -6.6309010E+02  6.6309010E+02  0.0000000E+00  0.0000000E+00  1.0000000E+00
 39  2  1  2   0   0  1.0800250E-12 -9.6633812E-13 -2.9779448E+02  1.0283857E+03  9.8432496E+02  0.0000000E+00  1.0000000E+00
 23  2  3  3   0   0  3.1399070E+02 -3.1093646E+02 -3.5458974E+02  5.7357043E+02  8.9316917E+01  0.0000000E+00  1.0000000E+00
 23  2  3  3   0   0 -3.1399070E+02  3.1093646E+02  5.6795261E+01  4.5481529E+02  9.1430907E+01  0.0000000E+00  1.0000000E+00
-11  1  4  4   0   0  1.2807222E+02 -1.8238961E+02 -2.0260667E+02  3.0119417E+02  1.0446979E-05  0.0000000E+00  1.0000000E+00
 11  1  4  4   0   0  1.8591848E+02 -1.2854684E+02 -1.5198307E+02  2.7237626E+02  9.7256079E-06  0.0000000E+00  1.0000000E+00
-13  1  5  5   0   0 -2.7192583E+02  2.2062407E+02  2.8923930E+01  3.5136197E+02  5.1797774E-06  0.0000000E+00  1.0000000E+00
 13  1  5  5   0   0 -4.2064871E+01  9.0312382E+01  2.7871331E+01  1.0345333E+02  1.0137697E-05  0.0000000E+00  1.0000000E+00
</event>
<event>
9 100 1.0000000E+00 1.0000000E+03 7.8125000E-03 0.0000000E+00
 21 -1  0  0 501 502  0.0000000E+00  0.0000000E+00  1.0069869E+03  1.0069869E+03  0.0000000E+00  0.0000000E+00  1.0000000E+00
 21 -1  0  0 502 501  0.0000000E+00  0.0000000E+00 -2.4976515E+02  2.4976515E+02  0.0000000E+00  0.0000000E+00  1.0000000E+00
 39  2  1  2   0   0 -1.7053026E-13  1.7053026E-13  7.5722174E+02  1.2567520E+03  1.0030159E+03  0.0000000E+00  1.0000000E+00
 23  2  3  3   0   0  2.2315574E+02 -3.9243348E+02  6.2318761E+02  7.7495382E+02  9.1586619E+01  0.0000000E+00  1.0000000E+00
 23  2  3  3   0   0 -2.2315574E+02  3.9243348E+02  1.3403414E+02  4.8179822E+02  1.0179317E+02  0.0000000E+00  1.0000000E+00
-11  1  4  4   0   0  7.9797007E+01 -6.5086373E+01  1.5137337E+02  1.8307838E+02  5.3947966E-06  0.0000000E+00  1.0000000E+00
 11  1  4  4   0   0  1.4335873E+02 -3.2734711E+02  4.7181424E+02  5.9187544E+02  1.9073486E-06  0.0000000E+00  1.0000000E+00
-13  1  5  5   0   0 -1.2696864E+02  1.7844191E+02  1.1246676E+02  2.4619367E+02  2.8610229E-06  0.0000000E+00  1.0000000E+00
 13  1  5  5   0   0 -9.6187096E+01  2.1399157E+02  2.1567380E+01  2.3560455E+02  3.8146973E-06  0.0000000E+00  1.0000000E+00
</event>
<event>
9 100 1.0000000E+00 1.0000000E+03 7.8125000E-03 0.0000000E+00
 21 -1  0  0 501 502  0.0000000E+00  0.0000000E+00  4.3764556E+02  4.3764556E+02  0.0000000E+00  0.0000000E+00  1.0000000E+00
 21 -1  0  0 502 501  0.0000000E+00  0.0000000E+00 -5.6251788E+02  5.6251788E+02  0.0000000E+00  0.0000000E+00  1.0000000E+00
 39  2  1  2   0   0 -4.5474735E-13  7.8159701E-14 -1.2487232E+02  1.0001634E+03  9.9233755E+02  0.0000000E+00  1.0000000E+00
 23  2  3  3   0   0  2.7235531E+02 -4.0528082E+01 -4.6907126E+02  5.5168664E+02  9.2251658E+01  0.0000000E+00  1.0000000E+00
 23  2  3  3   0   0 -2.7235531E+02  4.0528082E+01  3.4419894E+02  4.4847679E+02  8.2695737E+01  0.0000000E+00  1.0000000E+00
-11  1  4  4   0   0 -6.5195497E+00  2.9747847E+00 -2.0389007E+01  2.1611697E+01  5.3947966E-06  0.0000000E+00  1.0000000E+00
 11  1  4  4   0   0  2.7887486E+02 -4.3502867E+01 -4.4868225E+02  5.3007495E+02  1.6689301E-06  0.0000000E+00  1.0000000E+00
-13  1  5  5   0   0  1.9871828E-01 -4.2180853E+00 -2.7290531E+00  5.0278687E+00  5.3947966E-06  0.0000000E+00  1.0000000E+00
 13  1  5  5   0   0 -2.7255403E+02  4.4746167E+01  3.4692799E+02  4.4344892E+02  4.4203988E-07  0.0000000E+00  1.0000000E+00
</event>
<event>
9 100 1.0000000E+00 1.0000000E+03 7.8125000E-03 0.0000000E+00
 21 -1  0  0 501 502  0.0000000E+00  0.0000000E+00  2.7753012E+03  2.7753012E+03  0.0000000E+00  0.0000000E+00  1.0000000E+00
 21 -1  0  0 502 501  0.0000000E+00  0.0000000E+00 -8.6149482E+01  8.6149482E+01  0.0000000E+00  0.0000000E+00  1.0000000E+00
 39  2  1  2   0   0 -1.6200374E-12 -3.1263880E-12  2.6891517E+03  2.8614507E+03  9.7793816E+02  0.0000000E+00  1.0000000E+00
 23  2  3  3   0   0  2.0488183E+02  4.0657127E+02  1.7924093E+03  1.8516216E+03  9.2165572E+01  0.0000000E+00  1.0000000E+00
 23  2  3  3   0   0 -2.0488183E+02 -4.0657127E+02  8.9674238E+02  1.0098291E+03  9.1275130E+01  0.0000000E+00  1.0000000E+00
-11  1  4  4   0   0  1.4514915E+02  2.0913556E+02  8.7316263E+02  9.0951577E+02  1.0789593E-05  0.0000000E+00  1.0000000E+00
 11  1  4  4   0   0  5.9732680E+01  1.9743571E+02  9.1924672E+02  9.4210582E+02  2.8546580E-05  0.0000000E+00  1.0000000E+00
-13  1  5  5   0   0 -6.7525380E+01 -8.7414818E+01  2.9462860E+02  3.1465384E+02  3.2368780E-05  0.0000000E+00  1.0000000E+00
 13  1  5  5   0   0 -1.3735645E+02 -3.1915645E+02  6.0211379E+02  6.9517526E+02  1.9451216E-05  0.0000000E+00  1.0000000E+00
</event>
<event>
9 100 1.0000000E+00 1.0000000E+03 7.8125000E-03 0.0000000E+00
 21 -1  0  0 501 502  0.0000000E+00  0.0000000E+00  2.5496190E+02  2.5496190E+02  0.0000000E+00  0.0000000E+00  1.0000000E+00
 21 -1  0  0 502 501  0.0000000E+00  0.0000000E+00 -9.7614075E+02  9.7614075E+02  0.0000000E+00  0.0000000E+00  1.0000000E+00
 39  2  1  2   0   0  1.3358203E-12 -7.1054274E-13 -7.2117884E+02  1.2311026E+03  9.9775488E+02  0.0000000E+00  1.0000000E+00
 23  2  3  3   0   0  2.1244471E+02 -1.1188706E+02 -8.8813781E+02  9.2487635E+02  9.4636257E+01  0.0000000E+00  1.0000000E+00
 23  2  3  3   0   0 -2.1244471E+02  1.1188706E+02  1.6695897E+02  3.0622630E+02  9.0817296E+01  0.0000000E+00  1.0000000E+00
-11  1  4  4   0   0  1.6302159E+01 -3.7117262E+01 -2.4550274E+02  2.4882735E+02  0.0000000E+00  0.0000000E+00  1.0000000E+00
 11  1  4  4   0   0  1.9614256E+02 -7.4769796E+01 -6.4263506E+02  6.7604900E+02  3.8146973E-06  0.0000000E+00  1.0000000E+00
-13  1  5  5   0   0 -1.2711843E+02  8.1827574E+01  1.5227654E+02  2.1457631E+02  7.2335584E-06  0.0000000E+00  1.0000000E+00
 13  1  5  5   0   0 -8.5326286E+01  3.0059484E+01  1.4682423E+01  9.1649993E+01  1.2651920E-05  0.0000000E+00  1.0000000E+00
</event>
<event>
9 100 1.0000000E+00 1.0000000E+03 7.8125000E-03 0.0000000E+00
 21 -1  0  0 501 502  0.0000000E+00  0.0000000E+00  3.8627712E+02  3.8627712E+02  0.0000000E+00  0.0000000E+00  1.0000000E+00
 21 -1  0  0 502 501  0.0000000E+00  0.0000000E+00 -6.4382808E+02  6.4382808E+02  0.0000000E+00  0.0000000E+00  1.0000000E+00
 39  2  1  2   0   0  7.1054274E-14 -3.1263880E-13 -2.5755096E+02  1.0301052E+03  9.9738870E+02  0.0000000E+00  1.0000000E+00
 23  2  3  3   0   0 -3.4924450E+01  1.3394851E+02 -6.1432139E+02  6.3629769E+02  9.1225311E+01  0.0000000E+00  1.0000000E+00
 23  2  3  3   0   0  3.4924450E+01 -1.3394851E+02  3.5677043E+02  3.9380750E+02  9.2936997E+01  0.0000000E+00  1.0000000E+00
-11  1  4  4   0   0  2.2228787E+01  2.0495239E+01 -2.1871325E+02  2.2079325E+02  1.2063132E-05  0.0000000E+00  1.0000000E+00
 11  1  4  4   0   0 -5.7153238E+01  1.1345327E+02 -3.9560814E+02  4.1550444E+02  8.0921949E-06  0.0000000E+00  1.0000000E+00
-13  1  5  5   0   0  2.2528932E+01 -1.4238548E+02  2.7317773E+02  3.0888064E+02  0.0000000E+00  0.0000000E+00  1.0000000E+00
 13  1  5  5   0   0  1.2395518E+01  8.4369739E+00  8.3592700E+01  8.4926856E+01  5.3947966E-06  0.0000000E+00  1.0000000E+00
</event>
<event>
9 100 1.0000000E+00 1.0000000E+03 7.8125000E-03 0.0000000E+00
 21 -1  0  0 501 502  0.0000000E+00  0.0000000E+00  3.5043333E+02  3.5043333E+02  0.0000000E+00  0.0000000E+00  1.0000000E+00
 21 -1  0  0 502 501  0.0000000E+00  0.0000000E+00 -7.1857870E+02  7.1857870E+02  0.0000000E+00  0.0000000E+00  1.0000000E+00
 39  2  1  2   0   0 -2.5579538E-13  3.9790393E-13 -3.6814537E+02  1.0690120E+03  1.0036213E+03  0.0000000E+00  1.0000000E+00
 23  2  3  3   0   0 -2.4777750E+02  3.5639710E+02 -4.3460960E+02  6.2100715E+02  9.1388130E+01  0.0000000E+00  1.0000000E+00
 23  2  3  3   0   0  2.4777750E+02 -3.5639710E+02  6.6464231E+01  4.4800487E+02  8.8759701E+01  0.0000000E+00  1.0000000E+00
-11  1  4  4   0   0 -5.8250495E+01  9.4320313E+01 -5.9848525E+01  1.2598130E+02  1.2063132E-05  0.0000000E+00  1.0000000E+00
 11  1  4  4   0   0 -1.8952701E+02  2.6207679E+02 -3.7476108E+02  4.9502585E+02  5.0912277E-06  0.0000000E+00  1.0000000E+00
-13  1  5  5   0   0  7.4357601E+01 -1.0844845E+02 -2.0727106E+01  1.3311548E+02  1.0704968E-05  0.0000000E+00  1.0000000E+00
 13  1  5  5   0   0  1.7341990E+02 -2.4794866E+02  8.7191337E+01  3.1488939E+02  5.6470486E-06  0.0000000E+00  1.0000000E+00
</event>
<event>
9 100 1.0000000E+00 1.0000000E+03 7.8125000E-03 0.0000000E+00
 21 -1  0  0 501 502  0.0000000E+00  0.0000000E+00  1.8478203E+02  1.8478203E+02  0.0000000E+00  0.0000000E+00  1.0000000E+00
 21 -1  0  0 502 501  0.0000000E+00  0.0000000E+00 -1.3397380E+03  1.3397380E+03  0.0000000E+00  0.0000000E+00  1.0000000E+00
 39  2  1  2   0   0 -2.3874236E-12  3.0979663E-12 -1.1549560E+03  1.5245200E+03  9.9510706E+02  0.0000000E+00  1.0000000E+00
 23  2  3  3   0   0  1.9254179E+02 -2.5240706E+02 -7.6024634E+00  3.3020630E+02  9.0535858E+01  0.0000000E+00  1.0000000E+00
 23  2  3  3   0   0 -1.9254179E+02  2.5240706E+02 -1.1473535E+03  1.1943137E+03  9.5830923E+01  0.0000000E+00  1.0000000E+00
-11  1  4  4   0   0  9.7738362E+01 -6.0504450E+01 -1.5658974E+01  1.1601198E+02  1.3550589E-05  0.0000000E+00  1.0000000E+00
 11  1  4  4   0   0  9.4803425E+01 -1.9190261E+02  8.0565108E+00  2.1419432E+02  7.6572832E-06  0.0000000E+00  1.0000000E+00
-13  1  5  5   0   0 -1.2224928E+02  2.0102138E+02 -6.9752491E+02  7.3613550E+02  2.0185481E-05  0.0000000E+00  1.0000000E+00
 13  1  5  5   0   0 -7.0292503E+01  5.1385682E+01 -4.4982860E+02  4.5817823E+02  2.2888184E-05  0.0000000E+00  1.0000000E+00
</event>
<event>
9 100 1.0000000E+00 1.0000000E+03 7.8125000E-03 0.0000000E+00
 21 -1  0  0 501 502  0.0000000E+00  0.0000000E+00  2.7015165E+02  2.7015165E+02  0.0000000E+00  0.0000000E+00  1.0000000E+00
 21 -1  0  0 502 501  0.0000000E+00  0.0000000E+00 -9.2073919E+02  9.2073919E+02  0.0000000E+00  0.0000000E+00  1.0000000E+00
 39  2  1  2   0   0  1.9895197E-13  3.4106051E-13 -6.5058753E+02  1.1908908E+03  9.9747524E+02  0.0000000E+00  1.0000000E+00
 23  2  3  3   0   0  2.1699044E+02  2.3571428E+02 -7.6860313E+02  8.3773315E+02  9.1651402E+01  0.0000000E+00  1.0000000E+00
 23  2  3  3   0   0 -2.1699044E+02 -2.3571428E+02  1.1801560E+02  3.5315769E+02  9.0258525E+01  0.0000000E+00  1.0000000E+00
-11  1  4  4   0   0  1.2930511E+02  1.2701955E+02 -3.1852089E+02  3.6648239E+02  1.6184390E-05  0.0000000E+00  1.0000000E+00
 11  1  4  4   0   0  8.7685326E+01  1.0869473E+02 -4.5008224E+02  4.7125076E+02  1.0789593E-05  0.0000000E+00  1.0000000E+00
-13  1  5  5   0   0 -2.2471458E+01 -2.0008262E+01 -1.5080707E+01  3.3655975E+01  1.0619668E-05  0.0000000E+00  1.0000000E+00
 13  1  5  5   0   0 -1.9451898E+02 -2.1570602E+02  1.3309631E+02  3.1950172E+02  2.3602235E-06  0.0000000E+00  1.0000000E+00
</event>
<event>
9 100 1.0000000E+00 1.0000000E+03 7.8125000E-03 0.0000000E+00
 21 -1  0  0 501 502  0.0000000E+00  0.0000000E+00  2.7655454E+02  2.7655454E+02  0.0000000E+00  0.0000000E+00  1.0000000E+00
 21 -1  0  0 502 501  0.0000000E+00  0.0000000E+00 -9.2821027E+02  9.2821027E+02  0.0000000E+00  0.0000000E+00  1.0000000E+00
 39  2  1  2   0   0  5.8264504E-13 -2.5295321E-12 -6.5165573E+02  1.2047648E+03  1.0133129E+03  0.0000000E+00  1.0000000E+00
 23  2  3  3   0   0 -5.5882951E+01  2.4344138E+02  1.8683316E+02  3.2503767E+02  9.1412493E+01  0.0000000E+00  1.0000000E+00
 23  2  3  3   0   0  5.5882951E+01 -2.4344138E+02 -8.3848889E+02  8.7972714E+02  9.2030472E+01  0.0000000E+00  1.0000000E+00
-11  1  4  4   0   0  2.2617331E+00  8.8681140E+00 -9.8499909E+00  1.3445490E+01  1.3754087E-05  0.0000000E+00  1.0000000E+00
 11  1  4  4   0   0 -5.8144684E+01  2.3457327E+02  1.9668315E+02  3.1159218E+02  2.1883917E-06  0.0000000E+00  1.0000000E+00
-13  1  5  5   0   0 -1.8873325E+00 -1.4527914E+01 -8.7732012E+00  1.7076046E+01  0.0000000E+00  0.0000000E+00  1.0000000E+00
 13  1  5  5   0   0  5.7770283E+01 -2.2891347E+02 -8.2971569E+02  8.6265109E+02  1.2839233E-06  0.0000000E+00  1.0000000E+00
</event>
<event>
9 100 1.0000000E+00 1.0000000E+03 7.8125000E-03 0.0000000E+00
 21 -1  0  0 501 502  0.0000000E+00  0.0000000E+00  3.4056853E+02  3.4056853E+02  0.0000000E+00  0.0000000E+00  1.0000000E+00
 21 -1  0  0 502 501  0.0000000E+00  0.0000000E+00 -7.2793136E+02  7.2793136E+02  0.0000000E+00  0.0000000E+00  1.0000000E+00
 39  2  1  2   0   0 -1.9895197E-13 -4.5474735E-13 -3.8736283E+02  1.0684999E+03  9.9581226E+02  0.0000000E+00  1.0000000E+00
 23  2  3  3   0   0  2.0052379E+02  4.0637727E+02  3.9801277E+00  4.6291279E+02  9.4446478E+01  0.0000000E+00  1.0000000E+00
 23  2  3  3   0   0 -2.0052379E+02 -4.0637727E+02 -3.9134296E+02  6.0558710E+02  9.0742185E+01  0.0000000E+00  1.0000000E+00
-11  1  4  4   0   0  1.8771066E+02  3.1745083E+02  2.8165369E+01  3.6986972E+02  3.0345731E-06  0.0000000E+00  1.0000000E+00
 11  1  4  4   0   0  1.2813133E+01  8.8926435E+01 -2.4185241E+01  9.3043071E+01  4.6841819E-06  0.0000000E+00  1.0000000E+00
-13  1  5  5   0   0 -2.0854056E+02 -3.7483789E+02 -3.5489314E+02  5.5672412E+02  2.6973983E-06  0.0000000E+00  1.0000000E+00
 13  1  5  5   0   0  8.0167648E+00 -3.1539381E+01 -3.6449819E+01  4.8862975E+01  6.6072495E-06  0.0000000E+00  1.0000000E+00
</event>
<event>
9 100 1.0000000E+00 1.0000000E+03 7.8125000E-03 0.0000000E+00
 21 -1  0  0 501 502  0.0000000E+00  0.0000000E+00  1.7384077E+03  1.7384077E+03  0.0000000E+00  0.0000000E+00  1.0000000E+00
 21 -1  0  0 502 501  0.0000000E+00  0.0000000E+00 -1.5288841E+03  1.5288841E+03  0.0000000E+00  0.0000000E+00  1.0000000E+00
 39  2  1  2   0   0 -1.1368684E-13 -5.6843419E-14  2.0952364E+02  3.2672918E+03  3.2605667E+03  0.0000000E+00  1.0000000E+00
 23  2  3  3   0   0  5.7512323E+02  4.0341570E+02  1.5758110E+03  1.7283057E+03  1.0173078E+02  0.0000000E+00  1.0000000E+00
 23  2  3  3   0   0 -5.7512323E+02 -4.0341570E+02 -1.3662874E+03  1.5389861E+03  9.0697042E+01  0.0000000E+00  1.0000000E+00
-11  1  4  4   0   0  3.0265717E+02  1.8164225E+02  8.9746553E+02  9.6438563E+02  2.4126264E-05  0.0000000E+00  1.0000000E+00
 11  1  4  4   0   0  2.7246606E+02  2.2177345E+02  6.7834551E+02  7.6392006E+02  3.2368780E-05  0.0000000E+00  1.0000000E+00
-13  1  5  5   0   0 -1.7397683E+02 -8.3785730E+01 -3.2021221E+02  3.7393027E+02  4.3158373E-05  0.0000000E+00  1.0000000E+00
 13  1  5  5   0   0 -4.0114639E+02 -3.1962997E+02 -1.0460752E+03  1.1650558E+03  1.7059845E-05  0.0000000E+00  1.0000000E+00
</event>
<event>
9 100 1.0000000E+00 1.0000000E+03 7.8125000E-03 0.0000000E+00
 21 -1  0  0 501 502  0.0000000E+00  0.0000000E+00  2.9585378E+02  2.9585378E+02  0.0000000E+00  0.0000000E+00  1.0000000E+00
 21 -1  0  0 502 501  0.0000000E+00  0.0000000E+00 -8.0794548E+02  8.0794548E+02  0.0000000E+00  0.0000000E+00  1.0000000E+00
 39  2  1  2   0   0 -2.4726887E-12  1.2363444E-12 -5.1209170E+02  1.1037993E+03  9.7782150E+02  0.0000000E+00  1.0000000E+00
 23  2  3  3   0   0  2.2769554E+02 -1.1435781E+02  2.0386963E+02  3.3840860E+02  8.9635853E+01  0.0000000E+00  1.0000000E+00
 23  2  3  3   0   0 -2.2769554E+02  1.1435781E+02 -7.1596133E+02  7.6539066E+02  9.1100307E+01  0.0000000E+00  1.0000000E+00
-11  1  4  4   0   0  1.0780802E+02 -6.2291610E+00  7.0112355E+01  1.2875214E+02  5.3947966E-06  0.0000000E+00  1.0000000E+00
 11  1  4  4   0   0  1.1988753E+02 -1.0812865E+02  1.3375727E+02  2.0965646E+02  2.3360155E-06  0.0000000E+00  1.0000000E+00
-13  1  5  5   0   0 -4.2935938E+00  7.9800870E+00 -1.3599298E+00  9.1633042E+00  1.3214499E-05  0.0000000E+00  1.0000000E+00
 13  1  5  5   0   0 -2.2340195E+02  1.0637772E+02 -7.1460140E+02  7.5622736E+02  7.9801249E-07  0.0000000E+00  1.0000000E+00
</event>
<event>
9 100 1.0000000E+00 1.0000000E+03 7.8125000E-03 0.0000000E+00
 21 -1  0  0 501 502  0.0000000E+00  0.0000000E+00  2.7117542E+02  2.7117542E+02  0.0000000E+00  0.0000000E+00  1.0000000E+00
 21 -1  0  0 502 501  0.0000000E+00  0.0000000E+00 -9.3161492E+02  9.3161492E+02  0.0000000E+00  0.0000000E+00  1.0000000E+00
 39  2  1  2   0   0 -2.9558578E-12 -3.3537617E-12 -6.6043950E+02  1.2027903E+03  1.0052484E+03  0.0000000E+00  1.0000000E+00
 23  2  3  3   0   0 -3.0119276E+02 -3.4171009E+02 -1.0165866E+02  4.7542101E+02  9.0596874E+01  0.0000000E+00  1.0000000E+00
 23  2  3  3   0   0  3.0119276E+02  3.4171009E+02 -5.5878084E+02  7.2736933E+02  9.6681188E+01  0.0000000E+00  1.0000000E+00
-11  1  4  4   0   0 -2.7550737E+02 -3.1845722E+02 -6.6955586E+01  4.2638288E+02  2.6973983E-06  0.0000000E+00  1.0000000E+00
 11  1  4  4   0   0 -2.5685395E+01 -2.3252873E+01 -3.4703074E+01  4.9038138E+01  1.3983610E-05  0.0000000E+00  1.0000000E+00
-13  1  5  5   0   0  3.0237485E+02  3.1435476E+02 -5.4005953E+02  6.9420008E+02  1.8313279E-06  0.0000000E+00  1.0000000E+00
 13  1  5  5   0   0 -1.1820862E+00  2.7355331E+01 -1.8721312E+01  3.3169247E+01  0.0000000E+00  0.0000000E+00  1.0000000E+00
</event>
<event>
9 100 1.0000000E+00 1.0000000E+03 7.8125000E-03 0.0000000E+00
 21 -1  0  0 501 502  0.0000000E+00  0.0000000E+00  3.5852003E+02  3.5852003E+02  0.0000000E+00  0.0000000E+00  1.0000000E+00
 21 -1  0  0 502 501  0.0000000E+00  0.0000000E+00 -6.8725049E+02  6.8725049E+02  0.0000000E+00  0.0000000E+00  1.0000000E+00
 39  2  1  2   0   0 -4.5474735E-13  9.0949470E-13 -3.2873045E+02  1.0457705E+03  9.9275992E+02  0.0000000E+00  1.0000000E+00
 23  2  3  3   0   0  1.6304934E+02 -3.1373072E+02 -5.1870774E+02  6.3422930E+02  9.0426960E+01  0.0000000E+00  1.0000000E+00
 23  2  3  3   0   0 -1.6304934E+02  3.1373072E+02  1.8997729E+02  4.1154122E+02  9.0899683E+01  0.0000000E+00  1.0000000E+00
-11  1  4  4   0   0  1.3886833E+01 -1.8480352E+00 -4.7041516E+00  1.4777970E+01  2.1579186E-05  0.0000000E+00  1.0000000E+00
 11  1  4  4   0   0  1.4916250E+02 -3.1188268E+02 -5.1400359E+02  6.1945133E+02  1.5312710E-06  0.0000000E+00  1.0000000E+00
-13  1  5  5   0   0  1.1109744E+01  1.4873752E+01  1.5193983E+01  2.3989831E+01  2.5942746E-05  0.0000000E+00  1.0000000E+00
 13  1  5  5   0   0 -1.7415908E+02  2.9885697E+02  1.7478331E+02  3.8755138E+02  4.0072766E-06  0.0000000E+00  1.0000000E+00
</event>
<event>
9 100 1.0000000E+00 1.0000000E+03 7.8125000E-03 0.0000000E+00
 21 -1  0  0 501 502  0.0000000E+00  0.0000000E+00  2.7383851E+02  2.7383851E+02  0.0000000E+00  0.0000000E+00  1.0000000E+00
 21 -1  0  0 502 501  0.0000000E+00  0.0000000E+00 -9.1055126E+02  9.1055126E+02  0.0000000E+00  0.0000000E+00  1.0000000E+00
 39  2  1  2   0   0  5.1159077E-13 -3.4106051E-13 -6.3671275E+02  1.1843898E+03  9.9868713E+02  0.0000000E+00  1.0000000E+00
 23  2  3  3   0   0 -3.4140545E+02  2.6479360E+02 -5.9502670E+02  7.4086720E+02  9.0300069E+01  0.0000000E+00  1.0000000E+00
 23  2  3  3   0   0  3.4140545E+02 -2.6479360E+02 -4.1686048E+01  4.4352257E+02  9.1111006E+01  0.0000000E+00  1.0000000E+00
-11  1  4  4   0   0 -1.8538713E+02  1.0218134E+02 -3.4027903E+02  4.0074834E+02  3.8146973E-06  0.0000000E+00  1.0000000E+00
 11  1  4  4   0   0 -1.5601832E+02  1.6261226E+02 -2.5474767E+02  3.4011886E+02  9.3440618E-06  0.0000000E+00  1.0000000E+00
-13  1  5  5   0   0  2.7650739E+02 -2.2176469E+02  1.5550317E+00  3.5445498E+02  4.2113118E-06  0.0000000E+00  1.0000000E+00
 13  1  5  5   0   0  6.4898053E+01 -4.3028906E+01 -4.3241080E+01  8.9067587E+01  7.3198229E-06  0.0000000E+00  1.0000000E+00
</event>
<event>
9 100 1.0000000E+00 1.0000000E+03 7.8125000E-03 0.0000000E+00
 21 -1  0  0 501 502  0.0000000E+00  0.0000000E+00  1.5085510E+02  1.5085510E+02  0.0000000E+00  0.0000000E+00  1.0000000E+00
 21 -1  0  0 502 501  0.0000000E+00  0.0000000E+00 -1.7421796E+03  1.7421796E+03  0.0000000E+00  0.0000000E+00  1.0000000E+00
 39  2  1  2   0   0  5.7411853E-12 -3.2116532E-12 -1.5913245E+03  1.8930347E+03  1.0253130E+03  0.0000000E+00  1.0000000E+00
 23  2  3  3   0   0  3.3767383E+02 -1.8683102E+02 -1.3958707E+03  1.4515357E+03  9.7834402E+01  0.0000000E+00  1.0000000E+00
 23  2  3  3   0   0 -3.3767383E+02  1.8683102E+02 -1.9545377E+02  4.4149892E+02  8.8259131E+01  0.0000000E+00  1.0000000E+00
-11  1  4  4   0   0  4.9525982E+01 -3.4395812E+00 -1.0347872E+02  1.1477151E+02  3.4119690E-05  0.0000000E+00  1.0000000E+00
 11  1  4  4   0   0  2.8814785E+02 -1.8339144E+02 -1.2923920E+03  1.3367642E+03  3.0157830E-06  0.0000000E+00  1.0000000E+00
-13  1  5  5   0   0 -1.8719768E+02  6.4464106E+01 -6.7644114E+01  2.0922313E+02  1.2287234E-05  0.0000000E+00  1.0000000E+00
 13  1  5  5   0   0 -1.5047615E+02  1.2236691E+02 -1.2780966E+02  2.3227579E+02  1.0576760E-05  0.0000000E+00  1.0000000E+00
</event>
<event>
9 100 1.0000000E+00 1.0000000E+03 7.8125000E-03 0.0000000E+00
 21 -1  0  0 501 502  0.0000000E+00  0.0000000E+00  2.1630788E+02  2.1630788E+02  0.0000000E+00  0.0000000E+00  1.0000000E+00
 21 -1  0  0 502 501  0.0000000E+00  0.0000000E+00 -1.1331624E+03  1.1331624E+03  0.0000000E+00  0.0000000E+00  1.0000000E+00
 39  2  1  2   0   0 -1.2221335E-12 -1.4495072E-12 -9.1685454E+02  1.3494703E+03  9.9017567E+02  0.0000000E+00  1.0000000E+00
 23  2  3  3   0   0 -2.0535592E+02 -2.4270635E+02 -9.6048829E+02  1.0161806E+03  9.4910089E+01  0.0000000E+00  1.0000000E+00
 23  2  3  3   0   0  2.0535592E+02  2.4270635E+02  4.3633748E+01  3.3328966E+02  9.0003715E+01  0.0000000E+00  1.0000000E+00
-11  1  4  4   0   0 -1.2881658E+02 -8.0894725E+01 -4.0900476E+02  4.3637434E+02  1.5258789E-05  0.0000000E+00  1.0000000E+00
 11  1  4  4   0   0 -7.6539334E+01 -1.6181163E+02 -5.5148353E+02  5.7980631E+02  7.6293945E-06  0.0000000E+00  1.0000000E+00
-13  1  5  5   0   0  4.2376275E+01  8.4145803E+01  4.8265942E+01  1.0585776E+02  7.6452106E-06  0.0000000E+00  1.0000000E+00
 13  1  5  5   0   0  1.6297964E+02  1.5856055E+02 -4.6321938E+00  2.2743190E+02  3.0157830E-06  0.0000000E+00  1.0000000E+00
</event>
<event>
9 100 1.0000000E+00 1.0000000E+03 7.8125000E-03 0.0000000E+00
 21 -1  0  0 501 502  0.0000000E+00  0.0000000E+00  3.3871596E+02  3.3871596E+02  0.0000000E+00  0.0000000E+00  1.0000000E+00
 21 -1  0  0 502 501  0.0000000E+00  0.0000000E+00 -7.4343681E+02  7.4343681E+02  0.0000000E+00  0.0000000E+00  1.0000000E+00
 39  2  1  2   0   0 -5.2580162E-13  1.4210855E-12 -4.0472086E+02  1.0821528E+03  1.0036213E+03  0.0000000E+00  1.0000000E+00
 23  2  3  3   0   0 -1.2089476E+02  3.2893113E+02 -5.7687276E+02  6.8124254E+02  9.2184550E+01  0.0000000E+00  1.0000000E+00
 23  2  3  3   0   0  1.2089476E+02 -3.2893113E+02  1.7215190E+02  4.0091023E+02  9.1002769E+01  0.0000000E+00  1.0000000E+00
-11  1  4  4   0   0 -2.8288093E+01  9.6369099E+00 -4.5249952E+01  5.4227709E+01  0.0000000E+00  0.0000000E+00  1.0000000E+00
 11  1  4  4   0   0 -9.2606671E+01  3.1929422E+02 -5.3162281E+02  6.2701483E+02  1.9073486E-06  0.0000000E+00  1.0000000E+00
-13  1  5  5   0   0  6.3668138E+01 -1.2938020E+02  1.1811666E+02  1.8639854E+02  1.2651920E-05  0.0000000E+00  1.0000000E+00
 13  1  5  5   0   0  5.7226626E+01 -1.9955093E+02  5.4035237E+01  2.1451169E+02  1.1523291E-05  0.0000000E+00  1.0000000E+00
</event>
<event>
9 100 1.0000000E+00 1.0000000E+03 7.8125000E-03 0.0000000E+00
 21 -1  0  0 501 502  0.0000000E+00  0.0000000E+00  2.9682675E+02  2.9682675E+02  0.0000000E+00  0.0000000E+00  1.0000000E+00
 21 -1  0  0 502 501  0.0000000E+00  0.0000000E+00 -8.4264085E+02  8.4264085E+02  0.0000000E+00  0.0000000E+00  1.0000000E+00
 39  2  1  2   0   0 -1.0800250E-12 -2.3305802E-12 -5.4581410E+02  1.1394676E+03  1.0002367E+03  0.0000000E+00  1.0000000E+00
 23  2  3  3   0   0 -1.4331071E+02 -3.1337254E+02  1.2652181E+02  3.7857238E+02  9.2568735E+01  0.0000000E+00  1.0000000E+00
 23  2  3  3   0   0  1.4331071E+02  3.1337254E+02 -6.7233591E+02  7.6089521E+02  9.0474486E+01  0.0000000E+00  1.0000000E+00
-11  1  4  4   0   0 -1.0237061E+02 -2.6725694E+02  6.9336098E+01  2.9447157E+02  3.5040232E-06  0.0000000E+00  1.0000000E+00
 11  1  4  4   0   0 -4.0940094E+01 -4.6115607E+01  5.7185713E+01  8.4100810E+01  9.6787372E-06  0.0000000E+00  1.0000000E+00
-13  1  5  5   0   0 -1.2290894E+01  2.9639876E+01 -7.4034228E+01  8.0688632E+01  2.1579186E-05  0.0000000E+00  1.0000000E+00
 13  1  5  5   0   0  1.5560160E+02  2.8373267E+02 -5.9830169E+02  6.8020658E+02  3.4385216E-06  0.0000000E+00  1.0000000E+00
</event>
<event>
9 100 1.0000000E+00 1.0000000E+03 7.8125000E-03 0.0000000E+00
 21 -1  0  0 501 502  0.0000000E+00  0.0000000E+00  2.7374217E+02  2.7374217E+02  0.0000000E+00  0.0000000E+00  1.0000000E+00
 21 -1  0  0 502 501  0.0000000E+00  0.0000000E+00 -8.4407529E+02  8.4407529E+02  0.0000000E+00  0.0000000E+00  1.0000000E+00
 39  2  1  2   0   0  6.1106675E-13  2.1032065E-12 -5.7033312E+02  1.1178175E+03  9.6137193E+02  0.0000000E+00  1.0000000E+00
 23  2  3  3   0   0  8.7631842E+01  3.0948155E+02 -6.8630739E+02  7.6344110E+02  9.1467535E+01  0.0000000E+00  1.0000000E+00
 23  2  3  3   0   0 -8.7631842E+01 -3.0948155E+02  1.1597427E+02  3.5437635E+02  9.3136436E+01  0.0000000E+00  1.0000000E+00
-11  1  4  4   0   0  9.5009192E+01  2.5541555E+02 -6.2215488E+02  6.7922054E+02  3.5683226E-06  0.0000000E+00  1.0000000E+00
 11  1  4  4   0   0 -7.3773499E+00  5.4066006E+01 -6.4152511E+01  8.4220561E+01  7.6293945E-06  0.0000000E+00  1.0000000E+00
-13  1  5  5   0   0 -1.6327122E+01 -6.5625922E+01 -1.3898592E+01  6.9039898E+01  1.0092740E-05  0.0000000E+00  1.0000000E+00
 13  1  5  5   0   0 -7.1304720E+01 -2.4385563E+02  1.2987286E+02  2.8533645E+02  3.6548876E-06  0.0000000E+00  1.0000000E+00
</event>
<event>
9 100 1.0000000E+00 1.0000000E+03 7.8125000E-03 0.0000000E+00
 21 -1  0  0 501 502  0.0000000E+00  0.0000000E+00  3.1588084E+02  3.1588084E+02  0.0000000E+00  0.0000000E+00  1.0000000E+00
 21 -1  0  0 502 501  0.0000000E+00  0.0000000E+00 -7.8713776E+02  7.8713776E+02  0.0000000E+00  0.0000000E+00  1.0000000E+00
 39  2  1  2   0   0  4.2632564E-13  1.8474111E-13 -4.7125692E+02  1.1030186E+03  9.9727978E+02  0.0000000E+00  1.0000000E+00
 23  2  3  3   0   0  2.2134594E+02  9.2883270E+01  2.3735097E+02  3.4966951E+02  9.1169924E+01  0.0000000E+00  1.0000000E+00
 23  2  3  3   0   0 -2.2134594E+02 -9.2883270E+01 -7.0860789E+02  7.5334909E+02  8.8251771E+01  0.0000000E+00  1.0000000E+00
-11  1  4  4   0   0  1.1631609E+02  3.5601132E+01  1.7936500E+02  2.1672258E+02  4.7204470E-06  0.0000000E+00  1.0000000E+00
 11  1  4  4   0   0  1.0502986E+02  5.7282138E+01  5.7985969E+01  1.3294693E+02  5.3947966E-06  0.0000000E+00  1.0000000E+00
-13  1  5  5   0   0 -3.4237059E+01  1.6924108E+00 -2.0497391E+02  2.0782046E+02  7.6293945E-06  0.0000000E+00  1.0000000E+00
 13  1  5  5   0   0 -1.8710889E+02 -9.4575681E+01 -5.0363398E+02  5.4552863E+02  0.0000000E+00  0.0000000E+00  1.0000000E+00
</event>
<event>
9 100 1.0000000E+00 1.0000000E+03 7.8125000E-03 0.0000000E+00
 21 -1  0  0 501 502  0.0000000E+00  0.0000000E+00  6.2538458E+02  6.2538458E+02  0.0000000E+00  0.0000000E+00  1.0000000E+00
 21 -1  0  0 502 501  0.0000000E+00  0.0000000E+00 -3.8389023E+02  3.8389023E+02  0.0000000E+00  0.0000000E+00  1.0000000E+00
 39  2  1  2   0   0  1.3642421E-12 -1.1368684E-12  2.4149435E+02  1.0092748E+03  9.7995720E+02  0.0000000E+00  1.0000000E+00
 23  2  3  3   0   0 -3.5419201E+02  3.2513530E+02  1.3224322E+02  5.0707396E+02  9.2036880E+01  0.0000000E+00  1.0000000E+00
 23  2  3  3   0   0  3.5419201E+02 -3.2513530E+02  1.0925113E+02  5.0220085E+02  9.5419787E+01  0.0000000E+00  1.0000000E+00
-11  1  4  4   0   0 -1.8985954E+02  2.2998573E+02  9.9444022E+01  3.1437111E+02  9.8302498E-06  0.0000000E+00  1.0000000E+00
 11  1  4  4   0   0 -1.6433247E+02  9.5149576E+01  3.2799193E+01  1.9270285E+02  1.2936268E-05  0.0000000E+00  1.0000000E+00
-13  1  5  5   0   0  1.0068126E+02 -9.7873017E+01  7.7187204E+01  1.6023017E+02  1.7192608E-05  0.0000000E+00  1.0000000E+00
 13  1  5  5   0   0  2.5351076E+02 -2.2726228E+02  3.2063931E+01  3.4197068E+02  1.0271387E-05  0.0000000E+00  1.0000000E+00
</event>
<event>
9 100 1.0000000E+00 1.0000000E+03 7.8125000E-03 0.0000000E+00
 21 -1  0  0 501 502  0.0000000E+00  0.0000000E+00  4.5852706E+02  4.5852706E+02  0.0000000E+00  0.0000000E+00  1.0000000E+00
 21 -1  0  0 502 501  0.0000000E+00  0.0000000E+00 -5.3988261E+02  5.3988261E+02  0.0000000E+00  0.0000000E+00  1.0000000E+00
 39  2  1  2   0   0 -1.6484591E-12 -1.7763568E-13 -8.1355551E+01  9.9840968E+02  9.9508952E+02  0.0000000E+00  1.0000000E+00
 23  2  3  3   0   0  4.5228020E+02  4.5416145E+01  1.3679429E+02  4.8336489E+02  9.1153357E+01  0.0000000E+00  1.0000000E+00
 23  2  3  3   0   0 -4.5228020E+02 -4.5416145E+01 -2.1814984E+02  5.1504478E+02  1.0517494E+02  0.0000000E+00  1.0000000E+00
-11  1  4  4   0   0  3.9939804E+02  6.9654623E+01  1.1884732E+02  4.2248698E+02  4.4284286E-06  0.0000000E+00  1.0000000E+00
 11  1  4  4   0   0  5.2882163E+01 -2.4238477E+01  1.7946970E+01  6.0877916E+01  2.1621292E-05  0.0000000E+00  1.0000000E+00
-13  1  5  5   0   0 -3.6058399E+02 -3.8224025E+01 -1.2348318E+02  3.8305350E+02  5.2234894E-06  0.0000000E+00  1.0000000E+00
 13  1  5  5   0   0 -9.1696216E+01 -7.1921206E+00 -9.4666656E+01  1.3199128E+02  1.4400166E-05  0.0000000E+00  1.0000000E+00
</event>
<event>
9 100 1.0000000E+00 1.0000000E+03 7.8125000E-03 0.0000000E+00
 21 -1  0  0 501 502  0.0000000E+00  0.0000000E+00  2.8050541E+02  2.8050541E+02  0.0000000E+00  0.0000000E+00  1.0000000E+00
 21 -1  0  0 502 501  0.0000000E+00  0.0000000E+00 -9.8561483E+02  9.8561483E+02  0.0000000E+00  0.0000000E+00  1.0000000E+00
 39  2  1  2   0   0  5.6843419E-13  6.8212103E-13 -7.0510942E+02  1.2661202E+03  1.0516088E+03  0.0000000E+00  1.0000000E+00
 23  2  3  3   0   0 -3.2272197E+02 -3.6911436E+02 -1.5302750E+02  5.2206352E+02  9.3477399E+01  0.0000000E+00  1.0000000E+00
 23  2  3  3   0   0  3.2272197E+02  3.6911436E+02 -5.5208193E+02  7.4405672E+02  9.1820855E+01  0.0000000E+00  1.0000000E+00
-11  1  4  4   0   0 -2.6999455E+00 -2.2930553E+01 -2.3958031E+01  3.3272920E+01  2.0364911E-05  0.0000000E+00  1.0000000E+00
 11  1  4  4   0   0 -3.2002202E+02 -3.4618380E+02 -1.2906947E+02  4.8879060E+02  2.1324806E-06  0.0000000E+00  1.0000000E+00
-13  1  5  5   0   0  1.9066302E+01  6.9773500E+01 -7.4924842E+01  1.0414220E+02  1.3214499E-05  0.0000000E+00  1.0000000E+00
 13  1  5  5   0   0  3.0365566E+02  2.9934086E+02 -4.7715708E+02  6.3991452E+02  3.8146973E-06  0.0000000E+00  1.0000000E+00
</event>
<event>
9 100 1.0000000E+00 1.0000000E+03 7.8125000E-03 0.0000000E+00
 21 -1  0  0 501 502  0.0000000E+00  0.0000000E+00  1.2654426E+03  1.2654426E+03  0.0000000E+00  0.0000000E+00  1.0000000E+00
 21 -1  0  0 502 501  0.0000000E+00  0.0000000E+00 -1.7792623E+02  1.7792623E+02  0.0000000E+00  0.0000000E+00  1.0000000E+00
 39  2  1  2   0   0  9.6633812E-13 -4.5474735E-13  1.0875163E+03  1.4433688E+03  9.4901091E+02  0.0000000E+00  1.0000000E+00
 23  2  3  3   0   0 -3.2035884E+02  1.8122690E+02  1.0906641E+02  3.9409782E+02  8.9132696E+01  0.0000000E+00  1.0000000E+00
 23  2  3  3   0   0  3.2035884E+02 -1.8122690E+02  9.7844991E+02  1.0492710E+03  9.0179557E+01  0.0000000E+00  1.0000000E+00
-11  1  4  4   0   0 -6.9271777E+01  2.0477916E+01  5.5716307E+01  9.1226263E+01  3.3717479E-06  0.0000000E+00  1.0000000E+00
 11  1  4  4   0   0 -2.5108706E+02  1.6074899E+02  5.3350104E+01  3.0287156E+02  2.3360155E-06  0.0000000E+00  1.0000000E+00
-13  1  5  5   0   0  7.2872689E+01 -4.6849619E+00  2.3446587E+02  2.4557407E+02  2.6428998E-05  0.0000000E+00  1.0000000E+00
 13  1  5  5   0   0  2.4748615E+02 -1.7654194E+02  7.4398404E+02  8.0369689E+02  7.6293945E-06  0.0000000E+00  1.0000000E+00
</event>
<event>
9 100 1.0000000E+00 1.0000000E+03 7.8125000E-03 0.0000000E+00
 21 -1  0  0 501 502  0.0000000E+00  0.0000000E+00  1.2085357E+03  1.2085357E+03  0.0000000E+00  0.0000000E+00  1.0000000E+00
 21 -1  0  0 502 501  0.0000000E+00  0.0000000E+00 -2.0720589E+02  2.0720589E+02  0.0000000E+00  0.0000000E+00  1.0000000E+00
 39  2  1  2   0   0  7.0343731E-13  5.0590643E-12  1.0013299E+03  1.4157416E+03  1.0008311E+03  0.0000000E+00  1.0000000E+00
 23  2  3  3   0   0  5.1099539E+01  3.6466373E+02  9.6321996E+02  1.0347441E+03  8.5510022E+01  0.0000000E+00  1.0000000E+00
 23  2  3  3   0   0 -5.1099539E+01 -3.6466373E+02  3.8109906E+01  3.8099749E+02  9.0088422E+01  0.0000000E+00  1.0000000E+00
-11  1  4  4   0   0  4.3950255E+01  3.1839189E+02  9.0279250E+02  9.5830023E+02  2.5231851E-06  0.0000000E+00  1.0000000E+00
 11  1  4  4   0   0  7.1492834E+00  4.6271845E+01  6.0427451E+01  7.6443919E+01  1.5258789E-05  0.0000000E+00  1.0000000E+00
-13  1  5  5   0   0 -3.0539021E+01 -2.7880512E+02 -9.6153551E+00  2.8063746E+02  5.5608291E-06  0.0000000E+00  1.0000000E+00
 13  1  5  5   0   0 -2.0560518E+01 -8.5858607E+01  4.7725261E+01  1.0036003E+02  1.3888266E-05  0.0000000E+00  1.0000000E+00
</event>
<event>
9 100 1.0000000E+00 1.0000000E+03 7.8125000E-03 0.0000000E+00
 21 -1  0  0 501 502  0.0000000E+00  0.0000000E+00  2.9626694E+02  2.9626694E+02  0.0000000E+00  0.0000000E+00  1.0000000E+00
 21 -1  0  0 502 501  0.0000000E+00  0.0000000E+00 -8.4382606E+02  8.4382606E+02  0.0000000E+00  0.0000000E+00  1.0000000E+00
 39  2  1  2   0   0 -9.6633812E-13  6.8212103E-13 -5.4755912E+02  1.1400930E+03  9.9999552E+02  0.0000000E+00  1.0000000E+00
 23  2  3  3   0   0  4.0679227E+02 -2.6912052E+02 -2.0641123E+02  5.3781269E+02  9.3440342E+01  0.0000000E+00  1.0000000E+00
 23  2  3  3   0   0 -4.0679227E+02  2.6912052E+02 -3.4114789E+02  6.0228030E+02  9.1944955E+01  0.0000000E+00  1.0000000E+00
-11  1  4  4   0   0  2.5631438E+02 -1.9107321E+02 -8.9823323E+01  3.3207568E+02  1.1834787E-05  0.0000000E+00  1.0000000E+00
 11  1  4  4   0   0  1.5047789E+02 -7.8047311E+01 -1.1658790E+02  2.0573701E+02  1.6099875E-05  0.0000000E+00  1.0000000E+00
-13  1  5  5   0   0 -2.1623035E+02  1.6150702E+02 -1.3559641E+02  3.0203720E+02  1.3754087E-05  0.0000000E+00  1.0000000E+00
 13  1  5  5   0   0 -1.9056191E+02  1.0761350E+02 -2.0555149E+02  3.0024310E+02  1.5495374E-05  0.0000000E+00  1.0000000E+00
</event>
<event>
9 100 1.0000000E+00 1.0000000E+03 7.8125000E-03 0.0000000E+00
 21 -1  0  0 501 502  0.0000000E+00  0.0000000E+00  1.6693427E+03  1.6693427E+03  0.0000000E+00  0.0000000E+00  1.0000000E+00
 21 -1  0  0 502 501  0.0000000E+00  0.0000000E+00 -1.5088382E+02  1.5088382E+02  0.0000000E+00  0.0000000E+00  1.0000000E+00
 39  2  1  2   0   0  1.0629719E-11  7.2759576E-12  1.5184589E+03  1.8202265E+03  1.0037466E+03  0.0000000E+00  1.0000000E+00
 23  2  3  3   0   0 -3.4490831E+02 -2.3669811E+02  2.8471770E+02  5.1417136E+02  9.1215573E+01  0.0000000E+00  1.0000000E+00
 23  2  3  3   0   0  3.4490831E+02  2.3669811E+02  1.2337412E+03  1.3060551E+03  9.3139883E+01  0.0000000E+00  1.0000000E+00
-11  1  4  4   0   0 -2.8100831E+02 -2.3122955E+02  2.4594311E+02  4.3922749E+02  4.4731290E-06  0.0000000E+00  1.0000000E+00
 11  1  4  4   0   0 -6.3899996E+01 -5.4685663E+00  3.8774580E+01  7.4943865E+01  2.1239335E-05  0.0000000E+00  1.0000000E+00
-13  1  5  5   0   0  8.7021505E+01  9.5248502E+01  4.7766378E+02  4.9478046E+02  2.6428998E-05  0.0000000E+00  1.0000000E+00
 13  1  5  5   0   0  2.5788680E+02  1.4144961E+02  7.5607739E+02  8.1127468E+02  1.2063132E-05  0.0000000E+00  1.0000000E+00
</event>
<event>
9 100 1.0000000E+00 1.0000000E+03 7.8125000E-03 0.0000000E+00
 21 -1  0  0 501 502  0.0000000E+00  0.0000000E+00  4.4665097E+02  4.4665097E+02  0.0000000E+00  0.0000000E+00  1.0000000E+00
 21 -1  0  0 502 501  0.0000000E+00  0.0000000E+00 -5.5848215E+02  5.5848215E+02  0.0000000E+00  0.0000000E+00  1.0000000E+00
 39  2  1  2   0   0 -1.1368684E-13 -2.1316282E-14 -1.1183118E+02  1.0051331E+03  9.9889258E+02  0.0000000E+00  1.0000000E+00
 23  2  3  3   0   0  3.2909991E+02  3.7336389E+01  3.0953625E+02  4.6212628E+02  8.9706473E+01  0.0000000E+00  1.0000000E+00
 23  2  3  3   0   0 -3.2909991E+02 -3.7336389E+01 -4.2136743E+02  5.4300685E+02  8.7207668E+01  0.0000000E+00  1.0000000E+00
-11  1  4  4   0   0  9.8940834E+01 -2.1141183E+01  1.2832278E+02  1.6341045E+02  1.0789593E-05  0.0000000E+00  1.0000000E+00
 11  1  4  4   0   0  2.3015907E+02  5.8477572E+01  1.8121347E+02  2.9871583E+02  6.6072495E-06  0.0000000E+00  1.0000000E+00
-13  1  5  5   0   0 -2.2029453E+02 -5.3565845E+01 -2.3457740E+02  3.2622927E+02  2.6973983E-06  0.0000000E+00  1.0000000E+00
 13  1  5  5   0   0 -1.0880537E+02  1.6229456E+01 -1.8679003E+02  2.1677758E+02  4.6720309E-06  0.0000000E+00  1.0000000E+00
</event>
<event>
9 100 1.0000000E+00 1.0000000E+03 7.8125000E-03 0.0000000E+00
 21 -1  0  0 501 502  0.0000000E+00  0.0000000E+00  3.5706347E+02  3.5706347E+02  0.0000000E+00  0.0000000E+00  1.0000000E+00
 21 -1  0  0 502 501  0.0000000E+00  0.0000000E+00 -7.0908005E+02  7.0908005E+02  0.0000000E+00  0.0000000E+00  1.0000000E+00
 39  2  1  2   0   0  6.8212103E-13 -1.8189894E-12 -3.5201659E+02  1.0661435E+03  1.0063530E+03  0.0000000E+00  1.0000000E+00
 23  2  3  3   0   0  1.2512813E+02 -3.4010861E+02  1.8159425E+02  4.1446262E+02  8.6440011E+01  0.0000000E+00  1.0000000E+00
 23  2  3  3   0   0 -1.2512813E+02  3.4010861E+02 -5.3361084E+02  6.5168090E+02  9.2825386E+01  0.0000000E+00  1.0000000E+00
-11  1  4  4   0   0  9.2853149E+01 -2.7499583E+02  1.0442955E+02  3.0846385E+02  1.6518124E-06  0.0000000E+00  1.0000000E+00
 11  1  4  4   0   0  3.2274983E+01 -6.5112776E+01  7.7164702E+01  1.0599877E+02  6.0315660E-06  0.0000000E+00  1.0000000E+00
-13  1  5  5   0   0 -2.6526742E+01  1.7687007E+01 -8.2864766E+01  8.8786641E+01  9.3440618E-06  0.0000000E+00  1.0000000E+00
 13  1  5  5   0   0 -9.8601390E+01  3.2242160E+02 -4.5074607E+02  5.6289426E+02  1.9073486E-06  0.0000000E+00  1.0000000E+00
</event>
<event>
9 100 1.0000000E+00 1.0000000E+03 7.8125000E-03 0.0000000E+00
 21 -1  0  0 501 502  0.0000000E+00  0.0000000E+00  7.3185794E+02  7.3185794E+02  0.0000000E+00  0.0000000E+00  1.0000000E+00
 21 -1  0  0 502 501  0.0000000E+00  0.0000000E+00 -3.0289499E+02  3.0289499E+02  0.0000000E+00  0.0000000E+00  1.0000000E+00
 39  2  1  2   0   0  1.4921397E-13  1.8189894E-12  4.2896295E+02  1.0347529E+03  9.4164984E+02  0.0000000E+00  1.0000000E+00
 23  2  3  3   0   0  3.4438321E+01  4.1877282E+02  4.0186328E+00  4.2984704E+02  9.0529863E+01  0.0000000E+00  1.0000000E+00
 23  2  3  3   0   0 -3.4438321E+01 -4.1877282E+02  4.2494431E+02  6.0490589E+02  9.3684544E+01  0.0000000E+00  1.0000000E+00
-11  1  4  4   0   0 -3.0759843E+01  1.3189800E+02 -4.8344377E+00  1.3552351E+02  7.5196403E-06  0.0000000E+00  1.0000000E+00
 11  1  4  4   0   0  6.5198164E+01  2.8687482E+02  8.8530705E+00  2.9432353E+02  5.4049944E-06  0.0000000E+00  1.0000000E+00
-13  1  5  5   0   0 -3.3643626E+01 -2.2449761E+02  1.6619065E+02  2.8133681E+02  8.5299224E-06  0.0000000E+00  1.0000000E+00
 13  1  5  5   0   0 -7.9469555E-01 -1.9427521E+02  2.5875366E+02  3.2356907E+02  0.0000000E+00  0.0000000E+00  1.0000000E+00
</event>
<event>
9 100 1.0000000E+00 1.0000000E+03 7.8125000E-03 0.0000000E+00
 21 -1  0  0 501 502  0.0000000E+00  0.0000000E+00  8.9259726E+02  8.9259726E+02  0.0000000E+00  0.0000000E+00  1.0000000E+00
 21 -1  0  0 502 501  0.0000000E+00  0.0000000E+00 -2.8135626E+02  2.8135626E+02  0.0000000E+00  0.0000000E+00  1.0000000E+00
 39  2  1  2   0   0  2.5579538E-13  1.0658141E-14  6.1124101E+02  1.1739535E+03  1.0022731E+03  0.0000000E+00  1.0000000E+00
 23  2  3  3   0   0 -1.4681133E+02 -4.6545659E+00 -2.4422923E+02  2.9899717E+02  9.0422112E+01  0.0000000E+00  1.0000000E+00
 23  2  3  3   0   0  1.4681133E+02  4.6545659E+00  8.5547024E+02  8.7495635E+02  1.1020007E+02  0.0000000E+00  1.0000000E+00
-11  1  4  4   0   0 -1.0964221E+02 -4.4175814E+01 -1.6975069E+02  2.0685312E+02  4.3702847E-06  0.0000000E+00  1.0000000E+00
 11  1  4  4   0   0 -3.7169114E+01  3.9521248E+01 -7.4478545E+01  9.2144049E+01  9.1473227E-06  0.0000000E+00  1.0000000E+00
-13  1  5  5   0   0  9.3891746E+01 -1.6338967E+01  7.4106923E+02  7.4717216E+02  7.0080464E-06  0.0000000E+00  1.0000000E+00
 13  1  5  5   0   0  5.2919581E+01  2.0993533E+01  1.1440100E+02  1.2778419E+02  3.5785032E-05  0.0000000E+00  1.0000000E+00
</event>
<event>
9 100 1.0000000E+00 1.0000000E+03 7.8125000E-03 0.0000000E+00
 21 -1  0  0 501 502  0.0000000E+00  0.0000000E+00  1.1010049E+03  1.1010049E+03  0.0000000E+00  0.0000000E+00  1.0000000E+00
 21 -1  0  0 502 501  0.0000000E+00  0.0000000E+00 -2.2998623E+02  2.2998623E+02  0.0000000E+00  0.0000000E+00  1.0000000E+00
 39  2  1  2   0   0  3.9790393E-13 -5.1159077E-13  8.7101863E+02  1.3309911E+03  1.0064114E+03  0.0000000E+00  1.0000000E+00
 23  2  3  3   0   0  3.2684307E+02 -3.7114421E+02  4.7373695E+02  6.9048158E+02  8.8111831E+01  0.0000000E+00  1.0000000E+00
 23  2  3  3   0   0 -3.2684307E+02  3.7114421E+02  3.9728168E+02  6.4050951E+02  8.8573555E+01  0.0000000E+00  1.0000000E+00
-11  1  4  4   0   0  2.4697081E+02 -3.0546162E+02  4.1555028E+02  5.7182464E+02  2.7804145E-06  0.0000000E+00  1.0000000E+00
 11  1  4  4   0   0  7.9872260E+01 -6.5682592E+01  5.8186668E+01  1.1865694E+02  5.3947966E-06  0.0000000E+00  1.0000000E+00
-13  1  5  5   0   0 -3.1773437E+02  3.4608483E+02  3.9490114E+02  6.1373997E+02  1.4326829E-06  0.0000000E+00  1.0000000E+00
 13  1  5  5   0   0 -9.1086984E+00  2.5059380E+01  2.3805374E+00  2.6769532E+01  1.6184390E-05  0.0000000E+00  1.0000000E+00
</event>
<event>
9 100 1.0000000E+00 1.0000000E+03 7.8125000E-03 0.0000000E+00
 21 -1  0  0 501 502  0.0000000E+00  0.0000000E+00  6.3740108E+02  6.3740108E+02  0.0000000E+00  0.0000000E+00  1.0000000E+00
 21 -1  0  0 502 501  0.0000000E+00  0.0000000E+00 -3.9670445E+02  3.9670445E+02  0.0000000E+00  0.0000000E+00  1.0000000E+00
 39  2  1  2   0   0  8.5265128E-14 -3.4106051E-13  2.4069663E+02  1.0341055E+03  1.0057034E+03  0.0000000E+00  1.0000000E+00
 23  2  3  3   0   0  1.7513619E+02 -3.5307447E+02 -1.7958747E+02  4.5057053E+02  1.2420901E+02  0.0000000E+00  1.0000000E+00
 23  2  3  3   0   0 -1.7513619E+02  3.5307447E+02  4.2028410E+02  5.8353500E+02  9.2412704E+01  0.0000000E+00  1.0000000E+00
-11  1  4  4   0   0  3.2001063E+01 -8.5340233E+01  1.1469437E+01  9.1861697E+01  7.1366451E-06  0.0000000E+00  1.0000000E+00
 11  1  4  4   0   0  1.4313512E+02 -2.6773423E+02 -1.9105691E+02  3.5870883E+02  4.7773039E-06  0.0000000E+00  1.0000000E+00
-13  1  5  5   0   0 -1.7817958E+02  3.4751865E+02  4.2379039E+02  5.7629460E+02  1.3728491E-06  0.0000000E+00  1.0000000E+00
 13  1  5  5   0   0  3.0433915E+00  5.5558166E+00 -3.5062871E+00  7.2403990E+00  9.3440618E-06  0.0000000E+00  1.0000000E+00
</event>
<event>
9 100 1.0000000E+00 1.0000000E+03 7.8125000E-03 0.0000000E+00
 21 -1  0  0 501 502  0.0000000E+00  0.0000000E+00  4.6523524E+02  4.6523524E+02  0.0000000E+00  0.0000000E+00  1.0000000E+00
 21 -1  0  0 502 501  0.0000000E+00  0.0000000E+00 -5.3953213E+02  5.3953213E+02  0.0000000E+00  0.0000000E+00  1.0000000E+00
 39  2  1  2   0   0  4.5474735E-13  1.4921397E-13 -7.4296895E+01  1.0047674E+03  1.0020167E+03  0.0000000E+00  1.0000000E+00
 23  2  3  3   0   0 -1.3185549E+02 -4.2497073E+01  4.3682958E+02  4.6737958E+02  9.1824432E+01  0.0000000E+00  1.0000000E+00
 23  2  3  3   0   0  1.3185549E+02  4.2497073E+01 -5.1112647E+02  5.3738778E+02  9.1342695E+01  0.0000000E+00  1.0000000E+00
-11  1  4  4   0   0 -1.7177668E+01  2.6098029E+01  1.0820760E+02  1.1262799E+02  1.2063132E-05  0.0000000E+00  1.0000000E+00
 11  1  4  4   0   0 -1.1467782E+02 -6.8595102E+01  3.2862197E+02  3.5475159E+02  5.2234894E-06  0.0000000E+00  1.0000000E+00
-13  1  5  5   0   0  1.3881414E+02  4.0831824E+01 -5.1001940E+02  5.3014751E+02  1.5582226E-06  0.0000000E+00  1.0000000E+00
 13  1  5  5   0   0 -6.9586494E+00  1.6652490E+00 -1.1070745E+00  7.2402672E+00  2.0893957E-05  0.0000000E+00  1.0000000E+00
</event>
<event>
9 100 1.0000000E+00 1.0000000E+03 7.8125000E-03 0.0000000E+00
 21 -1  0  0 501 502  0.0000000E+00  0.0000000E+00  7.2456850E+02  7.2456850E+02  0.0000000E+00  0.0000000E+00  1.0000000E+00
 21 -1  0  0 502 501  0.0000000E+00  0.0000000E+00 -3.4792839E+02  3.4792839E+02  0.0000000E+00  0.0000000E+00  1.0000000E+00
 39  2  1  2   0   0 -4.1211479E-13  1.1368684E-12  3.7664011E+02  1.0724969E+03  1.0041871E+03  0.0000000E+00  1.0000000E+00
 23  2  3  3   0   0  7.7531244E+01 -2.2879683E+02  6.4801259E+02  6.9759607E+02  9.1437823E+01  0.0000000E+00  1.0000000E+00
 23  2  3  3   0   0 -7.7531244E+01  2.2879683E+02 -2.7137248E+02  3.7490081E+02  9.2458164E+01  0.0000000E+00  1.0000000E+00
-11  1  4  4   0   0  4.3486749E+01 -2.5469505E+01  9.7630975E+01  1.0987083E+02  1.5258789E-05  0.0000000E+00  1.0000000E+00
 11  1  4  4   0   0  3.4044495E+01 -2.0332733E+02  5.5038162E+02  5.8772524E+02  5.7220459E-06  0.0000000E+00  1.0000000E+00
-13  1  5  5   0   0 -7.2597242E+01  2.3754413E+02 -2.5751737E+02  3.5778872E+02  1.7601041E-06  0.0000000E+00  1.0000000E+00
 13  1  5  5   0   0 -4.9340027E+00 -8.7472977E+00 -1.3855110E+01  1.7112091E+01  9.3440618E-06  0.0000000E+00  1.0000000E+00
</event>
<event>
9 100 1.0000000E+00 1.0000000E+03 7.8125000E-03 0.0000000E+00
 21 -1  0  0 501 502  0.0000000E+00  0.0000000E+00  2.1622684E+02  2.1622684E+02  0.0000000E+00  0.0000000E+00  1.0000000E+00
 21 -1  0  0 502 501  0.0000000E+00  0.0000000E+00 -1.1631033E+03  1.1631033E+03  0.0000000E+00  0.0000000E+00  1.0000000E+00
 39  2  1  2   0   0  1.7053026E-13 -4.2632564E-14 -9.4687646E+02  1.3793301E+03  1.0029839E+03  0.0000000E+00  1.0000000E+00
 23  2  3  3   0   0 -4.4574925E+02  1.1110709E+02 -2.3038224E+02  5.2324002E+02  9.8320694E+01  0.0000000E+00  1.0000000E+00
 23  2  3  3   0   0  4.4574925E+02 -1.1110709E+02 -7.1649422E+02  8.5609012E+02  9.2136569E+01  0.0000000E+00  1.0000000E+00
-11  1  4  4   0   0 -9.1301887E+01 -6.0443606E+00 -7.7236384E+01  1.1974150E+02  1.2936268E-05  0.0000000E+00  1.0000000E+00
 11  1  4  4   0   0 -3.5444736E+02  1.1715145E+02 -1.5314585E+02  4.0349851E+02  5.8009744E-06  0.0000000E+00  1.0000000E+00
-13  1  5  5   0   0  3.6396652E+02 -8.8409440E+01 -5.0940025E+02  6.3227879E+02  2.6973983E-06  0.0000000E+00  1.0000000E+00
 13  1  5  5   0   0  8.1782734E+01 -2.2697655E+01 -2.0709397E+02  2.2381133E+02  9.3440618E-06  0.0000000E+00  1.0000000E+00
</event>
<event>
9 100 1.0000000E+00 1.0000000E+03 7.8125000E-03 0.0000000E+00
 21 -1  0  0 501 502  0.0000000E+00  0.0000000E+00  1.3710756E+02  1.3710756E+02  0.0000000E+00  0.0000000E+00  1.0000000E+00
 21 -1  0  0 502 501  0.0000000E+00  0.0000000E+00 -1.8140050E+03  1.8140050E+03  0.0000000E+00  0.0000000E+00  1.0000000E+00
 39  2  1  2   0   0  1.1368684E-13  2.2737368E-13 -1.6768974E+03  1.9511126E+03  9.9742428E+02  0.0000000E+00  1.0000000E+00
 23  2  3  3   0   0 -2.5008151E+02 -3.6853492E+02 -4.4286167E+02  6.3593952E+02  9.9668776E+01  0.0000000E+00  1.0000000E+00
 23  2  3  3   0   0  2.5008151E+02  3.6853492E+02 -1.2340358E+03  1.3151730E+03  9.2071200E+01  0.0000000E+00  1.0000000E+00
-11  1  4  4   0   0 -1.4504868E+02 -2.6510863E+02 -3.4681446E+02  4.6000215E+02  5.0463701E-06  0.0000000E+00  1.0000000E+00
 11  1  4  4   0   0 -1.0503283E+02 -1.0342629E+02 -9.6047213E+01  1.7593737E+02  1.7481139E-05  0.0000000E+00  1.0000000E+00
-13  1  5  5   0   0  1.8274093E+02  2.0066866E+02 -6.7149786E+02  7.2427311E+02  7.6293945E-06  0.0000000E+00  1.0000000E+00
 13  1  5  5   0   0  6.7340578E+01  1.6786626E+02 -5.6253790E+02  5.9089993E+02  1.8688124E-05  0.0000000E+00  1.0000000E+00
</event>
<event>
9 100 1.0000000E+00 1.0000000E+03 7.8125000E-03 0.0000000E+00
 21 -1  0  0 501 502  0.0000000E+00  0.0000000E+00  5.6727356E+02  5.6727356E+02  0.0000000E+00  0.0000000E+00  1.0000000E+00
 21 -1  0  0 502 501  0.0000000E+00  0.0000000E+00 -4.4306958E+02  4.4306958E+02  0.0000000E+00  0.0000000E+00  1.0000000E+00
 39  2  1  2   0   0  5.5422333E-13 -1.8758328E-12  1.2420398E+02  1.0103431E+03  1.0026797E+03  0.0000000E+00  1.0000000E+00
 23  2  3  3   0   0  1.2015896E+02 -4.2291249E+02  2.8719078E+02  5.3301987E+02  9.1315286E+01  0.0000000E+00  1.0000000E+00
 23  2  3  3   0   0 -1.2015896E+02  4.2291249E+02 -1.6298680E+02  4.7732328E+02  8.9328971E+01  0.0000000E+00  1.0000000E+00
-11  1  4  4   0   0  9.6038943E+01 -3.2446032E+02  1.7200146E+02  3.7958198E+02  7.1366451E-06  0.0000000E+00  1.0000000E+00
 11  1  4  4   0   0  2.4120017E+01 -9.8452175E+01  1.1518932E+02  1.5343789E+02  1.5377536E-05  0.0000000E+00  1.0000000E+00
-13  1  5  5   0   0 -1.5171504E+01  2.6617430E+01 -3.7826256E+01  4.8677384E+01  8.9462581E-06  0.0000000E+00  1.0000000E+00
 13  1  5  5   0   0 -1.0498746E+02  3.9629506E+02 -1.2516054E+02  4.2864589E+02  1.0662403E-06  0.0000000E+00  1.0000000E+00
</event>
<event>
9 100 1.0000000E+00 1.0000000E+03 7.8125000E-03 0.0000000E+00
 21 -1  0  0 501 502  0.0000000E+00  0.0000000E+00  5.9764956E+02  5.9764956E+02  0.0000000E+00  0.0000000E+00  1.0000000E+00
 21 -1  0  0 502 501  0.0000000E+00  0.0000000E+00 -4.1212278E+02  4.1212278E+02  0.0000000E+00  0.0000000E+00  1.0000000E+00
 39  2  1  2   0   0  0.0000000E+00  1.4210855E-14  1.8552678E+02  1.0097723E+03  9.9258250E+02  0.0000000E+00  1.0000000E+00
 23  2  3  3   0   0 -6.7492062E+01  5.0017018E+01 -3.9582763E+02  4.1531857E+02  9.3558141E+01  0.0000000E+00  1.0000000E+00
 23  2  3  3   0   0  6.7492062E+01 -5.0017018E+01  5.8135441E+02  5.9445378E+02  9.1353530E+01  0.0000000E+00  1.0000000E+00
-11  1  4  4   0   0 -7.3678010E+01  5.5140521E+01 -2.0954043E+02  2.2885829E+02  3.8146973E-06  0.0000000E+00  1.0000000E+00
 11  1  4  4   0   0  6.1859484E+00 -5.1235026E+00 -1.8628720E+02  1.8646028E+02  0.0000000E+00  0.0000000E+00  1.0000000E+00
-13  1  5  5   0   0  4.4912570E+01  7.1056944E+00  1.0873670E+02  1.1786136E+02  1.4273290E-05  0.0000000E+00  1.0000000E+00
 13  1  5  5   0   0  2.2579492E+01 -5.7122712E+01  4.7261771E+02  4.7659242E+02  4.8628039E-06  0.0000000E+00  1.0000000E+00
</event>
<event>
9 100 1.0000000E+00 1.0000000E+03 7.8125000E-03 0.0000000E+00
 21 -1  0  0 501 502  0.0000000E+00  0.0000000E+00  3.0742228E+02  3.0742228E+02  0.0000000E+00  0.0000000E+00  1.0000000E+00
 21 -1  0  0 502 501  0.0000000E+00  0.0000000E+00 -8.1021778E+02  8.1021778E+02  0.0000000E+00  0.0000000E+00  1.0000000E+00
 39  2  1  2   0   0  1.2505552E-12 -2.7000624E-13 -5.0279550E+02  1.1176401E+03  9.9815630E+02  0.0000000E+00  1.0000000E+00
 23  2  3  3   0   0 -4.7843233E+02  9.3421071E+01 -3.1307187E+02  5.8659715E+02  9.1963189E+01  0.0000000E+00  1.0000000E+00
 23  2  3  3   0   0  4.7843233E+02 -9.3421071E+01 -1.8972363E+02  5.3104291E+02  9.1577976E+01  0.0000000E+00  1.0000000E+00
-11  1  4  4   0   0 -1.4973721E+02  1.5548680E+01 -5.0606351E+01  1.5882064E+02  1.1444092E-05  0.0000000E+00  1.0000000E+00
 11  1  4  4   0   0 -3.2869512E+02  7.7872391E+01 -2.6246552E+02  4.2777651E+02  8.5830688E-06  0.0000000E+00  1.0000000E+00
-13  1  5  5   0   0  1.9100752E+02  7.8527535E+00 -6.8449983E+01  2.0305403E+02  8.3139399E-06  0.0000000E+00  1.0000000E+00
 13  1  5  5   0   0  2.8742481E+02 -1.0127382E+02 -1.2127364E+02  3.2798888E+02  8.6358882E-06  0.0000000E+00  1.0000000E+00
</event>
<event>
9 100 1.0000000E+00 1.0000000E+03 7.8125000E-03 0.0000000E+00
 21 -1  0  0 501 502  0.0000000E+00  0.0000000E+00  3.5923949E+02  3.5923949E+02  0.0000000E+00  0.0000000E+00  1.0000000E+00
 21 -1  0  0 502 501  0.0000000E+00  0.0000000E+00 -6.9495023E+02  6.9495023E+02  0.0000000E+00  0.0000000E+00  1.0000000E+00
 39  2  1  2   0   0 -2.5011104E-12  2.1032065E-12 -3.3571074E+02  1.0541897E+03  9.9930690E+02  0.0000000E+00  1.0000000E+00
 23  2  3  3   0   0 -3.3789001E+02  2.9071440E+02  5.0849576E+01  4.5782662E+02  9.1296305E+01  0.0000000E+00  1.0000000E+00
 23  2  3  3   0   0  3.3789001E+02 -2.9071440E+02 -3.8656032E+02  5.9636310E+02  8.6807544E+01  0.0000000E+00  1.0000000E+00
-11  1  4  4   0   0 -2.6772679E+02  1.8826890E+02  1.1226091E+01  3.2748868E+02  6.6244335E-06  0.0000000E+00  1.0000000E+00
 11  1  4  4   0   0 -7.0163224E+01  1.0244550E+02  3.9623485E+01  1.3033794E+02  1.3977512E-05  0.0000000E+00  1.0000000E+00
-13  1  5  5   0   0  9.2555421E+01 -3.7194578E+01 -6.5354408E+01  1.1925243E+02  2.4425981E-05  0.0000000E+00  1.0000000E+00
 13  1  5  5   0   0  2.4533459E+02 -2.5351983E+02 -3.2120591E+02  4.7711068E+02  7.5092391E-06  0.0000000E+00  1.0000000E+00
</event>
<event>
9 100 1.0000000E+00 1.0000000E+03 7.8125000E-03 0.0000000E+00
 21 -1  0  0 501 502  0.0000000E+00  0.0000000E+00  8.1527974E+02  8.1527974E+02  0.0000000E+00  0.0000000E+00  1.0000000E+00
 21 -1  0  0 502 501  0.0000000E+00  0.0000000E+00 -3.0609988E+02  3.0609988E+02  0.0000000E+00  0.0000000E+00  1.0000000E+00
 39  2  1  2   0   0  1.4495072E-12  2.3305802E-12  5.0917985E+02  1.1213796E+03  9.9911367E+02  0.0000000E+00  1.0000000E+00
 23  2  3  3   0   0  2.2308151E+02  3.5248911E+02 -3.5450191E+01  4.2935923E+02  9.5282225E+01  0.0000000E+00  1.0000000E+00
 23  2  3  3   0   0 -2.2308151E+02 -3.5248911E+02  5.4463004E+02  6.9202039E+02  9.0864735E+01  0.0000000E+00  1.0000000E+00
-11  1  4  4   0   0  1.9380427E+02  3.2775569E+02 -5.6476878E+00  3.8080938E+02  2.5898887E-06  0.0000000E+00  1.0000000E+00
 11  1  4  4   0   0  2.9277241E+01  2.4733413E+01 -2.9802503E+01  4.8549848E+01  2.9544911E-06  0.0000000E+00  1.0000000E+00
-13  1  5  5   0   0  6.5559270E+00 -2.9157566E+01  4.6939969E+01  5.5646244E+01  1.4273290E-05  0.0000000E+00  1.0000000E+00
 13  1  5  5   0   0 -2.2963744E+02 -3.2333154E+02  4.9769008E+02  6.3637414E+02  3.7546195E-06  0.0000000E+00  1.0000000E+00
</event>
<event>
9 100 1.0000000E+00 1.0000000E+03 7.8125000E-03 0.0000000E+00
 21 -1  0  0 501 502  0.0000000E+00  0.0000000E+00  3.9991462E+02  3.9991462E+02  0.0000000E+00  0.0000000E+00  1.0000000E+00
 21 -1  0  0 502 501  0.0000000E+00  0.0000000E+00 -6.5457810E+02  6.5457810E+02  0.0000000E+00  0.0000000E+00  1.0000000E+00
 39  2  1  2   0   0  1.1368684E-13  2.8421709E-13 -2.5466348E+02  1.0544927E+03  1.0232797E+03  0.0000000E+00  1.0000000E+00
 23  2  3  3   0   0 -1.2512168E+02 -3.0554214E+02  2.6513460E+02  4.3324313E+02  9.1606858E+01  0.0000000E+00  1.0000000E+00
 23  2  3  3   0   0  1.2512168E+02  3.0554214E+02 -5.1979808E+02  6.2124960E+02  8.2155910E+01  0.0000000E+00  1.0000000E+00
-11  1  4  4   0   0 -4.6082969E+01 -3.2345900E+01  2.7640037E+01  6.2720562E+01  1.1757687E-05  0.0000000E+00  1.0000000E+00
 11  1  4  4   0   0 -7.9038712E+01 -2.7319624E+02  2.3749456E+02  3.7052256E+02  3.8146973E-06  0.0000000E+00  1.0000000E+00
-13  1  5  5   0   0  1.2222690E+02  2.4495576E+02 -4.6450948E+02  5.3917696E+02  3.0902580E-06  0.0000000E+00  1.0000000E+00
 13  1  5  5   0   0  2.8947818E+00  6.0586384E+01 -5.5288598E+01  8.2072643E+01  1.0789593E-05  0.0000000E+00  1.0000000E+00
</event>
<event>
9 100 1.0000000E+00 1.0000000E+03 7.8125000E-03 0.0000000E+00
 21 -1  0  0 501 502  0.0000000E+00  0.0000000E+00  7.6137516E+02  7.6137516E+02  0.0000000E+00  0.0000000E+00  1.0000000E+00
 21 -1  0  0 502 501  0.0000000E+00  0.0000000E+00 -3.2843417E+02  3.2843417E+02  0.0000000E+00  0.0000000E+00  1.0000000E+00
 39  2  1  2   0   0  3.5527137E-13 -1.7621460E-12  4.3294100E+02  1.0898093E+03  1.0001232E+03  0.0000000E+00  1.0000000E+00
 23  2  3  3   0   0 -8.9574164E+01  4.8005099E+02  2.7699286E+02  5.6924127E+02  9.4011166E+01  0.0000000E+00  1.0000000E+00
 23  2  3  3   0   0  8.9574164E+01 -4.8005099E+02  1.5594814E+02  5.2056806E+02  9.0547202E+01  0.0000000E+00  1.0000000E+00
-11  1  4  4   0   0 -7.6459374E+01  4.6075148E+02  2.3899034E+02  5.2464688E+02  2.7392209E-06  0.0000000E+00  1.0000000E+00
 11  1  4  4   0   0 -1.3114790E+01  1.9299511E+01  3.8002519E+01  4.4594397E+01  9.3440618E-06  0.0000000E+00  1.0000000E+00
-13  1  5  5   0   0 -6.0998860E+00 -1.8058655E+02  7.7122281E+01  1.9646006E+02  6.2536607E-06  0.0000000E+00  1.0000000E+00
 13  1  5  5   0   0  9.5674050E+01 -2.9946444E+02  7.8825855E+01  3.2410799E+02  4.1569700E-06  0.0000000E+00  1.0000000E+00
</event>
<event>
9 100 1.0000000E+00 1.0000000E+03 7.8125000E-03 0.0000000E+00
 21 -1  0  0 501 502  0.0000000E+00  0.0000000E+00  1.1570530E+03  1.1570530E+03  0.0000000E+00  0.0000000E+00  1.0000000E+00
 21 -1  0  0 502 501  0.0000000E+00  0.0000000E+00 -2.1545715E+02  2.1545715E+02  0.0000000E+00  0.0000000E+00  1.0000000E+00
 39  2  1  2   0   0  6.4233063E-12 -1.1652901E-12  9.4159590E+02  1.3725102E+03  9.9858970E+02  0.0000000E+00  1.0000000E+00
 23  2  3  3   0   0 -4.2618440E+02  7.6237281E+01  1.5234983E+02  4.6770399E+02  8.9951589E+01  0.0000000E+00  1.0000000E+00
 23  2  3  3   0   0  4.2618440E+02 -7.6237281E+01  7.8924607E+02  9.0480621E+02  9.1212109E+01  0.0000000E+00  1.0000000E+00
-11  1  4  4   0   0 -1.0253305E+02  8.6662890E+00  7.7206210E+01  1.2864265E+02  1.7271776E-05  0.0000000E+00  1.0000000E+00
 11  1  4  4   0   0 -3.2365134E+02  6.7570992E+01  7.5143619E+01  3.3906134E+02  6.7434958E-06  0.0000000E+00  1.0000000E+00
-13  1  5  5   0   0  4.3463009E+01 -1.9153174E+01  4.2400348E+01  6.3668412E+01  0.0000000E+00  0.0000000E+00  1.0000000E+00
 13  1  5  5   0   0  3.8272139E+02 -5.7084107E+01  7.4684572E+02  8.4113779E+02  3.3717479E-06  0.0000000E+00  1.0000000E+00
</event>
<event>
9 100 1.0000000E+00 1.0000000E+03 7.8125000E-03 0.0000000E+00
 21 -1  0  0 501 502  0.0000000E+00  0.0000000E+00  2.1563952E+02  2.1563952E+02  0.0000000E+00  0.0000000E+00  1.0000000E+00
 21 -1  0  0 502 501  0.0000000E+00  0.0000000E+00 -1.1717348E+03  1.1717348E+03  0.0000000E+00  0.0000000E+00  1.0000000E+00
 39  2  1  2   0   0  8.3488771E-14  8.5265128E-13 -9.5609530E+02  1.3873743E+03  1.0053305E+03  0.0000000E+00  1.0000000E+00
 23  2  3  3   0   0  1.0003293E+01  9.6152703E+01 -1.1456856E+03  1.1534665E+03  9.2434086E+01  0.0000000E+00  1.0000000E+00
 23  2  3  3   0   0 -1.0003293E+01 -9.6152703E+01  1.8959030E+02  2.3390784E+02  9.7072069E+01  0.0000000E+00  1.0000000E+00
-11  1  4  4   0   0 -1.9393143E+01  7.6366214E+01 -4.4757260E+02  4.5445476E+02  2.7508173E-05  0.0000000E+00  1.0000000E+00
 11  1  4  4   0   0  2.9396436E+01  1.9786490E+01 -6.9811300E+02  6.9901174E+02  1.7892516E-05  0.0000000E+00  1.0000000E+00
-13  1  5  5   0   0 -2.1802393E+01 -2.8346300E+00 -3.1098213E-01  2.1988092E+01  1.3486992E-05  0.0000000E+00  1.0000000E+00
 13  1  5  5   0   0  1.1799101E+01 -9.3318073E+01  1.8990128E+02  2.1191975E+02  3.2815875E-06  0.0000000E+00  1.0000000E+00
</event>
<event>
9 100 1.0000000E+00 1.0000000E+03 7.8125000E-03 0.0000000E+00
 21 -1  0  0 501 502  0.0000000E+00  0.0000000E+00  8.9868724E+02  8.9868724E+02  0.0000000E+00  0.0000000E+00  1.0000000E+00
 21 -1  0  0 502 501  0.0000000E+00  0.0000000E+00 -2.7187091E+02  2.7187091E+02  0.0000000E+00  0.0000000E+00  1.0000000E+00
 39  2  1  2   0   0  5.6843419E-13  8.5265128E-14  6.2681632E+02  1.1705582E+03  9.8858873E+02  0.0000000E+00  1.0000000E+00
 23  2  3  3   0   0  4.7907589E+02  7.6093326E+01  3.5067016E+02  6.0520693E+02  8.9453662E+01  0.0000000E+00  1.0000000E+00
 23  2  3  3   0   0 -4.7907589E+02 -7.6093326E+01  2.7614616E+02  5.6535122E+02  8.9785281E+01  0.0000000E+00  1.0000000E+00
-11  1  4  4   0   0  1.9619301E+02  2.7215388E+01  1.9798285E+02  2.8005282E+02  1.1284027E-05  0.0000000E+00  1.0000000E+00
 11  1  4  4   0   0  2.8288288E+02  4.8877938E+01  1.5268732E+02  3.2515411E+02  6.6072495E-06  0.0000000E+00  1.0000000E+00
-13  1  5  5   0   0 -4.0410678E+02 -3.4080623E+01  2.4577595E+02  4.7420417E+02  2.9778471E-06  0.0000000E+00  1.0000000E+00
 13  1  5  5   0   0 -7.4969111E+01 -4.2012703E+01  3.0370210E+01  9.1147049E+01  1.1121658E-05  0.0000000E+00  1.0000000E+00
</event>
<event>
9 100 1.0000000E+00 1.0000000E+03 7.8125000E-03 0.0000000E+00
 21 -1  0  0 501 502  0.0000000E+00  0.0000000E+00  6.4233249E+02  6.4233249E+02  0.0000000E+00  0.0000000E+00  1.0000000E+00
 21 -1  0  0 502 501  0.0000000E+00  0.0000000E+00 -3.8191758E+02  3.8191758E+02  0.0000000E+00  0.0000000E+00  1.0000000E+00
 39  2  1  2   0   0  5.8264504E-13 -5.1159077E-13  2.6041491E+02  1.0242501E+03  9.9059188E+02  0.0000000E+00  1.0000000E+00
 23  2  3  3   0   0  1.1992214E+02 -1.0852804E+02 -3.4504668E+02  3.9191972E+02  9.1565290E+01  0.0000000E+00  1.0000000E+00
 23  2  3  3   0   0 -1.1992214E+02  1.0852804E+02  6.0546159E+02  6.3233034E+02  8.4251275E+01  0.0000000E+00  1.0000000E+00
-11  1  4  4   0   0  2.0784642E+00 -3.9586846E+01 -1.4056855E+02  1.4605121E+02  6.6072495E-06  0.0000000E+00  1.0000000E+00
 11  1  4  4   0   0  1.1784368E+02 -6.8941193E+01 -2.0447813E+02  2.4586851E+02  5.0463701E-06  0.0000000E+00  1.0000000E+00
-13  1  5  5   0   0 -3.6426706E+01  2.6660565E+01  3.3004853E+02  3.3312118E+02  8.5299224E-06  0.0000000E+00  1.0000000E+00
 13  1  5  5   0   0 -8.3495435E+01  8.1867473E+01  2.7541306E+02  2.9920916E+02  8.5299224E-06  0.0000000E+00  1.0000000E+00
</event>
<event>
9 100 1.0000000E+00 1.0000000E+03 7.8125000E-03 0.0000000E+00
 21 -1  0  0 501 502  0.0000000E+00  0.0000000E+00  4.3668601E+02  4.3668601E+02  0.0000000E+00  0.0000000E+00  1.0000000E+00
 21 -1  0  0 502 501  0.0000000E+00  0.0000000E+00 -6.3279329E+02  6.3279329E+02  0.0000000E+00  0.0000000E+00  1.0000000E+00
 39  2  1  2   0   0  1.6484591E-12 -1.2789769E-13 -1.9610728E+02  1.0694793E+03  1.0513458E+03  0.0000000E+00  1.0000000E+00
 23  2  3  3   0   0 -2.7341904E+02  2.1715043E+01 -5.4489085E+02  6.1639503E+02  8.8358885E+01  0.0000000E+00  1.0000000E+00
 23  2  3  3   0   0  2.7341904E+02 -2.1715043E+01  3.4878357E+02  4.5308426E+02  9.1683453E+01  0.0000000E+00  1.0000000E+00
-11  1  4  4   0   0 -1.9656636E+02 -2.2339830E+01 -3.4377052E+02  3.9663027E+02  7.1366451E-06  0.0000000E+00  1.0000000E+00
 11  1  4  4   0   0 -7.6852675E+01  4.4054873E+01 -2.0112032E+02  2.1976476E+02  3.8146973E-06  0.0000000E+00  1.0000000E+00
-13  1  5  5   0   0  1.7542115E+02  8.5836625E+00  2.7662903E+02  3.2767344E+02  1.3486992E-06  0.0000000E+00  1.0000000E+00
 13  1  5  5   0   0  9.7997888E+01 -3.0298705E+01  7.2154535E+01  1.2541082E+02  3.8146973E-06  0.0000000E+00  1.0000000E+00
</event>
<event>
9 100 1.0000000E+00 1.0000000E+03 7.8125000E-03 0.0000000E+00
 21 -1  0  0 501 502  0.0000000E+00  0.0000000E+00  1.4516377E+03  1.4516377E+03  0.0000000E+00  0.0000000E+00  1.0000000E+00
 21 -1  0  0 502 501  0.0000000E+00  0.0000000E+00 -1.7071712E+02  1.7071712E+02  0.0000000E+00  0.0000000E+00  1.0000000E+00
 39  2  1  2   0   0 -2.9558578E-12 -1.0942358E-12  1.2809206E+03  1.6223548E+03  9.9562926E+02  0.0000000E+00  1.0000000E+00
 23  2  3  3   0   0  3.1545397E+02  1.1558029E+02  1.2211516E+03  1.2697674E+03  9.0707743E+01  0.0000000E+00  1.0000000E+00
 23  2  3  3   0   0 -3.1545397E+02 -1.1558029E+02  5.9768956E+01  3.5258744E+02  8.8744396E+01  0.0000000E+00  1.0000000E+00
-11  1  4  4   0   0  2.4557044E+02  1.2796439E+02  9.5905762E+02  9.9823406E+02  5.3947966E-06  0.0000000E+00  1.0000000E+00
 11  1  4  4   0   0  6.9883526E+01 -1.2384106E+01  2.6209399E+02  2.7153330E+02  2.8546580E-05  0.0000000E+00  1.0000000E+00
-13  1  5  5   0   0 -2.9563314E+02 -9.7725506E+01  3.0300432E+01  3.1283757E+02  1.2157010E-06  0.0000000E+00  1.0000000E+00
 13  1  5  5   0   0 -1.9820823E+01 -1.7854781E+01  2.9468524E+01  3.9749870E+01  7.2864088E-06  0.0000000E+00  1.0000000E+00
</event>
<event>
9 100 1.0000000E+00 1.0000000E+03 7.8125000E-03 0.0000000E+00
 21 -1  0  0 501 502  0.0000000E+00  0.0000000E+00  1.0706513E+03  1.0706513E+03  0.0000000E+00  0.0000000E+00  1.0000000E+00
 21 -1  0  0 502 501  0.0000000E+00  0.0000000E+00 -2.3960012E+02  2.3960012E+02  0.0000000E+00  0.0000000E+00  1.0000000E+00
 39  2  1  2   0   0 -3.9221959E-12 -1.8189894E-12  8.3105123E+02  1.3102515E+03  1.0129722E+03  0.0000000E+00  1.0000000E+00
 23  2  3  3   0   0  4.3430723E+02  1.9771719E+02  2.3036238E+02  5.3774263E+02  9.1572133E+01  0.0000000E+00  1.0000000E+00
 23  2  3  3   0   0 -4.3430723E+02 -1.9771719E+02  6.0068885E+02  7.7250883E+02  9.0707985E+01  0.0000000E+00  1.0000000E+00
-11  1  4  4   0   0  3.9249284E+02  1.7360151E+02  1.7288497E+02  4.6268491E+02  1.1680077E-06  0.0000000E+00  1.0000000E+00
 11  1  4  4   0   0  4.1814393E+01  2.4115682E+01  5.7477407E+01  7.5057724E+01  5.7220459E-06  0.0000000E+00  1.0000000E+00
-13  1  5  5   0   0 -8.5645627E+01 -4.2682012E+01  1.8472129E+02  2.0803577E+02  7.6293945E-06  0.0000000E+00  1.0000000E+00
 13  1  5  5   0   0 -3.4866161E+02 -1.5503518E+02  4.1596756E+02  5.6447306E+02  3.8146973E-06  0.0000000E+00  1.0000000E+00
</event>
<event>
9 100 1.0000000E+00 1.0000000E+03 7.8125000E-03 0.0000000E+00
 21 -1  0  0 501 502  0.0000000E+00  0.0000000E+00  1.0105507E+03  1.0105507E+03  0.0000000E+00  0.0000000E+00  1.0000000E+00
 21 -1  0  0 502 501  0.0000000E+00  0.0000000E+00 -2.4798969E+02  2.4798969E+02  0.0000000E+00  0.0000000E+00  1.0000000E+00
 39  2  1  2   0   0  6.2527761E-13 -5.6843419E-13  7.6256105E+02  1.2585404E+03  1.0012116E+03  0.0000000E+00  1.0000000E+00
 23  2  3  3   0   0  1.1333708E+02 -1.0620180E+02 -2.1160980E+02  2.6861960E+02  5.7040912E+01  0.0000000E+00  1.0000000E+00
 23  2  3  3   0   0 -1.1333708E+02  1.0620180E+02  9.7417085E+02  9.8992082E+02  8.2524278E+01  0.0000000E+00  1.0000000E+00
-11  1  4  4   0   0 -6.5700231E+00 -7.1952964E+00 -1.5998730E+01  1.8732241E+01  7.1366451E-06  0.0000000E+00  1.0000000E+00
 11  1  4  4   0   0  1.1990710E+02 -9.9006506E+01 -1.9561107E+02  2.4988736E+02  1.0528279E-06  0.0000000E+00  1.0000000E+00
-13  1  5  5   0   0 -8.7790311E+01  1.1846263E+02  8.0458649E+02  8.1798530E+02  6.6072495E-06  0.0000000E+00  1.0000000E+00
 13  1  5  5   0   0 -2.5546769E+01 -1.2260828E+01  1.6958437E+02  1.7193552E+02  3.0517578E-05  0.0000000E+00  1.0000000E+00
</event>
<event>
9 100 1.0000000E+00 1.0000000E+03 7.8125000E-03 0.0000000E+00
 21 -1  0  0 501 502  0.0000000E+00  0.0000000E+00  1.3095613E+03  1.3095613E+03  0.0000000E+00  0.0000000E+00  1.0000000E+00
 21 -1  0  0 502 501  0.0000000E+00  0.0000000E+00 -5.1667707E+02  5.1667707E+02  0.0000000E+00  0.0000000E+00  1.0000000E+00
 39  2  1  2   0   0 -1.1368684E-12 -1.2505552E-12  7.9288422E+02  1.8262384E+03  1.6451386E+03  0.0000000E+00  1.0000000E+00
 23  2  3  3   0   0  4.9025757E+02  5.5373325E+02  7.8390050E+02  1.0812708E+03  8.7598942E+01  0.0000000E+00  1.0000000E+00
 23  2  3  3   0   0 -4.9025757E+02 -5.5373325E+02  8.9837159E+00  7.4496755E+02  8.9010899E+01  0.0000000E+00  1.0000000E+00
-11  1  4  4   0   0  3.0051657E+02  3.1742661E+02  5.2092915E+02  6.8002723E+02  1.5258789E-05  0.0000000E+00  1.0000000E+00
 11  1  4  4   0   0  1.8974101E+02  2.3630664E+02  2.6297135E+02  4.0124358E+02  1.7059845E-05  0.0000000E+00  1.0000000E+00
-13  1  5  5   0   0 -3.2939492E+02 -3.7364377E+02  4.7798676E+01  5.0039524E+02  1.2732534E-05  0.0000000E+00  1.0000000E+00
 13  1  5  5   0   0 -1.6086265E+02 -1.8008948E+02 -3.8814960E+01  2.4457230E+02  1.8857689E-05  0.0000000E+00  1.0000000E+00
</event>
<event>
9 100 1.0000000E+00 1.0000000E+03 7.8125000E-03 0.0000000E+00
 21 -1  0  0 501 502  0.0000000E+00  0.0000000E+00  1.3131887E+03  1.3131887E+03  0.0000000E+00  0.0000000E+00  1.0000000E+00
 21 -1  0  0 502 501  0.0000000E+00  0.0000000E+00 -1.9034570E+02  1.9034570E+02  0.0000000E+00  0.0000000E+00  1.0000000E+00
 39  2  1  2   0   0 -2.8421709E-12 -3.3537617E-12  1.1228430E+03  1.5035344E+03  9.9991964E+02  0.0000000E+00  1.0000000E+00
 23  2  3  3   0   0 -2.5653846E+02 -3.0197284E+02  9.9842329E+02  1.0779439E+03  9.0080224E+01  0.0000000E+00  1.0000000E+00
 23  2  3  3   0   0  2.5653846E+02  3.0197284E+02  1.2441967E+02  4.2559045E+02  9.2991404E+01  0.0000000E+00  1.0000000E+00
-11  1  4  4   0   0  3.5656066E+00 -1.7852143E+01  2.3827239E+01  2.9985828E+01  3.7376247E-05  0.0000000E+00  1.0000000E+00
 11  1  4  4   0   0 -2.6010407E+02 -2.8412070E+02  9.7459605E+02  1.0479581E+03  2.5231851E-06  0.0000000E+00  1.0000000E+00
-13  1  5  5   0   0  8.5209758E-01  3.7838124E+01  2.2805825E+01  4.4187729E+01  4.0460975E-06  0.0000000E+00  1.0000000E+00
 13  1  5  5   0   0  2.5568636E+02  2.6413471E+02  1.0161385E+02  3.8140273E+02  0.0000000E+00  0.0000000E+00  1.0000000E+00
</event>
<event>
9 100 1.0000000E+00 1.0000000E+03 7.8125000E-03 0.0000000E+00
 21 -1  0  0 501 502  0.0000000E+00  0.0000000E+00  1.2301850E+03  1.2301850E+03  0.0000000E+00  0.0000000E+00  1.0000000E+00
 21 -1  0  0 502 501  0.0000000E+00  0.0000000E+00 -2.0047970E+02  2.0047970E+02  0.0000000E+00  0.0000000E+00  1.0000000E+00
 39  2  1  2   0   0 -3.0695446E-12  3.1974423E-14  1.0297053E+03  1.4306647E+03  9.9323132E+02  0.0000000E+00  1.0000000E+00
 23  2  3  3   0   0 -4.3809676E+02  5.4159764E+00  8.2679057E+02  9.3759201E+02  5.9481411E+01  0.0000000E+00  1.0000000E+00
 23  2  3  3   0   0  4.3809676E+02 -5.4159764E+00  2.0291469E+02  4.9307264E+02  9.9940780E+01  0.0000000E+00  1.0000000E+00
-11  1  4  4   0   0 -2.0702689E+02 -2.6726984E+01  4.0087381E+02  4.5196712E+02  9.3440618E-06  0.0000000E+00  1.0000000E+00
 11  1  4  4   0   0 -2.3106987E+02  3.2142960E+01  4.2591676E+02  4.8562490E+02  5.3947966E-06  0.0000000E+00  1.0000000E+00
-13  1  5  5   0   0  4.2763341E+02  7.3499662E+00  1.7816076E+02  4.6332020E+02  4.0601221E-06  0.0000000E+00  1.0000000E+00
 13  1  5  5   0   0  1.0463353E+01 -1.2765943E+01  2.4753925E+01  2.9752443E+01  2.7242387E-05  0.0000000E+00  1.0000000E+00
</event>
<event>
9 100 1.0000000E+00 1.0000000E+03 7.8125000E-03 0.0000000E+00
 21 -1  0  0 501 502  0.0000000E+00  0.0000000E+00  4.1179991E+02  4.1179991E+02  0.0000000E+00  0.0000000E+00  1.0000000E+00
 21 -1  0  0 502 501  0.0000000E+00  0.0000000E+00 -5.8127545E+02  5.8127545E+02  0.0000000E+00  0.0000000E+00  1.0000000E+00
 39  2  1  2   0   0 -1.5631940E-13 -2.2737368E-13 -1.6947554E+02  9.9307536E+02  9.7850739E+02  0.0000000E+00  1.0000000E+00
 23  2  3  3   0   0  6.8642607E+01  1.0026894E+02 -5.5685432E+02  5.7651362E+02  8.6692267E+01  0.0000000E+00  1.0000000E+00
 23  2  3  3   0   0 -6.8642607E+01 -1.0026894E+02  3.8737878E+02  4.1656174E+02  9.3250723E+01  0.0000000E+00  1.0000000E+00
-11  1  4  4   0   0  6.2533859E+01  9.5948828E+01 -5.5736901E+02  5.6901395E+02  1.6294302E-06  0.0000000E+00  1.0000000E+00
 11  1  4  4   0   0  6.1087482E+00  4.3201097E+00  5.1468710E-01  7.4996704E+00  2.0185481E-05  0.0000000E+00  1.0000000E+00
-13  1  5  5   0   0 -8.4255620E+01 -4.8664310E+01  2.1602466E+02  2.3692589E+02  6.3259598E-06  0.0000000E+00  1.0000000E+00
 13  1  5  5   0   0  1.5613012E+01 -5.1604628E+01  1.7135412E+02  1.7963585E+02  8.0921949E-06  0.0000000E+00  1.0000000E+00
</event>
<event>
9 100 1.0000000E+00 1.0000000E+03 7.8125000E-03 0.0000000E+00
 21 -1  0  0 501 502  0.0000000E+00  0.0000000E+00  6.5978008E+02  6.5978008E+02  0.0000000E+00  0.0000000E+00  1.0000000E+00
 21 -1  0  0 502 501  0.0000000E+00  0.0000000E+00 -3.7631219E+02  3.7631219E+02  0.0000000E+00  0.0000000E+00  1.0000000E+00
 39  2  1  2   0   0 -3.4106051E-13 -4.8316906E-13  2.8346789E+02  1.0360923E+03  9.9656066E+02  0.0000000E+00  1.0000000E+00
 23  2  3  3   0   0 -1.1720785E+02 -1.6267285E+02 -3.2285920E+02  3.9105035E+02  9.2098735E+01  0.0000000E+00  1.0000000E+00
 23  2  3  3   0   0  1.1720785E+02  1.6267285E+02  6.0632709E+02  6.4504192E+02  9.0809732E+01  0.0000000E+00  1.0000000E+00
-11  1  4  4   0   0 -3.6718247E+01 -9.7491674E+00 -2.1485466E+01  4.3645174E+01  1.0789593E-05  0.0000000E+00  1.0000000E+00
 11  1  4  4   0   0 -8.0489602E+01 -1.5292368E+02 -3.0137373E+02  3.4740517E+02  2.5231851E-06  0.0000000E+00  1.0000000E+00
-13  1  5  5   0   0  4.0301309E+01  3.2719625E+01  6.5763402E+01  8.3783020E+01  1.7059845E-05  0.0000000E+00  1.0000000E+00
 13  1  5  5   0   0  7.6906540E+01  1.2995322E+02  5.4056368E+02  5.6125890E+02  4.0460975E-06  0.0000000E+00  1.0000000E+00
</event>
<event>
9 100 1.0000000E+00 1.0000000E+03 7.8125000E-03 0.0000000E+00
 21 -1  0  0 501 502  0.0000000E+00  0.0000000E+00  4.5360263E+02  4.5360263E+02  0.0000000E+00  0.0000000E+00  1.0000000E+00
 21 -1  0  0 502 501  0.0000000E+00  0.0000000E+00 -5.1952243E+02  5.1952243E+02  0.0000000E+00  0.0000000E+00  1.0000000E+00
 39  2  1  2   0   0  5.6843419E-13  1.4921397E-13 -6.5919801E+01  9.7312505E+02  9.7088977E+02  0.0000000E+00  1.0000000E+00
 23  2  3  3   0   0 -1.9517710E+02 -5.6630100E+01 -4.6542365E+02  5.1587198E+02  9.0574082E+01  0.0000000E+00  1.0000000E+00
 23  2  3  3   0   0  1.9517710E+02  5.6630100E+01  3.9950385E+02  4.5725307E+02  9.0421103E+01  0.0000000E+00  1.0000000E+00
-11  1  4  4   0   0 -1.1254009E+02 -1.4068942E+01 -1.5655998E+02  1.9332417E+02  7.6293945E-06  0.0000000E+00  1.0000000E+00
 11  1  4  4   0   0 -8.2637005E+01 -4.2561158E+01 -3.0886367E+02  3.2254781E+02  4.6720309E-06  0.0000000E+00  1.0000000E+00
-13  1  5  5   0   0  8.7902716E+01  2.4705520E+00  2.5254032E+02  2.6741280E+02  4.6720309E-06  0.0000000E+00  1.0000000E+00
 13  1  5  5   0   0  1.0727438E+02  5.4159548E+01  1.4696353E+02  1.8984027E+02  0.0000000E+00  0.0000000E+00  1.0000000E+00
</event>
<event>
9 100 1.0000000E+00 1.0000000E+03 7.8125000E-03 0.0000000E+00
 21 -1  0  0 501 502  0.0000000E+00  0.0000000E+00  2.6145802E+02  2.6145802E+02  0.0000000E+00  0.0000000E+00  1.0000000E+00
 21 -1  0  0 502 501  0.0000000E+00  0.0000000E+00 -9.4853154E+02  9.4853154E+02  0.0000000E+00  0.0000000E+00  1.0000000E+00
 39  2  1  2   0   0 -5.7553962E-13  4.3200998E-12 -6.8707352E+02  1.2099896E+03  9.9599433E+02  0.0000000E+00  1.0000000E+00
 23  2  3  3   0   0 -6.3509231E+01  4.6794386E+02 -1.8815202E+02  5.1689209E+02  9.3655600E+01  0.0000000E+00  1.0000000E+00
 23  2  3  3   0   0  6.3509231E+01 -4.6794386E+02 -4.9892149E+02  6.9309747E+02  9.1959618E+01  0.0000000E+00  1.0000000E+00
-11  1  4  4   0   0 -4.2376240E+01  6.7196980E+01 -4.1518781E+01  8.9638100E+01  8.3139399E-06  0.0000000E+00  1.0000000E+00
 11  1  4  4   0   0 -2.1132991E+01  4.0074688E+02 -1.4663324E+02  4.2725399E+02  2.7804145E-06  0.0000000E+00  1.0000000E+00
-13  1  5  5   0   0 -1.8521096E+01 -2.7953686E+01 -3.4915273E+01  4.8409874E+01  2.4722064E-05  0.0000000E+00  1.0000000E+00
 13  1  5  5   0   0  8.2030327E+01 -4.3999017E+02 -4.6400622E+02  6.4468759E+02  2.8610229E-06  0.0000000E+00  1.0000000E+00
</event>
<event>
9 100 1.0000000E+00 1.0000000E+03 7.8125000E-03 0.0000000E+00
 21 -1  0  0 501 502  0.0000000E+00  0.0000000E+00  9.0270080E+02  9.0270080E+02  0.0000000E+00  0.0000000E+00  1.0000000E+00
 21 -1  0  0 502 501  0.0000000E+00  0.0000000E+00 -2.7453294E+02  2.7453294E+02  0.0000000E+00  0.0000000E+00  1.0000000E+00
 39  2  1  2   0   0 -1.3926638E-12 -2.2737368E-12  6.2816786E+02  1.1772337E+03  9.9563267E+02  0.0000000E+00  1.0000000E+00
 23  2  3  3   0   0  2.2849497E+02  3.8063074E+02  7.0214683E+01  4.5857641E+02  9.0953345E+01  0.0000000E+00  1.0000000E+00
 23  2  3  3   0   0 -2.2849497E+02 -3.8063074E+02  5.5795318E+02  7.1865734E+02  8.9815944E+01  0.0000000E+00  1.0000000E+00
-11  1  4  4   0   0 -5.0544210E+00  3.3299916E+01  1.3136858E+01  3.6152574E+01  7.2629672E-06  0.0000000E+00  1.0000000E+00
 11  1  4  4   0   0  2.3354939E+02  3.4733082E+02  5.7077824E+01  4.2242383E+02  6.3079627E-07  0.0000000E+00  1.0000000E+00
-13  1  5  5   0   0 -5.7892740E+01 -8.7742738E+01  1.9837795E+02  2.2450872E+02  1.0092740E-05  0.0000000E+00  1.0000000E+00
 13  1  5  5   0   0 -1.7060223E+02 -2.9288800E+02  3.5957524E+02  4.9414861E+02  6.0315660E-06  0.0000000E+00  1.0000000E+00
</event>
<event>
9 100 1.0000000E+00 1.0000000E+03 7.8125000E-03 0.0000000E+00
 21 -1  0  0 501 502  0.0000000E+00  0.0000000E+00  2.5625644E+02  2.5625644E+02  0.0000000E+00  0.0000000E+00  1.0000000E+00
 21 -1  0  0 502 501  0.0000000E+00  0.0000000E+00 -9.7565187E+02  9.7565187E+02  0.0000000E+00  0.0000000E+00  1.0000000E+00
 39  2  1  2   0   0  1.1368684E-13  5.6843419E-14 -7.1939543E+02  1.2319083E+03  1.0000341E+03  0.0000000E+00  1.0000000E+00
 23  2  3  3   0   0 -3.8101791E+02 -2.9503919E+02 -4.8153293E+02  6.8736847E+02  9.1535122E+01  0.0000000E+00  1.0000000E+00
 23  2  3  3   0   0  3.8101791E+02  2.9503919E+02 -2.3786251E+02  5.4453984E+02  8.7876621E+01  0.0000000E+00  1.0000000E+00
-11  1  4  4   0   0 -2.2461273E+02 -1.5423674E+02 -2.1097841E+02  3.4460374E+02  3.8146973E-06  0.0000000E+00  1.0000000E+00
 11  1  4  4   0   0 -1.5640518E+02 -1.4080245E+02 -2.7055451E+02  3.4276472E+02  4.6720309E-06  0.0000000E+00  1.0000000E+00
-13  1  5  5   0   0  3.4230708E+02  2.2470381E+02 -1.9503949E+02  4.5354861E+02  4.7683716E-06  0.0000000E+00  1.0000000E+00
 13  1  5  5   0   0  3.8710828E+01  7.0335380E+01 -4.2823020E+01  9.0991236E+01  1.5018478E-05  0.0000000E+00  1.0000000E+00
</event>
<event>
9 100 1.0000000E+00 1.0000000E+03 7.8125000E-03 0.0000000E+00
 21 -1  0  0 501 502  0.0000000E+00  0.0000000E+00  1.4545338E+03  1.4545338E+03  0.0000000E+00  0.0000000E+00  1.0000000E+00
 21 -1  0  0 502 501  0.0000000E+00  0.0000000E+00 -1.7186267E+02  1.7186267E+02  0.0000000E+00  0.0000000E+00  1.0000000E+00
 39  2  1  2   0   0  1.9895197E-13  3.9790393E-13  1.2826711E+03  1.6263964E+03  9.9996012E+02  0.0000000E+00  1.0000000E+00
 23  2  3  3   0   0  2.5300596E+02  4.0238368E+02  8.4365268E+02  9.7278404E+02  9.2920897E+01  0.0000000E+00  1.0000000E+00
 23  2  3  3   0   0 -2.5300596E+02 -4.0238368E+02  4.3901843E+02  6.5361241E+02  9.2451924E+01  0.0000000E+00  1.0000000E+00
-11  1  4  4   0   0  2.1965761E+02  3.3286697E+02  7.6459142E+02  8.6235139E+02  9.5367432E-07  0.0000000E+00  1.0000000E+00
 11  1  4  4   0   0  3.3348350E+01  6.9516719E+01  7.9061266E+01  1.1043265E+02  2.6428998E-05  0.0000000E+00  1.0000000E+00
-13  1  5  5   0   0 -1.4955006E+02 -1.9819352E+02  2.8362398E+02  3.7694622E+02  6.3259598E-06  0.0000000E+00  1.0000000E+00
 13  1  5  5   0   0 -1.0345590E+02 -2.0419016E+02  1.5539445E+02  2.7666619E+02  5.3947966E-06  0.0000000E+00  1.0000000E+00
</event>
<event>
9 100 1.0000000E+00 1.0000000E+03 7.8125000E-03 0.0000000E+00
 21 -1  0  0 501 502  0.0000000E+00  0.0000000E+00  1.6097074E+02  1.6097074E+02  0.0000000E+00  0.0000000E+00  1.0000000E+00
 21 -1  0  0 502 501  0.0000000E+00  0.0000000E+00 -1.5427234E+03  1.5427234E+03  0.0000000E+00  0.0000000E+00  1.0000000E+00
 39  2  1  2   0   0  7.5317530E-13  1.3926638E-12 -1.3817527E+03  1.7036942E+03  9.9666109E+02  0.0000000E+00  1.0000000E+00
 23  2  3  3   0   0 -8.2195615E+01 -1.4951785E+02  1.0135755E+02  2.0810676E+02  6.2636771E+01  0.0000000E+00  1.0000000E+00
 23  2  3  3   0   0  8.2195615E+01  1.4951785E+02 -1.4831102E+03  1.4955874E+03  8.9744124E+01  0.0000000E+00  1.0000000E+00
-11  1  4  4   0   0 -9.1938145E+01 -1.3362278E+02  9.6902868E+01  1.8893871E+02  2.8697021E-06  0.0000000E+00  1.0000000E+00
 11  1  4  4   0   0  9.7425301E+00 -1.5895067E+01  4.4546861E+00  1.9168054E+01  1.1601949E-05  0.0000000E+00  1.0000000E+00
-13  1  5  5   0   0  9.9407277E+01  1.0298302E+02 -1.1135638E+03  1.1227251E+03  5.3947966E-06  0.0000000E+00  1.0000000E+00
 13  1  5  5   0   0 -1.7211662E+01  4.6534830E+01 -3.6954638E+02  3.7286225E+02  3.0517578E-05  0.0000000E+00  1.0000000E+00
</event>
<event>
9 100 1.0000000E+00 1.0000000E+03 7.8125000E-03 0.0000000E+00
 21 -1  0  0 501 502  0.0000000E+00  0.0000000E+00  3.9533975E+02  3.9533975E+02  0.0000000E+00  0.0000000E+00  1.0000000E+00
 21 -1  0  0 502 501  0.0000000E+00  0.0000000E+00 -6.4393035E+02  6.4393035E+02  0.0000000E+00  0.0000000E+00  1.0000000E+00
 39  2  1  2   0   0 -2.1316282E-13 -5.6843419E-13 -2.4859060E+02  1.0392701E+03  1.0091011E+03  0.0000000E+00  1.0000000E+00
 23  2  3  3   0   0 -8.6619400E+01 -2.8157907E+02 -5.3667995E+02  6.1738624E+02  7.9691382E+01  0.0000000E+00  1.0000000E+00
 23  2  3  3   0   0  8.6619400E+01  2.8157907E+02  2.8808934E+02  4.2188385E+02  9.0558406E+01  0.0000000E+00  1.0000000E+00
-11  1  4  4   0   0  1.3648495E+01 -2.0719178E+01 -5.8243690E+01  6.3307924E+01  1.0789593E-05  0.0000000E+00  1.0000000E+00
 11  1  4  4   0   0 -1.0026789E+02 -2.6085989E+02 -4.7843626E+02  5.5407832E+02  1.5078915E-06  0.0000000E+00  1.0000000E+00
-13  1  5  5   0   0 -6.4580584E+00  9.6359352E+01  1.2594233E+02  1.5870823E+02  9.7256079E-06  0.0000000E+00  1.0000000E+00
 13  1  5  5   0   0  9.3077458E+01  1.8521972E+02  1.6214701E+02  2.6317563E+02  6.6072495E-06  0.0000000E+00  1.0000000E+00
</event>
<event>
9 100 1.0000000E+00 1.0000000E+03 7.8125000E-03 0.0000000E+00
 21 -1  0  0 501 502  0.0000000E+00  0.0000000E+00  5.1333114E+02  5.1333114E+02  0.0000000E+00  0.0000000E+00  1.0000000E+00
 21 -1  0  0 502 501  0.0000000E+00  0.0000000E+00 -4.8791661E+02  4.8791661E+02  0.0000000E+00  0.0000000E+00  1.0000000E+00
 39  2  1  2   0   0 -3.4106051E-13 -5.6843419E-14  2.5414531E+01  1.0012478E+03  1.0009252E+03  0.0000000E+00  1.0000000E+00
 23  2  3  3   0   0  1.3500569E+02  2.2410552E+01  4.8543835E+02  5.1269593E+02  9.2075811E+01  0.0000000E+00  1.0000000E+00
 23  2  3  3   0   0 -1.3500569E+02 -2.2410552E+01 -4.6002382E+02  4.8855183E+02  9.1280898E+01  0.0000000E+00  1.0000000E+00
-11  1  4  4   0   0  8.6870898E+01  5.3151724E+01  2.4025832E+02  2.6095156E+02  1.0446979E-05  0.0000000E+00  1.0000000E+00
 11  1  4  4   0   0  4.8134790E+01 -3.0741172E+01  2.4518003E+02  2.5174437E+02  1.0092740E-05  0.0000000E+00  1.0000000E+00
-13  1  5  5   0   0 -9.4062191E+01 -1.3422889E+00 -4.0961400E+02  4.2027744E+02  9.5367432E-07  0.0000000E+00  1.0000000E+00
 13  1  5  5   0   0 -4.0943497E+01 -2.1068263E+01 -5.0409818E+01  6.8274383E+01  9.3440618E-06  0.0000000E+00  1.0000000E+00
</event>
<!-- Number of events:      1647  -->
</LesHouchesEvents>
